QMMM reactant CHA#2 frame 11630
 55680
  39.0821419  57.8963432  51.6076584  39.1705971  58.8693924  51.8634987
  38.2553787  57.5263214  52.0544739  39.8030548  57.3116608  52.0058136
  39.0520401  57.7798653  50.1460304  38.4514656  58.6319084  49.8275490
  40.4634361  57.9201622  49.5032005  40.2909317  57.9730339  48.4282379
  40.8695412  58.8840752  49.8098755  41.4662056  56.8339119  49.6570244
  41.8497467  56.8885269  50.6758537  41.0563011  55.8466949  49.4437599
  42.8983955  56.9051323  48.4668427  44.1680679  56.0776253  49.4394073
  43.7844772  55.1131630  49.7722206  44.9697914  55.8234482  48.7460556
  44.4486237  56.7039986  50.2861900  38.3256874  56.4848251  49.7436218
  37.8338280  55.7811508  50.6375046  38.3159790  56.1343536  48.4705009
  38.7397957  56.7706985  47.8105469  37.8144379  54.9353485  47.8343086
  36.8245468  54.7397690  48.2465744  37.7569580  55.2680550  46.3890572
  37.0611382  56.1070595  46.3861656  38.6911354  55.6311951  45.9606361
  37.1816292  54.0801926  45.5484695  36.3455009  53.7258797  46.1513443
  37.9598885  53.3259964  45.4318619  36.5022011  54.6195679  43.9169807
  34.7265930  54.6417999  44.3714943  34.4719391  53.7281418  44.9086037
  34.1665039  54.6246719  43.4365578  34.4410286  55.5934868  44.8196564
  38.5996590  53.6403847  48.1519127  39.8266792  53.4891701  48.0498924
  37.8582344  52.5947647  48.5338287  36.8592262  52.6858215  48.6512833
  38.4489746  51.3201790  48.9490356  39.5185204  51.5265808  48.9886169
  38.0057640  50.8955078  50.3657799  36.9213295  50.7917938  50.4025078
  38.5933495  49.5071678  50.7491875  38.0844383  49.0753212  51.6109352
  38.5334587  48.7591553  49.9586220  39.6499863  49.6459885  50.9779701
  38.4560776  51.9358635  51.3871803  39.5084152  51.8045502  51.6390648
  38.2603378  52.9677849  51.0957527  37.6817055  51.7167397  52.6441574
  38.0589752  52.3643494  53.4355965  36.6557770  52.0508690  52.4894600
  37.8651199  50.7126160  53.0265045  38.1613312  50.3274727  47.7471466
  37.0457306  50.1531410  47.3568001  39.1561928  49.6670647  47.2682419
  40.0604668  49.7404938  47.7120857  39.1138992  48.7312050  46.1529465
  38.0675049  48.6072006  45.8740463  39.9269867  49.1783142  44.9146767
  40.9827309  49.0644226  45.1607132  39.7928276  48.5274086  44.0507164
  39.7842712  50.6314201  44.4409142  39.9715805  51.3560333  45.2333488
  40.5632477  50.8644562  43.7149734  38.4663506  50.8815346  43.6725388
  38.5149651  51.9423637  43.4268188  38.4852180  50.2009735  42.8213120
  37.2740707  50.5620155  44.4327164  37.3826523  50.2394180  45.3836327
  36.0308952  50.7079201  44.0343285  35.7477264  51.3292122  42.9013405
  34.7645073  51.5459709  42.8213158  36.4380417  51.9106789  42.4480629
  34.9703827  50.3514366  44.6742249  35.2230911  49.7256012  45.4256058
  34.0149155  50.5267944  44.3977737  39.5493698  47.3097687  46.6012764
  40.0639915  47.1941605  47.7512817  39.3177223  46.3314056  45.7868004
  38.8230591  46.6148109  44.9530792  39.8549767  44.9621048  45.9541473
  40.4375458  44.9328499  46.8749390  39.0287895  44.2518120  45.9858055
  40.8854027  44.6017380  44.8195381  40.7580452  45.1224251  43.7127609
  41.9180870  43.8453636  45.1388702  41.9935837  43.6769638  46.1318665
  43.0083885  43.4606514  44.2725029  42.7077904  43.8645058  43.3057365
  44.3148689  44.1735420  44.7746811  44.4509697  43.8233948  45.7979012
  45.6109695  43.9346619  44.0755997  45.8427544  42.8967628  43.8365479
  45.6780357  44.4523849  43.1187477  46.4614792  44.2081833  44.7000389
  44.0249481  45.7180595  44.8273544  43.6834984  46.1115685  43.8699303
  43.2615814  45.7660522  45.6039314  45.1815948  46.5892525  45.3871803
  44.8122063  47.6023026  45.5464859  45.5224724  46.1522179  46.3257446
  45.9378128  46.5439987  44.6034737  43.0942307  41.8818130  44.3754807
  42.6387291  41.2629471  45.3516693  43.6440659  41.3208084  43.2815704
  43.9800377  41.8946114  42.5213280  43.7535286  39.8687363  43.1063881
  43.5569344  39.3251343  44.0304871  42.7034760  39.4327850  42.0820389
  42.7498283  40.0679359  41.1974258  42.9511223  38.4547043  41.6695747
  41.3354874  39.2371788  42.5702896  40.9384079  40.2123947  42.8520355
  40.6729088  39.0247040  41.7312775  41.1708298  38.2935905  43.8204384
  41.4855156  38.7861252  44.7404823  40.0931625  38.2372284  43.9739265
  41.8069344  37.0321312  43.6217842  42.7187004  36.9524155  44.0489082
  41.4459381  36.0615349  42.8334656  40.2922630  36.0900192  42.3516655
  39.6915054  36.8802414  42.5380859  39.9588928  35.2645187  41.8746796
  42.2664452  35.0691414  42.5943947  42.1278419  34.4551888  41.8044853
  43.1567535  35.1121292  43.0693703  45.0527039  39.3387222  42.5432930
  45.7268066  39.9603920  41.8155708  45.4403839  38.1631737  43.0885201
  44.9207382  37.7848167  43.8675652  46.5516891  37.3794632  42.5133781
  46.6374130  37.6068840  41.4508209  47.5133209  37.7958221  42.8133965
  46.4358330  35.8431435  42.6727295  45.4676018  35.2748108  43.1970634
  47.4246750  35.1241570  42.1278954  48.1460800  35.7053871  41.7255974
  47.5099068  33.6207352  42.1873474  47.2318306  33.3100967  43.1944618
  46.5642204  33.1736298  41.0689125  45.5705757  33.5823898  41.2524490
  46.9791985  33.3826866  40.0829163  46.5083275  32.0857925  41.1089172
  48.8899994  33.0618820  41.7844849  49.7108154  33.6666489  41.1453896
  49.2093887  31.8423862  42.2313156  48.4885025  31.2675915  42.6436691
  50.4205170  31.1268501  41.8120232  50.5391045  31.3558540  40.7529678
  51.6372452  31.6509018  42.6025314  51.5935326  32.7398224  42.5814514
  51.6158943  31.2216969  44.0178146  50.5996132  31.2016239  44.4113426
  51.8438911  30.1558285  44.0110817  52.2569618  31.8219128  44.6634712
  52.8585777  31.1717892  42.0087624  53.6076241  31.6547031  42.3655891
  50.2028542  29.6316032  41.8903770  49.0519257  29.1343327  42.0476799
  51.2356110  28.8481712  41.5409584  52.1560478  29.2592182  41.4781990
  51.0991669  27.4147472  41.5912704  50.1971512  27.2362957  42.1766090
  51.0078773  26.7094917  40.1992989  51.3945923  25.6908607  40.2300072
  49.6987495  26.7278805  39.5546150  48.9075127  26.1340332  40.0122032
  49.3180389  27.6803112  39.1857796  49.8398819  26.2042999  38.6090775
  51.6816177  27.4496670  39.2438202  52.4211082  26.8603230  39.0782127
  52.2970161  26.7925434  42.3498306  53.3600693  27.3684654  42.4130211
  52.0432510  25.5693188  42.8176498  51.1133461  25.1770573  42.8564606
  53.1009827  24.6460400  43.3074951  54.0408707  25.1931953  43.2344933
  52.8589287  24.3248329  44.7779503  53.4787102  23.4413376  44.9309502
  53.2156906  25.4249382  45.7360229  52.4670410  26.2166138  45.7065239
  53.2278404  24.9058571  46.6944122  54.1942558  25.7853680  45.4188538
  51.4376678  23.9341698  45.2353287  51.0441284  23.0808182  44.6830444
  51.4765892  23.6185436  46.2779045  50.7418213  24.7728863  45.2568474
  53.1221886  23.3519306  42.3927917  52.1079979  22.9955311  41.7567978
  54.2477989  22.6290798  42.4899559  55.0082855  22.9416523  43.0765266
  54.4841614  21.2803593  41.8709259  53.7452431  21.0788898  41.0953560
  55.8905602  21.1907444  41.1724281  56.6039352  21.5544415  41.9119720
  56.0005074  20.1550999  40.8507843  55.8646851  22.2380962  40.0446510
  55.8685265  23.2126427  40.5328636  56.8375435  22.1631222  39.5588303
  54.7548904  22.1939125  38.9560661  54.3561783  23.2449322  38.4213333
  54.3403473  21.0581398  38.5383034  54.3866882  20.1655121  42.9702415
  53.9537239  19.0684986  42.6150169  54.6863861  20.4516983  44.2224998
  55.0358200  21.3776550  44.4239960  54.7562332  19.4990921  45.3494606
  54.2387505  18.5777302  45.0822487  56.2235680  19.1589813  45.7438164
  56.5584869  20.0327282  46.3028297  56.1551552  18.2383137  46.3232994
  57.1508408  18.9797897  44.5456848  56.9738159  18.1195602  43.9001083
  57.1660957  19.8866482  43.9411430  58.5891190  18.8493156  45.2831039
  58.4049263  18.2055492  46.1431885  59.2127266  18.3470535  44.5435486
  59.1436234  20.1249161  45.6859856  59.0283546  20.7878323  44.9327545
  59.9147873  20.2846432  46.7426147  60.2987442  19.3004074  47.4597359
  60.9988480  19.3817215  48.1831589  60.1171608  18.3609600  47.1363716
  60.4039726  21.3882961  47.1235504  61.1711159  21.3586273  47.7798347
  60.0023499  22.2795391  46.8696060  54.0144768  20.2232475  46.4635429
  54.3192673  21.3511753  46.8582115  52.9813805  19.5498123  46.9890289
  52.7858582  18.6746159  46.5243759  52.4151726  19.7476196  48.3723526
  52.1766548  20.8056831  48.4806137  51.1770897  18.8588104  48.6376152
  50.4690132  19.1075420  47.8471298  51.5354309  17.8310089  48.5800400
  50.6077461  19.1878567  50.0196419  50.5934067  20.4185162  50.4550476
  49.8638000  18.3332748  50.5501213  53.6148148  19.4100380  49.2679787
  53.7469482  18.3158855  49.7016754  54.3092575  20.4815903  49.7242279
  54.0988693  21.4027767  49.3675079  55.2078209  20.5158615  50.8957863
  54.6704559  19.8990498  51.6161270  56.5816307  19.8629761  50.5224190
  56.3592224  18.8897972  50.0847321  57.4475288  20.5367947  49.4148941
  57.3256912  21.6180840  49.3510780  58.4158707  20.0915203  49.6432457
  57.1736183  20.1524887  48.4323540  57.4391441  19.7392921  51.5904198
  56.9425545  19.2633247  52.2600822  55.4131546  21.9878788  51.3185616
  55.2089233  22.9030132  50.5195923  55.8905716  22.1971817  52.5377197
  56.1509476  21.3938904  53.0918274  55.9130745  23.5431957  53.0674057
  54.9851227  24.0581589  52.8187714  56.0743942  23.6766300  54.6344147
  57.1156044  23.4916897  54.8985825  56.0782585  24.7335091  54.9010429
  55.1578026  22.7253838  55.4300117  55.0097046  23.1272221  56.4323540
  54.2317543  22.7481308  54.8555412  55.7690849  21.2557678  55.6737747
  56.8388786  20.9302483  55.0989876  55.3004036  20.5216198  56.5896492
  56.9208069  24.4807911  52.3608551  56.6186676  25.6180439  52.0313721
  58.1041069  23.8857784  52.1066589  58.1848030  22.9000587  52.3114662
  59.2577095  24.5417957  51.3831863  59.6189079  25.4260159  51.9083443
  60.4039078  23.5554695  51.5675964  61.3169708  23.9529762  51.1244202
  60.5458603  23.3160419  52.6214600  60.1792450  22.2152290  50.8657265
  59.4027252  21.6282825  51.3562508  59.9016380  22.4312592  49.8340416
  61.4039307  21.3459892  50.8210068  62.4930191  21.7489052  51.4303131
  61.3708344  20.3323669  50.1173820  58.9758453  24.8711567  49.9136505
  59.8584137  25.4404449  49.2347984  57.7754707  24.5440426  49.4211502
  57.1224365  24.0808735  50.0368805  57.1426888  25.0126839  48.1534996
  57.8763885  25.5702400  47.5713310  56.7652168  23.7638359  47.3333473
  57.6005554  23.0820045  47.4927788  55.8404274  23.4253616  47.8005791
  56.5651970  24.0694599  45.8970337  55.4969864  23.9833679  45.6979942
  56.8540268  25.1014423  45.6978111  57.3755836  23.2517529  44.9242554
  56.7248840  22.7296696  43.9511719  58.5620766  23.0395622  45.1382370
  56.0131454  25.9454441  48.3302383  56.0547142  27.0530567  47.8239517
  54.9631653  25.6025848  49.0738029  54.8601036  24.6966534  49.5082779
  53.7859993  26.4957676  49.3087807  53.3652725  26.7181625  48.3281517
  52.8301506  25.7259941  50.2482834  53.4279366  25.3715229  51.0879860
  51.6936302  26.7259045  50.7640800  50.9030609  26.1574440  51.2539330
  52.1926193  27.3901138  51.4697266  51.3143158  27.3138618  49.9283028
  52.1835861  24.6539993  49.3709030  51.5184669  25.2299404  48.7274666
  52.8910713  24.1215630  48.7352295  51.4863815  23.6246490  50.3035431
  50.8963165  24.1071129  51.0827446  50.7198868  23.0326290  49.8034439
  52.1777611  22.9152908  50.7584076  54.2312012  27.8712616  49.7552490
  53.9249802  28.9336891  49.2478142  55.0793839  27.9576817  50.7477837
  55.3343925  27.0805626  51.1787529  55.4612579  29.2833214  51.3256149
  54.5696144  29.9046974  51.4090576  56.0271492  29.0744171  52.7002220
  56.9384995  28.4768600  52.6785965  56.3375702  30.0002155  53.1846123
  55.0155487  28.3296680  53.6185989  54.9401741  27.3210621  53.2122383
  55.4456291  28.2916546  55.1003914  55.6208916  29.2791367  55.5273170
  54.7831650  27.7745991  55.7945786  56.3253784  27.6570892  55.2074623
  53.5571327  28.8271179  53.4966965  53.2878609  28.5727520  52.4715652
  52.9782906  28.2069874  54.1811523  53.4695969  29.8710423  53.7977905
  56.4985085  29.9860611  50.4706116  56.5973091  31.1999683  50.5708809
  57.3649521  29.2216759  49.7921219  57.0836334  28.2520294  49.7647743
  58.3695908  29.7638130  48.9029541  58.9218903  30.5503311  49.4172058
  59.2303314  28.6189709  48.3961830  59.8917122  28.2261162  49.1684151
  58.6733665  27.7216759  48.1264496  60.1674919  29.1396561  47.2578049
  59.7194977  29.4307823  46.3077240  60.5642433  30.0813122  47.6372414
  61.4088669  28.2551270  46.9628143  62.0772743  27.7624588  47.8525848
  61.9237366  28.1230221  45.7918739  61.4567528  28.5196705  44.9889450
  62.8351593  27.7028332  45.6785126  57.7140846  30.5821285  47.7405777
  57.8934898  31.8200016  47.6638794  56.6906662  29.9961185  47.1048164
  56.5956306  28.9971352  47.2192650  55.9211502  30.5776119  45.9665031
  56.6662178  30.9963093  45.2899933  55.0855865  29.4688110  45.2920036
  54.5017242  28.9837971  46.0742874  54.3669395  30.0332718  44.6978340
  55.7876968  28.5325508  44.3512115  56.6570930  28.1479187  44.8844147
  55.1701088  27.6980152  44.0191879  56.3050423  29.2453575  43.0851860
  55.3958054  29.7341766  42.7352600  57.0406837  30.0225544  43.2922974
  56.9182434  28.2021809  42.1598625  57.5342255  28.7179947  41.4232483
  57.6146698  27.6403255  42.7822876  55.9848557  27.2645817  41.4829178
  55.9168396  27.4941139  40.5017014  56.2629356  26.2942181  41.5171738
  55.0546761  27.4887943  41.8063240  54.9727592  31.7517643  46.4895592
  54.9967232  32.8270454  45.8771782  54.3421364  31.4648628  47.6154366
  54.4775620  30.6224136  48.1558418  53.3551826  32.4121323  48.1179962
  52.5692825  32.6171913  47.3910751  52.5380249  31.6694088  49.1648254
  53.2638741  31.3370838  49.9069862  51.4171600  32.5391426  49.7597694
  50.6440544  32.8283997  49.0479164  51.1191864  32.0738907  50.6993713
  51.8164368  33.4872437  50.1200256  51.8507423  30.5376358  48.6433220
  52.5272408  29.8609219  48.5657959  53.9796982  33.6902008  48.6247177
  53.3281059  34.7180862  48.4166031  55.0826492  33.6803436  49.3435135
  55.3991432  32.7797165  49.6733627  55.8273239  34.9060135  49.6952362
  55.2509422  35.5708084  50.3386116  57.0544128  34.4926224  50.6361198
  56.7161713  33.8954430  51.4829216  57.7541504  33.8192749  50.1410751
  57.6695290  35.7896767  51.2060242  57.7438393  36.5359688  50.4150581
  56.9539871  36.2039375  51.9162979  59.0339546  35.6273422  51.8677483
  58.8655891  35.0168152  52.7548866  59.6467323  35.0859833  51.1469650
  59.6759453  36.9585190  52.2780380  59.5820961  37.5719452  51.3819351
  59.1039963  37.4749260  53.0489426  61.1044960  36.7605057  52.7458954
  61.4076157  37.7169876  52.8615074  61.3065414  36.3133240  53.6286812
  61.6900749  36.3283081  52.0456085  56.2171097  35.7518311  48.4945030
  55.9500427  36.9507523  48.4540176  56.6492805  35.0827599  47.4174309
  56.7771034  34.0823059  47.4707909  57.0218773  35.7086945  46.1242027
  57.7320900  36.4947968  46.3806076  57.8571510  34.8275261  45.2709808
  57.3547096  33.8672180  45.1549225  57.9296646  35.3556938  44.3202553
  59.1915512  34.6393661  45.9700737  59.6671944  35.6192207  45.9282799
  59.1154480  34.3166466  47.0084190  59.9748650  33.5442467  45.1857910
  60.7426186  33.8542061  44.2827454  59.8633041  32.3378601  45.6179695
  60.5468025  31.6672287  45.2967491  59.1618690  32.1842194  46.3282394
  55.7639503  36.3545532  45.4685555  55.8012390  37.5014877  44.9629250
  54.6579742  35.5890884  45.3247643  54.6968575  34.6500816  45.6947021
  53.3893661  36.1387939  44.9875641  53.4859390  36.5346947  43.9766045
  52.2546883  35.0536270  45.1104546  52.4299431  34.2010422  44.4543381
  52.3593254  34.6839714  46.1305084  50.7708015  35.4026222  45.1383095
  50.5513840  36.0303154  46.0019951  50.2668953  36.0405884  43.8714409
  49.2453041  36.4203110  43.8876419  50.8845940  36.9083176  43.6399307
  50.3204269  35.4110298  42.9832458  50.0164528  34.0769615  45.3093414
  48.9631653  34.2235527  45.0701599  50.3971024  33.3126450  44.6318283
  50.0659218  33.7197609  46.3379555  52.9481697  37.3645554  45.8144035
  52.6146164  38.3974037  45.2154503  53.0832901  37.4039192  47.1551094
  53.5251579  36.6750565  47.6969719  52.6697769  38.5842438  47.9508629
  51.6543999  38.9154205  47.7330627  52.6656075  38.0926819  49.4629898
  53.5937576  37.5639877  49.6800537  52.7145500  38.9806442  50.0932465
  51.4703140  37.1514740  49.9497795  51.2421379  36.4442558  49.1523628
  51.8252563  36.2995949  51.2487259  52.7499123  35.7362137  51.1233521
  52.0971756  37.0306931  52.0100746  51.0520592  35.6912689  51.7179871
  50.1399460  37.8634644  50.2684746  50.2880592  38.3964005  51.2076988
  49.9499512  38.4923782  49.3987198  49.4066544  37.0576401  50.3005829
  53.6882935  39.7566986  47.7080803  53.3047523  40.8769569  47.3397636
  54.9821091  39.4622307  47.7776299  55.2354507  38.5066528  47.9844818
  56.0781059  40.3991776  47.4851379  56.0517883  41.0992661  48.3201714
  57.4662094  39.6724358  47.5727768  57.5492020  39.0540657  48.4665489
  57.5443306  38.9022102  46.8054771  58.7132225  40.4908791  47.3195076
  59.4096832  39.7597504  46.9090271  58.3745041  41.1405334  46.5124664
  59.2312965  41.2328300  48.5047531  58.6269112  42.2661247  48.9443398
  60.3250275  40.9256935  49.0119362  55.8769417  41.0419731  46.1062126
  56.1600800  42.2010460  45.9524117  55.3526955  40.2893219  45.0655289
  54.9557495  39.3694687  45.1936111  55.1416931  41.0089035  43.7976151
  55.9480972  41.7220993  43.6268501  55.2414169  40.0306587  42.6401291
  56.1650887  39.4638252  42.7568665  54.4765015  39.2846680  42.8557701
  55.1113510  40.6373329  41.2071342  55.3909912  39.8252983  40.5359421
  54.0716286  40.8855095  40.9938812  56.1077766  41.8180962  40.9337311
  55.9172134  42.2208405  39.9389534  55.8420219  42.6206245  41.6217957
  57.4922485  41.3968239  41.0180817  57.8420677  41.3115883  42.0468979
  57.7037659  40.4467964  40.5273590  58.3397827  42.4421921  40.2528038
  58.1473503  43.4196167  40.4192696  59.2933159  42.3112831  40.5589752
  58.3412285  42.4310646  39.2428665  53.7406998  41.7208939  43.8083649
  53.6641273  42.7281075  43.0690460  52.7003059  41.3160133  44.5547562
  52.8887596  40.5654068  45.2037354  51.4602890  42.0785828  44.5756645
  51.0486755  42.2545738  43.5818329  50.3552742  41.4349976  45.4427490
  50.8149147  41.0779419  46.3643494  49.2283134  42.2808037  45.8808098
  48.5985107  41.7081032  46.5615845  49.5930099  43.1007347  46.4995270
  48.5054359  42.6454048  45.1510010  49.8107109  40.2334251  44.6591263
  49.0906029  40.4945602  43.8836517  50.5660210  39.6330261  44.1520500
  49.1373863  39.2204437  45.5416489  48.8983078  38.3423386  44.9417610
  49.8319588  38.9442291  46.3349800  48.2025757  39.6009216  45.9533195
  51.7176666  43.4065857  45.2411919  51.2832031  44.4433937  44.7555008
  52.5157547  43.3885460  46.3529816  53.0980110  42.5702972  46.4604263
  52.8718376  44.4895401  47.2764969  51.9503403  44.9472618  47.6362648
  53.7304611  43.9507370  48.4329681  54.5364685  43.3502884  48.0111694
  54.3669281  45.1659775  49.1854210  53.5746078  45.8948212  49.3560677
  54.7014313  44.8551140  50.1751518  55.1609459  45.5786324  48.5630417
  52.8070679  43.1622505  49.3825111  52.3488998  43.9174690  50.0211258
  52.1379356  42.5775452  48.7512589  53.4789543  42.1703758  50.2982788
  54.3207893  42.6613007  50.7865486  52.7539940  41.8023758  51.0243034
  53.9966621  41.3516502  49.7985077  53.5523529  45.6853714  46.4890823
  53.1205521  46.8033333  46.6083374  54.5900650  45.4137802  45.7087669
  54.8355904  44.4520721  45.5218582  55.2096100  46.3985977  44.8840408
  55.5115547  47.2842407  45.4431190  56.5032730  45.8307495  44.1955376
  57.3002815  45.5362053  44.8782692  56.2486992  44.9252357  43.6447754
  57.2148247  46.8232841  43.2837105  57.9873390  46.2874184  42.7321892
  56.4964638  47.2899666  42.6097183  57.9130936  48.0091400  44.0547256
  58.4279366  48.8925514  43.3459320  58.0376968  47.9434967  45.2841492
  54.2293129  46.8592377  43.7862473  53.9744682  48.0503807  43.7545471
  53.5699310  46.0007858  43.0013695  53.8206406  45.0304298  43.1264992
  52.8702240  46.3764801  41.7751045  53.5139084  46.9670029  41.1231422
  52.3750610  45.1410408  40.9728012  51.8888702  44.4159012  41.6254005
  51.6313324  45.4726524  40.2482338  53.5204010  44.4476051  40.2409325
  54.3984489  44.2001572  40.8375015  53.2226639  43.5040398  39.7836075
  53.8687592  45.3214149  39.0557175  54.7690582  46.2137070  39.1215096
  53.2341614  45.0675240  37.9867439  51.6438751  47.3727417  42.0824928
  51.2688904  48.0626602  41.1466789  51.1555939  47.3962135  43.3420525
  51.6146584  46.7103615  43.9242630  50.1168938  48.2666168  43.8440018
  49.7196388  48.8866882  43.0403862  49.0120201  47.3032494  44.2798195
  49.3620491  46.6677971  45.0933189  48.1203842  47.8021584  44.6595230
  48.5806274  46.3580017  43.1340141  47.5559196  46.5838661  42.4582558
  49.1893959  45.2177238  42.9255867  48.9180832  44.7332993  42.0818901
  50.0615997  44.9434624  43.3547096  50.5569115  49.2294273  44.9000511
  49.8119431  49.9307976  45.4725037  51.8903503  49.3471146  45.1409225
  52.5431175  48.7960205  44.6021385  52.6340981  50.1525040  46.0624580
  53.5324287  49.5427170  46.1586952  52.9052124  51.5640144  45.5735817
  51.9604263  52.0893250  45.4338341  53.5771713  52.0622597  46.2723885
  53.6403046  51.5665398  44.2467308  54.8003731  50.8427048  43.8675270
  55.3889656  50.1874161  44.3617477  54.9806175  51.0611877  42.5514488
  55.7369576  50.5081100  42.0143661  53.9643631  51.8305397  42.0406036
  53.7829514  52.1498566  41.0997391  53.0596085  52.0233765  43.0608063
  52.0893860  52.4881744  42.9658127  51.9432907  50.1854286  47.4609909
  51.8109627  51.2306442  48.1683846  51.5850449  49.0151825  47.8780022
  51.7296906  48.1638527  47.3541565  50.7666283  48.9132385  49.0875778
  50.1534004  49.8141251  49.1088448  49.8341675  47.6390839  48.9264832
  50.4184227  46.7317696  49.0798645  48.7303925  47.6682892  49.9822426
  48.3316383  48.6804161  50.0507545  47.9270897  46.9831581  49.7113190
  49.1164818  47.5021477  50.9879417  49.2563324  47.6903992  47.6409874
  48.6896896  48.4650764  47.6211815  51.5890999  48.8039360  50.3432693
  52.2447777  47.7853699  50.5358849  51.4557648  49.7992020  51.2007256
  50.9598083  50.6356239  50.9277306  51.7884026  49.7554359  52.6257744
  52.7687340  49.2825394  52.6842575  52.0526886  51.1680031  53.2650528
  52.6238480  50.9871941  54.1756516  52.6802444  51.8266678  52.6646919
  50.7793350  51.9182510  53.7722549  50.0528679  52.1076508  52.9820175
  50.2613144  51.3636665  54.5546875  50.9731483  53.3205833  54.2793312
  51.5407181  53.8768234  53.5332947  50.0832062  53.9201736  54.4706192
  51.7417145  53.2883949  55.6424522  51.0440025  52.8838043  56.3756676
  52.6266975  52.6549911  55.7033157  52.0493011  54.5435905  56.1565323
  52.1284370  54.4016876  57.1533775  52.9256439  54.9048004  55.8077469
  51.3129959  55.2014008  55.9438286  50.7613945  48.9344711  53.4639969
  49.5680847  49.1986771  53.3657188  51.2324257  48.0299034  54.3084106
  52.5842133  47.8102570  54.6830215  53.1129684  48.7383270  54.9002991
  52.9186211  47.1568260  53.8772316  52.6160622  47.0858574  56.0319557
  52.4981079  47.8434143  56.8067398  53.5228386  46.5059395  56.2038689
  51.3713722  46.2767906  56.0710602  51.0917931  46.2190170  57.1230087
  51.5101051  45.2920761  55.6247406  50.3878365  47.1064453  55.1887894
  49.9260941  46.4492683  54.4518967  49.2801476  47.7611122  56.0850334
  48.2227020  47.1442566  56.0843811  49.4449043  48.9835052  56.6916466
  50.4049950  49.2935181  56.6445808  48.3696098  49.6844826  57.4198227
  47.9968414  48.9490395  58.1327553  49.0121727  50.8560791  58.2363853
  49.9134102  50.4177971  58.6650887  49.3416367  51.7031746  57.6347351
  48.1050453  51.4219360  59.3520279  47.3168221  51.9088097  58.7777786
  47.7863121  50.5530014  59.9277534  48.7813225  52.4600983  60.2552071
  49.5284042  53.3837700  59.8313408  48.4854813  52.5033035  61.4152374
  47.1493988  50.1371727  56.4462852  46.0207253  50.3746338  56.9185982
  47.3678970  50.2709656  55.1500816  48.2595596  49.9554901  54.7958031
  46.3110313  50.6410637  54.1333237  45.6898613  51.3860931  54.6304932
  46.9883614  51.2865028  52.8997993  47.8290138  50.6824875  52.5583763
  46.2969055  51.2019539  52.0614395  47.3840675  52.7432785  53.0771027
  47.1037941  53.2520714  54.1655922  47.8395691  53.2896233  52.0701714
  45.4495049  49.4623795  53.9015274  44.3003464  49.5622025  53.4933701
  46.0010948  48.2732925  54.0469666  46.9256897  48.2861366  54.4532433
  45.2779961  46.9864998  53.8949814  44.7527390  47.0654640  52.9431572
  46.2175140  45.8027115  53.8286438  46.6238518  45.6196861  54.8233757
  45.4803696  44.5315094  53.2961006  44.8870430  44.8108139  52.4254379
  46.2646103  43.7984505  53.1071777  44.7452469  44.1662750  54.0132523
  47.3463020  46.0694847  52.8470726  46.8338509  46.4772758  51.9757538
  48.0022087  46.8603783  53.2109070  47.8866158  45.1720047  52.5459099
  44.2889214  46.7503738  55.0130043  44.5445061  46.6927223  56.2155991
  43.0289764  46.5423279  54.5932426  42.8517838  46.5691643  53.5992699
  41.9334297  46.3027573  55.5360336  41.9487076  46.8950043  56.4509697
  40.7003441  46.9102364  54.7631416  40.4826164  46.2309990  53.9389229
  39.4144096  46.8881607  55.5990562  39.2348213  45.9741173  56.1650772
  39.3513641  47.7185745  56.3022881  38.5496635  47.0422096  54.9536247
  40.7779541  48.3245621  54.1933556  41.4032936  48.9898262  54.7887306
  41.2208748  48.3496475  53.1977196  39.8111076  48.7929001  54.0090179
  41.6745987  44.8652000  56.0563889  41.4354591  44.6393890  57.2532692
  41.7370796  43.8295326  55.0928955  42.0319138  44.0728455  54.1580315
  41.8261757  42.3965416  55.3586922  42.5662689  42.1957664  56.1333199
  40.4832458  41.6929436  55.8657761  40.7101707  40.6481400  56.0778999
  40.1802673  42.1406860  56.8122673  39.3225327  41.8065987  54.8640556
  39.6224289  41.9166298  53.8219147  38.6632195  40.9395294  54.9039955
  38.4858627  42.9621582  55.2238007  37.8608818  43.0245590  56.2911301
  38.1822433  43.8500938  54.2966385  37.5072899  44.5627670  54.5346260
  38.3426285  43.6225662  53.3257561  42.2625771  41.7109680  54.0579796
  42.0460434  42.1979637  52.9463501  42.8870888  40.5141487  54.2350731
  43.0096893  40.0401764  55.1184883  43.4819679  39.7508049  53.1052780
  43.0432205  40.1116714  52.1750221  44.9855080  40.0874405  53.0480843
  45.1891365  41.1045761  52.7133141  45.4038544  40.0008583  54.0508804
  45.8756485  39.1103249  52.1952934  45.8873672  38.1297913  52.6712303
  45.4931526  38.8766556  51.2017174  47.5561790  39.5816994  52.0239601
  48.1505165  39.6403313  53.7425919  49.1845322  39.9842033  53.7683258
  47.5115623  40.3681831  54.2426643  48.2469978  38.6860695  54.2604523
  43.1409073  38.2589836  53.2752724  42.9171486  37.7467804  54.3552132
  42.9039612  37.5441971  52.1446228  43.1231880  37.9222565  51.2340698
  42.4139328  36.1282158  52.1658440  42.6551361  35.6345100  53.1072121
  40.8713646  35.9487495  52.0075417  40.6003189  36.2275238  50.9892502
  40.6419029  34.8948479  52.1648331  39.9149437  36.8437462  52.8436928
  40.3905067  36.8683815  53.8241692  39.6669960  38.2255936  52.3976097
  40.5787086  38.8212967  52.3527756  39.2796936  38.2438736  51.3789062
  38.9714661  38.8179855  52.9920921  38.5337296  36.1825905  52.9001923
  37.8832664  36.3979492  52.0524750  38.6678391  35.1133842  53.0642471
  37.8553658  36.4968872  53.6933784  43.1944923  35.3386993  51.1626816
  43.4052963  35.7825279  50.0142326  43.7044754  34.1661835  51.5843620
  43.5577202  33.9405899  52.5578461  44.3909492  33.1863480  50.7687874
  44.6429596  33.6037598  49.7939224  45.6538086  32.6355553  51.4308472
  45.4088516  32.1009712  52.3486252  46.0108833  31.9004917  50.7095413
  46.6937027  33.7062683  51.7702332  46.5320282  34.4080048  50.9519882
  46.5435905  34.3981819  53.1386337  46.5713348  33.7520409  54.0160332
  47.2446518  35.2021408  53.3628235  45.5194435  34.7606888  53.2270126
  48.1268997  33.2562675  51.6768875  48.2832565  32.8199615  50.6903305
  48.8644562  34.0487633  51.8036346  48.2516098  32.3682404  52.2965317
  43.4066505  32.0074081  50.3810196  42.4470940  31.7304726  51.0688438
  43.6925964  31.2652416  49.3445091  44.5360870  31.4700069  48.8280830
  42.8990479  30.0383949  48.8349342  42.4000893  29.6069927  49.7027092
  41.9602470  30.4061928  47.6989899  41.2941933  31.2212162  47.9821968
  42.6046410  30.6807919  46.8638496  41.2253838  29.3611374  47.1242218
  41.7232475  28.8569851  46.4764824  43.8972511  29.0363235  48.3722954
  44.9754143  29.4302940  47.8454742  43.6308479  27.7582684  48.3829575
  42.7384109  27.4576664  48.7480583  44.4891090  26.6196938  47.8501205
  45.0389633  27.0302734  47.0032501  45.4421272  26.1840401  48.9523773
  45.9974976  25.2862740  48.6809349  46.1621399  26.9960690  49.0538025
  44.9052505  26.0881748  49.8961296  43.6018639  25.4638824  47.3467293
  42.5905495  25.1372261  47.9546585  43.8394508  24.8411083  46.2415428
  44.5335312  25.2286797  45.6185341  43.1254883  23.7125893  45.6520653
  42.0722885  23.9932613  45.6422844  43.5869865  23.4967480  44.2571945
  43.2486687  22.5369148  43.8668594  43.1868210  24.6393623  43.3771210
  43.4995651  25.6075726  43.7680817  43.5756645  24.3685036  42.3955193
  42.1050491  24.7123413  43.2651253  44.9517784  23.3549938  44.1682549
  45.3547401  22.4898624  44.2720413  43.1482658  22.4696693  46.4946747
  44.0078697  22.2524319  47.3078804  42.0916481  21.6381683  46.4673119
  40.8469391  21.5974045  45.6490402  41.0351639  21.6338310  44.5760345
  40.2413673  22.4387493  45.9859734  40.1407928  20.2378750  45.9644890
  40.4934731  19.4880047  45.2563858  39.0609436  20.3857288  45.9774094
  40.6524010  19.9471703  47.3523750  40.6860504  18.8586044  47.3970299
  39.9215813  20.4019947  48.0210533  42.0216255  20.5736942  47.4644737
  42.2031593  21.0361691  48.4346619  43.1237755  19.5131531  47.3063087
  43.0827026  18.5838356  48.0751190  44.0698662  19.5503044  46.3676186
  44.1153259  20.4150314  45.8477325  45.2040367  18.6354370  46.3765717
  44.8542023  17.6670933  46.7343826  45.7945213  18.5054340  44.9248123
  46.7624893  18.0044346  44.9129677  45.1219711  17.7722130  44.4796486
  45.7552414  19.7115326  44.0477867  45.7507858  20.8344212  44.5584297
  45.5835762  19.5841522  42.8316765  46.3284760  19.1094074  47.3785057
  47.3263168  18.3641624  47.6407394  46.2703247  20.3050251  47.8921432
  45.4947739  20.8623028  47.5634193  47.2077332  20.9097538  48.9117126
  48.1583138  20.3779774  48.8703117  47.4899864  22.3780384  48.6390381
  46.6616173  23.0343628  48.9057617  48.3811646  22.6429596  49.2080040
  47.9110107  22.6010227  47.1154213  47.1179924  22.4102402  46.3923569
  48.2668076  24.1148129  46.9925766  47.3702240  24.7275066  47.0866165
  49.0641136  24.3781090  47.6876106  48.5541153  24.3194275  45.9612236
  49.1019630  21.6989079  46.7769623  49.9535980  21.8967381  47.4278717
  48.7281494  20.6753693  46.8040733  49.3100815  22.0092640  45.7530174
  46.8249130  20.6984825  50.3160095  45.6933022  21.1129513  50.6578255
  47.7050056  20.1880798  51.1581306  48.5405846  19.8198757  50.7264671
  47.4938774  19.7816238  52.5691490  46.6312714  20.3389816  52.9343414
  47.1033134  18.2642403  52.6313515  47.9836121  17.6789780  52.3655663
  46.9363213  17.9151096  53.6503372  45.9512253  17.8821793  51.7544861
  44.6639023  18.3898087  51.8147469  44.2365341  19.0809650  52.4145470
  43.8811340  17.7186146  50.9506683  42.8466721  18.0202751  50.8779449
  44.6558800  16.8495140  50.1940994  44.3263664  16.1475010  49.5470314
  45.9704895  16.9705315  50.7044678  46.7754478  16.3425541  50.3522110
  48.6127930  20.1537037  53.6017189  48.3687096  20.0950775  54.7860222
  49.8042755  20.4868984  53.1179390  49.9564095  20.3673820  52.1266403
  50.9959030  20.4421597  53.9483376  51.0977745  19.4379463  54.3597679
  52.1573410  20.7725525  52.9567337  52.2108421  19.9169140  52.2835808
  51.9533348  21.6626701  52.3616104  53.0799446  20.8298645  53.5343246
  50.9664688  21.5369167  55.0028725  51.5533447  21.3232822  56.0603752
  50.4390030  22.7319736  54.6982040  49.9478111  22.8213348  53.8202248
  50.4655228  23.9458599  55.6175652  50.3329506  23.5681458  56.6313972
  51.8611717  24.6451836  55.4048042  52.5824776  23.8308048  55.3369370
  51.9825592  25.4682274  54.1255646  51.4977684  26.4103661  54.3814125
  53.0148430  25.4744930  53.7756310  51.3618088  24.9451714  53.3981171
  52.3116608  25.4831295  56.6809196  53.3729935  25.7244339  56.7396126
  51.8094940  26.4499741  56.6471062  51.9308510  25.0662155  57.6132698
  49.2923775  24.8973255  55.2819328  48.6836967  24.8220863  54.1897774
  48.8081779  25.7151012  56.2581596  49.0446968  25.5377636  57.2239265
  48.0611420  26.9601326  56.0383682  47.2998886  26.5861073  55.3537483
  47.4741707  27.5056171  57.3191681  48.1609344  27.3795166  58.1561623
  47.3560028  28.5636234  57.0851669  46.1376228  27.0839539  57.7289696
  45.0280228  27.3695374  56.8654709  45.0699654  28.0385513  56.0186729
  43.7439842  26.8683224  57.2027016  42.9086647  27.1260414  56.5684891
  43.6011353  25.9235077  58.2711105  42.6516533  25.4750214  58.5235825
  44.7531090  25.5846920  59.0318222  44.7301331  24.9740677  59.9223328
  46.0032959  26.1406784  58.7494926  46.8652878  25.9050484  59.3559990
  48.9844551  27.9765606  55.3775558  49.9999428  28.3726177  55.8840485
  48.7976875  28.3740482  54.0485611  47.6391335  28.0231323  53.2814903
  46.7377510  28.0411720  53.8940964  47.7443123  27.0442657  52.8136635
  47.5081863  28.9061489  52.0472832  47.0121117  29.8195934  52.3753624
  47.0948868  28.4200382  51.1635513  49.0067482  29.3487358  51.8709755
  49.2082291  30.2387905  51.2748947  49.4462318  28.5655327  51.2532806
  49.6968880  29.2871456  53.2211533  50.7096710  28.9059944  53.0904083
  49.7541199  30.6625824  53.7745323  50.7641678  31.3440742  53.5414619
  48.7240105  31.0599442  54.5864410  47.9011421  30.4752941  54.6207619
  48.6776657  32.2243042  55.4202118  48.5084152  33.1204681  54.8232689
  47.3527603  32.1328278  56.2339363  47.3653641  31.1537514  56.7128525
  47.2760544  32.9346619  56.9682922  46.4210701  32.2480927  55.6800690
  49.9409256  32.3651237  56.2813454  50.3321228  33.5295372  56.4962959
  50.6278343  31.2841568  56.6521225  50.3342094  30.3182659  56.6214638
  51.9276924  31.4298344  57.2854500  51.7770615  31.9526215  58.2299652
  52.5799255  30.0566292  57.5042419  52.5819778  29.5830212  56.5225105
  53.5944862  30.1993504  57.8762589  51.9444275  29.2036514  58.5487480
  51.6754456  29.7227058  59.4687119  51.1180878  28.6454220  58.1086998
  52.8065300  28.0755730  59.0310059  53.4647369  27.6102428  58.2972946
  53.4587440  28.4939423  59.7976112  52.0205460  27.0231647  59.8615608
  51.3788872  27.5258236  60.5852394  51.2646561  26.4921780  59.2829552
  52.9548836  26.1553860  60.5021935  52.5357437  25.5344086  61.1795502
  53.5175133  25.6497116  59.8329811  53.5856018  26.7379246  61.0341187
  52.9685783  32.2599258  56.5619888  53.9229660  32.7331696  57.1642570
  52.8505630  32.4311371  55.2379074  52.0485916  31.9550228  54.8502731
  53.7728081  33.1570930  54.3274422  54.7680969  32.7897720  54.5775948
  53.4940376  32.9394455  52.8926048  54.1763458  33.5536308  52.3049545
  53.6687012  31.8971767  52.6256371  52.4488983  33.1752472  52.6921387
  53.7006798  34.6189575  54.6441879  54.6324577  35.3998566  54.4587860
  52.5911713  35.1200371  55.1618462  51.9642868  34.4068871  55.5061264
  52.3452988  36.5301361  55.4433899  52.6737289  37.1301308  54.5947189
  50.8807716  36.8454208  55.7708549  50.8008156  36.2963257  56.7090492
  50.5315704  38.3070717  56.0276947  51.1566277  38.7244225  56.8171387
  50.8161240  38.7736626  55.0846024  49.5007858  38.4254303  56.3617401
  49.9611588  36.2092400  54.6774178  50.1926880  35.1567688  54.5137215
  48.9356461  36.2934303  55.0370522  49.9594307  36.7225838  53.7158699
  53.2818146  37.0689011  56.5507927  53.7081528  38.2018929  56.4113083
  53.5095673  36.3333282  57.6349792  53.0090218  35.4575653  57.6858711
  54.4716225  36.6598740  58.7458229  54.1864510  37.6172714  59.1819000
  54.4305153  35.5915375  59.8549194  54.3259659  34.5673218  59.4969330
  55.3745613  35.6048431  60.3996201  53.3874741  35.8758926  60.9874649
  53.6741867  36.7172241  61.6183853  52.4512177  36.2118416  60.5417442
  53.1868629  34.7759705  62.0528297  54.1494026  34.7213020  62.5613899
  52.4256210  35.0580635  62.7801743  52.6833916  33.3880577  61.6465416
  53.1740227  32.5557785  61.9409828  51.6405220  33.0506592  60.9361763
  50.7843170  33.8928680  60.4828529  50.0756569  33.5025406  59.8782463
  50.7333260  34.8121109  60.8981743  51.3869324  31.8044586  60.7585487
  50.5434456  31.5428619  60.2684517  52.0215683  31.0656528  61.0259476
  55.8951759  36.7862396  58.2838669  56.6890144  37.3552094  58.9673347
  56.1939888  36.1317711  57.1775322  55.4578438  35.6433830  56.6879768
  57.5367088  36.1652679  56.5142937  58.2811089  36.0532684  57.3026047
  57.7265549  34.9600639  55.5657959  57.1306076  35.1093102  54.6654205
  58.7852058  34.9278908  55.3082657  57.2522163  33.5992851  56.0860596
  56.2506371  33.5820694  56.5157585  57.1239243  33.0245781  55.1688080
  58.1412773  32.9323883  57.1097794  58.0387878  31.7122459  57.1040344
  59.0102692  33.5297699  57.7750435  57.9481010  37.4821014  55.8563042
  59.1023521  37.6382675  55.5048637  57.1104813  38.5217705  55.9064865
  56.2618828  38.4207191  56.4447899  57.2607346  39.8720703  55.3265724
  58.2842751  40.0328674  54.9880371  56.2603073  40.0276985  54.1169319
  55.2946472  39.7987289  54.5676804  56.3849525  41.0878868  53.8965569
  56.6101837  39.2085571  52.8510170  57.0171471  38.2355537  53.1262360
  55.4017029  38.8569183  52.0561714  54.7769814  39.7304688  51.8697853
  55.6182289  38.5623741  51.0293007  54.8378792  38.0524445  52.5284233
  57.5263405  39.9497414  51.9037666  57.8142700  39.4430885  50.9826279
  57.1620827  40.9662857  51.7552605  58.4347496  40.0644760  52.4951591
  57.0004578  40.9176826  56.4178772  56.1762619  40.7985687  57.3058815
  57.8992233  41.8898659  56.4518547  58.5865784  41.8286552  55.7143669
  58.0817146  42.8380661  57.5406761  58.2718773  42.2810020  58.4580727
  59.2946434  43.7669449  57.3958740  60.1934967  43.1630516  57.2714806
  59.1588860  44.5131569  56.6130333  59.4313622  44.5315590  58.5640831
  60.3346710  44.3678513  58.8448563  56.8129425  43.6696320  57.7669754
  56.3276711  44.3073082  56.8301926  56.2392120  43.6505814  59.0198402
  56.7442093  43.1032982  59.7021599  55.0717010  44.3984222  59.4296494
  55.0917473  44.3119087  60.5160255  55.1919937  45.4497986  59.1684113
  53.6401711  43.9434547  58.9414177  52.6647034  44.2303505  59.6148376
  53.6221199  43.0696297  57.9334831  54.4826012  42.7924881  57.4830780
  52.3613434  42.4754639  57.3476295  51.7149658  43.2834663  57.0049400
  52.7170372  41.6934814  56.0655861  53.6093788  41.0697823  56.1187935
  51.8366623  41.1085091  55.7994118  53.0354500  42.6399498  54.9480324
  54.1972389  43.2709122  54.6033821  55.1504707  43.0695419  55.0694275
  53.8895798  44.1836357  53.6126328  54.5559578  44.8751717  53.2998657
  52.5775032  44.1631432  53.2406502  51.8016052  44.9362679  52.3783875
  52.1892586  45.8280869  51.9085083  50.4711304  44.5635872  52.1248894
  49.8690567  45.0280075  51.3579292  49.9905052  43.4399490  52.7619095
  48.9630585  43.1360283  52.6263275  50.6870346  42.7553215  53.7489777
  50.2609215  41.9478073  54.3258247  52.0467377  43.0910568  53.9630814
  51.5911140  41.6175117  58.3819466  50.3609810  41.3897209  58.2101173
  52.2093468  41.0897484  59.4450188  53.0993958  41.4862442  59.7109184
  51.6301804  40.1333084  60.4427147  51.2331924  39.2850227  59.8851204
  52.7310944  39.4999962  61.3459969  52.3276329  38.7375412  62.0123177
  53.4740562  38.9264145  60.7918129  53.3549118  40.5292168  62.3591194
  52.6283913  41.2592888  62.7158585  53.6968994  39.9804153  63.2365952
  54.5828247  41.3208122  61.9076576  54.8209915  41.4197159  60.7348061
  55.5081406  41.7269478  62.8254395  56.3242302  42.1091003  62.3692970
  55.4785156  41.5829964  63.8246880  50.4252396  40.7572937  61.2690201
  49.5523491  40.0581818  61.7839470  50.2504539  42.0872879  61.2829323
  50.9742661  42.6554832  60.8665771  49.0352097  42.7951508  61.7470284
  48.5726852  42.2917404  62.5960007  49.5872879  44.1465302  62.3832817
  50.2130470  44.6802826  61.6679993  48.7891350  44.8712006  62.5442352
  50.4839211  43.9723396  63.6066628  50.0212173  43.7586899  64.9356155
  48.9621964  43.6180496  65.0940094  50.8734932  43.6656914  66.0358276
  50.4360847  43.3849335  66.9825363  52.3213959  43.6943970  65.8613510
  53.2212410  43.4422073  66.8247986  54.0846443  43.2037621  66.4794388
  52.8261414  43.8706894  64.5280304  53.8792343  43.8524780  64.2891388
  51.8883934  44.0212517  63.4788284  52.2969856  44.1451721  62.4868088
  47.9308777  42.9881134  60.6594048  46.8938522  43.5419579  61.0058022
  48.0878296  42.5763588  59.3945465  48.9567909  42.1580925  59.0944481
  46.9081421  42.5111618  58.4923134  46.3081512  43.4137039  58.6086121
  47.4723663  42.4737549  57.0622253  48.0799408  41.5804329  56.9175568
  46.3348503  42.4397583  55.9768829  45.6353683  41.6151314  56.1140594
  45.8712616  43.4186325  56.0993156  46.6502151  42.3789940  54.9352646
  48.2612801  43.8054581  56.8600388  48.7628098  43.7589798  55.8933907
  47.7565880  44.7687187  56.9343185  49.0218163  43.8918419  57.6360703
  46.0347252  41.2269211  58.8070984  46.6367226  40.1484871  58.7777443
  44.7379837  41.3830605  59.1259880  43.9014626  42.5887794  59.1786003
  44.1335869  43.1938820  58.3022041  44.0263367  43.1204529  60.1219139
  42.4219742  42.1988564  59.1826324  42.1558990  42.0688171  58.1336365
  41.8422623  42.9370842  59.7367592  42.5206985  40.8433456  59.9164581
  41.6845207  40.2269821  59.5863037  42.4522438  40.9765091  60.9961243
  43.8618546  40.2475739  59.4834061  44.2363281  39.7713356  60.3895378
  43.7446289  39.3190842  58.2693825  43.5292625  39.7071571  57.1702957
  44.0076866  37.9722710  58.4317741  44.3723373  37.7767754  59.3531380
  44.0836296  36.9732780  57.3660660  43.5795670  37.2959976  56.4550934
  45.5297241  36.7066574  56.9665871  46.0781097  36.7166252  57.9085388
  45.8357925  35.4674377  56.1973419  45.6997566  34.6577835  56.9143219
  45.1082115  35.3800049  55.3904457  46.8672714  35.4928360  55.8458939
  46.1943817  37.7920074  56.1697083  45.8390541  37.8069077  55.1393585
  46.0067978  38.7504959  56.6536713  47.2664223  37.5952835  56.1581764
  43.2009926  35.6918182  57.8094597  43.2337914  35.2759247  58.9721680
  42.4755440  35.0506516  56.8590469  42.5531883  35.5381088  55.9778786
  41.8891945  33.6683578  56.9082298  42.3928528  33.0509872  57.6520615
  40.4400482  33.7999115  57.4409752  40.5853577  34.5306740  58.2365685
  39.4127808  34.2720757  56.3817139  38.5463104  34.5618057  56.9761810
  39.7489929  35.1752586  55.8724785  39.1557121  33.5876465  55.5732765
  39.8588104  32.6695633  58.0629539  40.0859489  31.8158474  57.6872139
  41.9731636  32.9379005  55.5718384  42.0786514  33.6082230  54.5284729
  41.9829559  31.6165867  55.5566101  41.7268944  31.1613598  56.4210739
  42.3852501  30.8061104  54.4107857  42.6304512  31.4178143  53.5425720
  43.7612991  30.1273537  54.7945900  44.4304619  30.8686123  55.2314644
  43.5356445  29.2986794  55.4657745  44.3462563  29.3092556  53.2442131
  43.2480621  28.7097149  52.7757912  41.3956451  29.7298565  53.9981422
  41.3244553  28.5976772  54.4392776  40.6043205  30.1420326  52.9950256
  40.5858498  31.1122246  52.7148628  39.4959755  29.3503819  52.4339180
  38.8189926  29.0303059  53.2259674  38.6825294  30.3841858  51.4810104
  37.7836800  29.8623734  51.1525612  38.4197845  31.2776699  52.0473595
  39.2764282  30.6529675  50.0984993  40.3532448  30.7433758  50.2412987
  39.2046890  29.7218571  49.5363731  38.4918976  31.9807339  49.0719604
  39.1833115  33.4076500  49.9457359  40.2588425  33.2454872  50.0166817
  38.8886337  34.3116226  49.4127235  38.9271851  33.4201317  51.0051422
  39.9101143  28.0831604  51.6586418  40.9792938  27.9773693  51.1265259
  38.9933853  27.1044445  51.7286415  38.1461525  27.2043533  52.2693062
  39.0236931  25.9161339  50.8445053  40.0708542  25.6237297  50.7667084
  38.3613472  24.6604176  51.4287262  38.8385887  24.4137669  52.3771477
  37.2993088  24.8308182  51.6051750  38.5404320  23.3721676  50.5773811
  37.9109573  22.5996456  51.0190544  38.0797653  23.4666901  49.5940437
  40.0135269  22.9166393  50.4456711  40.6198196  22.5277672  51.4649506
  40.7066116  23.2144127  49.4160843  40.3419533  23.5924797  48.5534172
  41.6769180  23.0952110  49.6698532  38.4321136  26.2878628  49.4549217
  37.2278328  26.6748524  49.2669525  39.2277374  26.0584068  48.4289627
  40.1929016  25.8450317  48.6363983  38.7867393  25.9587498  47.0239868
  38.2528152  26.8555412  46.7096748  40.0145950  25.9300976  46.1370316
  40.7343636  26.7157612  46.3667374  40.4675560  24.9647541  46.3629684
  39.6829605  26.0155926  44.6644287  40.3134499  25.3358669  44.0912323
  38.6420403  25.7180481  44.5377388  40.0256310  27.4406967  44.1737862
  39.0446472  28.1138630  44.0441818  41.2004318  27.8648148  44.0028114
  37.7952232  24.8117676  46.6889877  38.0452843  23.7058620  47.1025887
  36.7211838  25.0549278  45.9122696  36.6746483  25.9896278  45.5324402
  35.8582687  24.0704384  45.2120323  35.4885902  23.3655128  45.9566956
  34.5977745  24.8366718  44.6123581  33.8464432  24.1701202  44.1889076
  34.1711540  25.4342785  45.4179420  34.8656273  25.8364944  43.4918442
  35.4275284  26.6850414  43.8821564  35.4253769  25.4300346  42.6494789
  33.3267670  26.5853653  42.9551849  32.5877838  25.1795158  42.0097008
  32.3579330  24.3734016  42.7064476  31.7488384  25.4603024  41.3729668
  33.3548050  24.7346249  41.3757858  36.6396713  23.3638000  44.1129837
  37.4006844  23.8961849  43.3245964  36.4710312  22.0803299  44.1176453
  35.7883606  21.6602001  44.7320976  37.1684036  21.0362873  43.1555138
  38.2099037  21.2884846  42.9560776  36.9325676  19.6122856  43.7170753
  37.5914803  19.4849606  44.5759811  35.8824654  19.5159721  43.9929428
  37.3595009  18.4859810  42.6480560  36.6795158  17.4247265  42.6342278
  38.3104744  18.6624813  41.8465500  36.4330788  21.0814037  41.7903442
  35.2369118  20.9020271  41.6811409  37.1468315  21.3663845  40.7173424
  38.1449966  21.5133457  40.7638702  36.4913216  21.8136826  39.4094162
  35.4115524  21.7430840  39.5406227  36.7414322  23.3255272  39.0868378
  37.8127098  23.5243282  39.1175728  36.0846634  23.6530323  37.7745514
  36.6606407  23.2203388  36.9565468  35.0173378  23.4352570  37.8132172
  36.1579056  24.7381840  37.7025681  36.1225853  24.1208477  40.2560539
  36.9662933  24.3755493  40.8974419  35.5931282  25.0114841  39.9176140
  35.3746567  23.5673447  40.8238029  36.9493523  20.9568825  38.2165451
  38.1498108  20.7789211  37.9460144  36.0109634  20.3804665  37.5194511
  35.0475922  20.4569016  37.8130112  36.2459297  19.7979565  36.1737900
  36.9089966  18.9532070  36.3604507  34.9159927  19.2360268  35.6343765
  34.1373367  19.9982719  35.6622734  34.8085899  18.5768642  34.2942390
  35.2239151  17.5706940  34.2375145  33.7452049  18.4797783  34.0753975
  35.2622375  19.1034050  33.4545631  34.4757957  18.3533783  36.5494270
  33.5770836  18.6411228  36.7258301  36.9224548  20.6959877  35.1141891
  36.2994728  21.5675392  34.4825592  38.2719994  20.4739590  34.9366646
  38.6034393  19.6143532  35.3505745  39.1888428  21.1312599  33.9750710
  39.8218575  20.3434544  33.5667152  38.6006699  21.5763664  33.1725502
  40.0485268  22.2058277  34.6751862  40.8570480  22.8235588  33.9952202
  39.9106712  22.4069233  35.9848404  39.3836365  21.7487659  36.5408630
  40.5076485  23.5571041  36.7950172  40.3163567  24.4170074  36.1530838
  40.0425072  23.6834049  37.7726631  41.9758568  23.4295921  37.0807152
  42.4868660  22.3190174  36.8368378  42.6960640  24.5068855  37.3412361
  42.2983742  25.4336586  37.2861214  44.1568718  24.3428154  37.4988213
  44.5935097  23.7095642  36.7265244  44.8388138  25.6724567  37.4742775
  44.6233902  26.0564442  36.4771576  44.2818604  26.3453369  38.1263008
  46.3763695  25.5464306  37.6428490  46.5612526  25.1205673  38.6290321
  47.1060143  24.6902046  36.6107750  48.1717529  24.7078800  36.8387871
  46.8088913  23.6604595  36.8093834  46.9269066  24.8690968  35.5505753
  46.9591141  26.9885120  37.7587318  46.5712509  27.6303730  36.9677353
  46.6086044  27.5114250  38.6485672  48.0372887  26.9581890  37.6015053
  44.5250549  23.6638699  38.8290710  44.3723679  24.2577972  39.9227791
  44.9746552  22.3825188  38.7424316  45.1042557  22.0510025  37.7972336
  45.4687653  21.7341633  39.9200935  44.6328735  21.5840721  40.6033630
  46.0644684  20.3091450  39.5987167  46.7739983  20.4355755  38.7809830
  46.6602440  19.8953362  40.4122963  45.1061478  19.3076649  38.9566689
  44.7941284  19.7112961  37.9934311  45.6701012  18.4391575  38.6164322
  43.9181976  18.9773865  39.7496529  44.1305771  18.4656658  40.6883430
  43.4362221  19.8743496  40.1385841  43.0490952  18.0136986  38.8484344
  42.6843300  18.5715542  37.9859695  43.6895714  17.2236309  38.4564133
  41.9481888  17.4303513  39.6431084  41.2511559  18.1475983  39.7838554
  41.4106750  16.6871243  39.2202682  42.2623634  17.1866570  40.5715523
  46.6672935  22.5220566  40.6607246  47.3635445  23.3617897  40.0231018
  46.7918167  22.2545509  41.9639702  46.1212921  21.6093998  42.3567467
  47.8717613  22.7075787  42.8010330  47.7599373  22.4141178  43.8448143
  49.1369133  22.0185337  42.3063202  49.2443085  22.2907143  41.2563286
  49.9011955  22.4959621  42.9195404  49.1282349  20.4979782  42.5104599
  48.6258774  20.2913570  43.4554710  48.7217026  20.1979713  41.5446320
  50.5213966  19.7872391  42.4885826  51.1415634  20.3624439  41.8010979
  50.9666939  19.7724457  43.4833641  50.4421730  18.3044167  41.9666176
  49.9213257  17.6742535  42.6875305  49.8142586  18.2909584  41.0757523
  51.7272682  17.7294941  41.5585365  52.3600502  18.0780220  42.2643814
  51.8240280  16.7265015  41.6273918  52.0349426  18.1385956  40.6878624
  47.9279823  24.2328320  42.7958603  49.0731850  24.7012558  42.9531517
  46.8562775  24.9867039  42.5614052  45.9756546  24.4926186  42.5834236
  46.7776947  26.4212246  42.5696259  47.6971436  26.8209953  42.1419601
  45.6657028  26.8109398  41.5904274  45.9001312  26.3050404  40.6538315
  44.6854973  26.4286232  41.8752708  45.5042496  28.6508713  41.3022232
  46.8007507  28.8845959  41.0800514  46.5719070  27.0216312  43.9453583
  45.7028122  26.5305729  44.6685600  47.2628784  28.0891342  44.2009163
  47.8387604  28.4377899  43.4479904  47.0002861  29.1393967  45.2223625
  46.0876274  28.7744446  45.6934967  48.2301979  29.3223991  46.1662483
  49.1075172  29.5342178  45.5550613  48.2246399  30.4991379  47.0995674
  47.9761696  31.4171810  46.5670700  47.3707657  30.4396381  47.7744446
  49.1754341  30.5283051  47.6317635  48.5011940  28.0191345  46.9777679
  47.7529106  27.8454628  47.7510796  48.4575615  27.1292191  46.3498764
  49.8401718  27.8522491  47.7341805  49.9856720  28.6717319  48.4380150
  49.6886902  26.9801426  48.3702507  50.7204552  27.8973637  47.0929565
  46.4997101  30.4698486  44.6307182  46.9464073  30.8239574  43.5396309
  45.6343651  31.1339798  45.3435478  45.4440994  30.6521988  46.2106056
  44.9727440  32.3835144  44.9310074  45.5493813  32.8198700  44.1154137
  43.5350685  32.2776833  44.4008026  42.8622971  31.9301243  45.1848183
  43.2757034  33.2989502  44.1218033  43.4189682  31.3652401  43.1617928
  43.9971085  31.8994560  42.4078255  43.8748665  30.3767242  43.2174377
  41.9643021  31.2116566  42.7314339  41.6677437  32.2140961  42.4227753
  42.0000916  30.5740814  41.8480759  41.0450516  30.6029625  43.6611366
  41.2489357  29.6559486  43.9469566  40.0563660  31.2759190  44.2502747
  39.6069412  32.4156380  43.8386917  38.9914474  32.8128014  44.5340538
  40.0006676  32.8632507  43.0233841  39.5323257  30.8756924  45.3585243
  38.7724152  31.3674164  45.8066826  39.9013252  30.0801792  45.8596268
  44.9963875  33.2946091  46.1544418  45.0456200  32.7083969  47.2500229
  45.0252075  34.6451378  45.9290466  45.1289635  35.0179253  44.9961128
  45.1159782  35.6987534  46.9867744  44.7378082  35.2501373  47.9053764
  46.5296326  36.2491417  47.1847153  46.8226814  36.3783760  46.1428299
  46.7029381  37.4832497  48.0393066  46.4496002  37.2684708  49.0774689
  47.7012558  37.9177094  47.9873047  46.1510391  38.3521996  47.6809311
  47.4347038  35.1146088  47.6651802  47.0167618  34.7066345  48.5854950
  47.5139694  34.3465538  46.8958206  48.4138870  35.5669518  47.8222847
  44.1414452  36.7836838  46.5874596  44.1340294  37.2829056  45.4641190
  43.3756981  37.2414970  47.5955353  43.6048088  36.8075523  48.4783173
  42.4110031  38.3340416  47.5123520  42.5931702  38.8879852  46.5914497
  40.9607201  37.8066139  47.5878029  40.7482033  37.3755379  46.6094818
  40.9409332  37.0535049  48.3755493  39.8757820  38.7811737  47.9298897
  38.9814072  38.1630669  48.0082130  40.1004944  39.1106262  48.9443207
  39.5553551  40.1819038  46.8786354  38.1952400  39.3893852  45.9442673
  38.0009651  39.8455162  44.9735451  38.4266472  38.3298264  45.8352470
  37.3854980  39.4085541  46.6736870  42.7687378  39.3884888  48.6218529
  43.0401382  39.0485191  49.7503967  42.8332787  40.7045441  48.3070641
  42.7378883  40.8736649  47.3159027  43.2090454  41.8061829  49.3198586
  43.1266861  41.3961639  50.3264351  44.6298370  42.1780510  49.0825310
  45.1649132  41.2367363  49.2079201  44.6881218  42.4876938  48.0390625
  45.2943878  43.1761818  50.0202179  44.7605667  44.1206055  49.9144478
  45.0438194  42.8317986  51.0235710  47.1432228  43.2612953  49.8076515
  47.2769432  44.2922859  48.3403778  46.7109413  45.2168617  48.4539909
  48.2688789  44.6456795  48.0588112  46.8385429  43.7135887  47.5273514
  42.2540359  43.0886917  49.1209297  42.0438156  43.5164490  47.9995918
  41.7573051  43.6132851  50.2577782  41.9059792  43.1422272  51.1387444
  41.1574593  44.9607010  50.3815231  40.7060890  45.2997284  49.4490929
  39.9955902  44.8134537  51.4042435  40.3683586  44.7288628  52.4250259
  39.0235176  45.9435387  51.2497444  39.4297791  46.9103699  51.5468826
  38.6608467  46.0556755  50.2279816  38.1479836  45.7529144  51.8703880
  39.3011703  43.6333351  51.0980568  39.3455505  43.3457336  50.1832237
  42.0279961  46.1216125  50.9060287  42.7065773  45.8403244  51.8876572
  42.0048256  47.3037033  50.2385139  41.5045242  47.3382530  49.3618126
  42.9924927  48.4200058  50.4745178  43.3204002  48.4277000  51.5139961
  44.2526131  48.1235847  49.7313652  44.5552444  47.1046638  49.9728432
  44.0616875  48.1089897  48.2007141  43.3073463  47.3718491  47.9256096
  43.8427467  49.0974350  47.7968063  45.0021820  47.8926582  47.6939850
  45.3363686  49.0036774  50.1782379  45.6183281  48.7757645  51.2061729
  46.2329636  48.6490250  49.6698608  45.0891457  50.0565453  50.0424042
  42.3882599  49.7428856  50.0920143  41.6171684  49.8863144  49.1572495
  42.6774063  50.7600555  50.8515434  43.3770828  50.6542358  51.5722046
  42.3334846  52.1910973  50.4478149  41.3007774  52.1638374  50.1001472
  42.2962837  53.1496315  51.6440964  42.1864166  54.1284866  51.1773224
  41.3562355  52.8392868  52.1002769  43.4980011  53.0178947  52.5584145
  43.6310539  52.0446548  53.0308609  44.4324341  53.1339989  52.0093689
  43.4656105  54.0533714  53.6424637  42.3975258  54.6314087  53.9254951
  44.5178185  54.2967758  54.3645706  44.4006844  54.8991470  55.1667709
  45.2919807  53.6486702  54.3917313  43.2326813  52.5344810  49.2566528
  44.4392853  52.6381760  49.4282494  42.6600647  52.8623352  48.0954208
  41.6536064  52.8376541  48.0146294  43.4650993  53.2644844  46.8803329
  44.3030167  53.7484360  47.3821144  44.0503082  52.0464325  46.1786156
  44.8859940  51.6479607  46.7539024  43.0182838  50.8833923  45.7884903
  43.6139565  50.1172447  45.2922249  42.4472466  50.5508232  46.6553307
  42.2695808  51.2219315  45.0722961  44.6121483  52.3889732  44.9590607
  45.2123871  53.1137962  45.1486473  42.6673737  54.1263390  45.9225578
  41.6180763  53.6690331  45.4579163  43.1431389  55.2821693  45.5086327
  44.0099983  55.6120644  45.9084129  42.6346817  56.1783371  44.5297432
  41.5493584  56.0774612  44.5310211  43.1156349  57.6519585  44.7549553
  42.5958519  58.2262115  43.9880371  42.7071724  57.9716034  45.7136459
  44.6618004  57.9268379  44.7769737  45.0365028  59.0961151  44.7737885
  45.4424477  57.0404549  45.0554581  43.0102119  55.8278885  43.0690346
  42.6145287  56.5201721  42.1460419  43.7991524  54.7363739  42.8434906
  44.0569496  54.1279716  43.6073532  44.0594673  54.1771927  41.4943428
  44.4861794  54.9684753  40.8779869  45.2233582  53.1415138  41.5463181
  44.9075203  52.3741188  42.2530327  45.4794006  52.2764473  40.2959213
  44.5940590  51.7287445  39.9729919  45.9015121  52.8642159  39.4807816
  46.1691666  51.4448738  40.4402008  46.6896095  53.6187706  41.9787788
  46.9149933  54.4207420  41.2758331  46.7987747  54.1267662  42.9369659
  47.4143295  52.8075981  41.9088745  42.7336540  53.6167297  40.8721161
  42.1053619  52.7194901  41.4729881  42.3413925  54.0395279  39.6976166
  42.8908005  55.1528244  38.9224625  43.9491959  55.0286140  38.6934090
  42.7923470  56.1543083  39.3413162  42.0775490  55.2430038  37.6262627
  42.5473099  54.7405128  36.7807274  41.7688828  56.2318306  37.2870789
  40.8223343  54.4472466  37.9047623  40.6430473  53.7552414  37.0819130
  39.9245338  55.0534096  38.0256729  41.0403824  53.6308784  39.1522751
  40.2613106  53.9459610  39.8464546  40.8659592  52.0881577  38.8816910
  41.7851143  51.3916283  38.5201302  39.5822067  51.6657639  38.9374199
  38.9508209  52.3036995  39.4005508  39.2118454  50.2638283  38.9474525
  39.6560707  49.9330902  39.8862724  37.6827087  50.1732063  38.9974403
  37.3456764  50.8161011  39.8105812  37.3359528  50.4723473  38.0083122
  36.9899979  48.8162117  39.2190170  37.5822296  48.0652313  38.6961479
  37.0186043  48.5592766  40.2779160  35.6744499  48.6660194  38.6622658
  35.3148041  49.0571098  37.5587006  34.7571869  48.0967140  39.4384613
  34.8766632  47.5731468  40.2938614  33.8430214  48.0515709  39.0114212
  39.8178406  49.3221779  37.8211441  40.0270805  48.1499557  38.0270424
  40.0155754  49.8991928  36.6229477  39.7274246  50.8619423  36.5220222
  40.5413361  49.2048187  35.4408379  40.1245995  48.2031136  35.3358459
  40.0948410  49.7612572  34.0768127  40.4223900  49.1148529  33.2625809
  39.0092621  49.7351151  33.9822807  40.5072441  51.1784172  33.8448181
  40.9207458  51.5644455  32.7303276  40.1680183  52.0228958  34.7321472
  42.1112442  49.2541122  35.4074440  42.6816826  48.4832497  34.6585693
  42.8080788  50.0412636  36.2971840  42.2301521  50.6476746  36.8614273
  44.2183609  50.2998047  36.2668953  44.6881180  49.7387047  35.4590607
  44.5757332  51.7665024  36.1547318  44.2868462  52.3524818  37.0272446
  45.6586571  51.8102226  36.0386810  43.8024559  52.4897308  34.9905396
  42.7323303  52.3006516  35.0753098  43.9585533  53.5249290  35.2940216
  44.3269653  52.3644218  33.5888138  45.4186783  51.8684387  33.2941856
  43.4982834  52.9179268  32.6281662  42.5511703  52.9675140  32.9754715
  43.7769165  52.6637115  31.6912365  44.9565163  49.5762520  37.4713287
  46.0774803  49.8236160  37.7948990  44.2064667  48.7781067  38.1748238
  43.2413673  48.7085304  37.8852654  44.7569008  47.9866066  39.2977219
  45.3209114  48.5634003  40.0307312  43.6149712  47.2742386  40.1367302
  42.9852409  46.7507668  39.4173431  44.1291199  46.1497536  41.0784912
  43.2611885  45.7411652  41.5960312  44.6223907  45.3434906  40.5356026
  44.8406944  46.5511742  41.8000336  42.7441330  48.2026253  40.9197769
  42.0940247  48.8057785  40.2860031  42.0371590  47.6197357  41.5101433
  43.4295502  49.0904655  41.9987450  43.9167175  49.9194679  41.4853973
  42.7662086  49.6026077  42.6957283  44.2372169  48.6253014  42.5639038
  45.6776962  46.9484596  38.6791458  45.4103088  46.4046440  37.5978699
  46.8505249  46.5751228  39.3026314  46.9597778  46.7518082  40.2910347
  47.7369804  45.5042267  38.7525139  47.6838684  45.2991295  37.6833000
  49.1861572  46.0555878  38.9878464  49.2852859  46.6075096  39.9225426
  49.9006157  45.2326965  39.0102196  49.5636024  47.1363792  38.0065308
  49.5663986  46.5843201  37.0666771  48.7652740  47.8782997  37.9885750
  50.9140663  47.6864967  38.2792053  50.9736061  48.4905167  39.0127602
  51.5817108  46.8843307  38.5936584  51.4608154  48.3701706  37.1287689
  51.2766190  49.3608665  37.0602989  52.0433807  47.8951035  36.0587692
  52.2315102  46.6355820  35.9029198  52.7939453  46.3597298  35.1106644
  52.2141075  46.0010757  36.6885414  52.5001450  48.5956917  35.0972061
  52.2602348  49.5695381  34.9781799  52.7757988  48.0705414  34.2796898
  47.5085106  44.1788750  39.4936943  48.0855446  43.7697830  40.4409599
  46.6314545  43.3655663  38.9468307  46.0510521  43.7780457  38.2305222
  46.2181244  42.0480499  39.3485222  46.0223503  41.9687576  40.4178619
  44.8694878  41.5896072  38.7551537  44.8203468  41.4217834  37.6792717
  44.6049843  40.6514511  39.2430077  43.7306519  42.6059875  39.1281776
  43.0934830  42.7431488  40.3787575  42.1820717  43.7501831  40.2369423
  41.3839035  44.0346069  40.9065933  42.1652412  44.1391029  38.9448128
  41.4944191  44.7486572  38.4992332  43.1612587  43.4560852  38.2613029
  43.4536743  43.6047363  37.2323265  47.4109116  41.0791664  39.0332336
  47.5962181  40.8785362  37.8865814  48.2363968  40.5838814  39.9490395
  48.1748047  41.0244637  40.8557892  49.4357109  39.8036308  39.7297287
  49.8561287  40.0095673  38.7453804  50.5181618  40.0605125  40.8090744
  50.1382713  39.9365005  41.8231735  51.7600670  39.2635460  40.8322411
  52.4177017  39.3965034  39.9732094  52.2797279  39.5734634  41.7388840
  51.6002579  38.1861725  40.8750877  51.0675240  41.5004272  40.6364670
  50.2971611  42.1991882  40.3103065  51.5431175  41.7875175  41.5742798
  51.8265724  41.5090790  39.8542480  49.1670761  38.2491722  39.8267441
  48.9529114  37.7086411  40.9491386  49.1293068  37.5057983  38.7592850
  49.3877029  37.9915848  37.9123230  49.0345039  36.0485039  38.6666832
  48.8494415  35.6771851  39.6746407  47.9384193  35.5217323  37.7619553
  48.1073723  35.9153862  36.7596626  48.0886078  34.4570427  37.5831184
  46.4977722  35.6876831  38.1486740  45.5726242  34.6003151  38.0548096
  45.9163437  33.6704674  37.6262741  44.2618599  34.5806770  38.6596565
  43.6435280  33.6953773  38.6772041  43.8323250  35.7890854  39.2455826
  42.5656967  35.8056526  39.6834221  42.1951332  34.9200630  39.6870842
  44.6901817  36.8822746  39.3573151  44.3167877  37.7681236  39.8495102
  46.0149651  36.8554001  38.8273125  46.6723557  37.7003098  38.9700203
  50.4271011  35.5212212  38.1756210  50.9471779  36.1345444  37.2116432
  50.9993134  34.4294281  38.6994934  50.6330452  34.0152359  39.5447083
  52.3452911  33.9215393  38.3924446  52.6833839  34.5226097  37.5483437
  53.2343979  34.2455025  39.6450233  52.7968369  33.6974869  40.4794807
  54.2214127  33.8014107  39.5158310  53.4943962  35.7374496  39.9119720
  52.5130806  36.2100754  39.9538307  53.9718590  35.8161278  41.3474159
  53.1763191  35.6052208  42.0620766  54.7780838  35.0898209  41.4502754
  54.3132477  36.8308182  41.5522423  54.4812164  36.3035583  38.9707603
  53.9240570  36.4363823  38.0433846  54.7734604  37.3000107  39.3020859
  55.3872185  35.7079659  38.8587723  52.3287163  32.4275742  38.0195389
  51.3010788  31.7362137  38.0163612  53.5211639  31.9368401  37.6083336
  54.3643913  32.4864960  37.6916580  53.8384285  30.5615044  37.1765785
  54.8565598  30.5517216  36.7874527  53.8489609  29.7359943  38.4967690
  52.8825989  29.9183388  38.9668770  53.9206314  28.6965027  38.1767387
  54.9412384  30.0575542  39.4690666  54.9785423  31.1390038  39.6001129
  54.8207741  29.5412712  40.4214516  56.1968956  29.5605202  38.9022751
  56.8975792  30.3464146  38.2029076  56.4633369  28.3437176  39.0974770
  52.8399582  30.0936947  36.1260033  52.6488838  30.7959709  35.1440353
  52.2503548  28.8984585  36.3467140  52.5184860  28.2770863  37.0964508
  51.1802063  28.3740025  35.5328293  51.5063553  28.6168461  34.5215149
  51.0186577  26.8591442  35.7897072  50.8925781  26.5877666  36.8378296
  50.1164169  26.4847088  35.3061180  52.2534676  26.1440659  35.2504997
  52.2251282  26.1497803  34.1608810  53.1910744  26.6122189  35.5502090
  52.2761536  24.7467442  35.7555084  52.3334808  24.7890968  36.8431740
  51.4071541  24.2371960  35.3392067  53.5321846  24.0779514  35.2065697
  53.4676437  23.9278107  34.1288910  54.4249496  24.6991997  35.2781181
  53.6745262  22.6637173  35.6445694  53.8817558  22.4800510  36.6158714
  52.8131332  22.1657066  35.4710999  54.5120316  22.2686081  35.2413712
  49.7862587  29.0655804  35.7136803  48.9285545  29.0064011  34.8107796
  49.5451202  29.7511787  36.8185768  50.2666893  29.9361992  37.5006332
  48.2828255  30.4550457  36.9040718  47.3986320  29.8981190  36.5940170
  47.9819069  30.7932587  38.4073639  48.6534157  31.5865498  38.7358017
  46.9248428  31.0401478  38.5061417  48.0272560  29.8217888  38.8995934
  48.1634254  31.7163830  36.0647583  47.0049477  32.1737099  35.9844170
  49.2348366  32.1199379  35.3951111  50.1713524  31.8020859  35.6000633
  49.1278191  33.2382355  34.4709358  48.9893723  34.1874275  34.9886017
  50.4163475  33.4630051  33.7672157  50.8161125  32.4798317  33.5188942
  50.3524933  34.2746925  32.4472351  49.9147224  35.2547226  32.6369553
  51.3299980  34.5086708  32.0255318  49.7411766  33.7602654  31.7057819
  51.4863777  34.0867157  34.6847038  51.6531143  33.5080872  35.5932655
  52.4055214  34.1666794  34.1042976  51.1838150  35.1050491  34.9287529
  48.0645599  33.1063118  33.4771690  47.4018631  34.1381454  33.1705894
  47.7310410  31.8254147  33.1095848  48.3465118  31.0457115  33.2922249
  46.5587959  31.5000095  32.3069878  46.6447983  31.9857044  31.3349781
  46.4680176  30.0069637  32.1322823  46.3066444  29.5342674  33.1011086
  45.3481827  29.4919147  31.2824287  45.3890190  29.9484673  30.2934914
  45.3744698  28.4406052  30.9957943  44.4264221  29.7383347  31.8094330
  47.7616348  29.5402908  31.4532852  48.6415672  29.8785820  32.0004387
  47.7826042  28.4528866  31.5254765  47.8184891  29.9704437  30.4533710
  45.2442017  32.0063171  32.8960266  44.2908897  32.3499413  32.1605034
  45.0554848  31.8832436  34.1756935  45.8187256  31.6246643  34.7845459
  43.7082787  32.1015549  34.7957344  42.9156914  31.6252193  34.2186661
  43.8153915  31.4637890  36.2197151  44.3771439  32.0939484  36.9092293
  42.7973213  31.4997234  36.6074486  44.1487732  29.9457436  36.4312973
  45.2252617  29.7930908  36.3540535  43.6925087  29.6152611  37.9113770
  42.6245117  29.4503498  38.0538216  44.0625038  28.6149712  38.1363754
  44.1353760  30.3169060  38.6182442  43.2838707  29.1483841  35.4159546
  42.2252769  29.3965473  35.4928055  43.6308365  29.4712086  34.4343758
  43.5570221  28.1174011  35.6408195  43.3249474  33.6395531  34.8993835
  42.3861237  34.0830383  35.6102867  44.1411362  34.4799919  34.3284454
  45.0199432  34.1614380  33.9459305  44.0447121  35.9616890  34.4491386
  44.2308350  36.2031479  35.4956360  45.2432785  36.6542892  33.7621117
  45.2234383  37.7262344  33.9586792  46.1021042  36.2032127  34.2591553
  45.2909393  36.5257607  32.2072182  44.9473267  35.5552826  31.8491611
  44.4517365  37.1222458  31.8493767  46.5988998  37.1066322  31.6686096
  46.6867180  38.1917877  31.7217121  47.3805695  36.7454834  32.3369370
  46.8091850  36.7436256  30.2221966  46.5889931  37.4326668  29.5173283
  47.2631226  35.6330376  29.6715660  47.5992699  34.5696068  30.3612213
  47.8430634  34.7677536  31.3211212  47.9185104  33.7414017  29.8792915
  47.3971672  35.5541306  28.4077740  47.1858902  36.3964615  27.8920746
  47.8000031  34.7524147  27.9440117  42.7005157  36.4880066  33.9488564
  42.2164268  35.9616928  32.8974037  42.2013245  37.6145554  34.4444504
  42.7903099  38.2566185  35.5558891  43.7030487  38.7667427  35.2480278
  43.0080566  37.5352707  36.3435097  41.8604126  39.3889160  35.9857788
  42.4193039  40.2352676  36.3850594  41.1966171  38.9886436  36.7521133
  41.1575623  39.6953583  34.7195816  41.8899040  40.2727356  34.1553040
  40.2427521  40.2755890  34.8402596  40.9409332  38.3662682  34.0262756
  40.1338997  37.9915237  34.6558495  40.7010117  38.5463905  32.5649452
  39.5528107  38.7464714  32.2611465  41.7139626  38.5174713  31.7095909
  42.6528854  38.3897552  32.0591774  41.5009956  38.6341515  30.2912235
  42.4799080  38.9758339  29.9549484  40.9730568  37.2918167  29.7542419
  41.4395714  36.3861961  30.1419487  39.9250374  37.2862053  30.0537853
  40.9942932  37.2304955  28.2263813  40.6765213  36.1407700  27.7499866
  41.2561417  38.1919250  27.4559288  40.6781464  39.8607025  29.8194542
  39.5779266  39.8169212  29.2956638  41.2633629  41.0139389  30.1718311
  42.1431427  40.9789085  30.6666622  40.6402397  42.3451576  29.9632320
  39.6098404  42.0479584  30.1583004  41.0701141  43.3857155  30.9993496
  42.0903816  43.6353722  30.7081165  40.5046616  44.3131638  30.9087639
  41.1073303  42.9161758  32.4911461  41.8632507  42.1397858  32.6090622
  41.5113564  43.9405289  33.4598465  42.4989166  44.2793274  33.1467514
  40.8583984  44.8126450  33.4938545  41.5867958  43.5436134  34.4722061
  39.7564774  42.4170761  32.9112434  38.9988480  43.1999855  32.8773232
  39.6537399  42.1528816  33.9637375  39.3622437  41.6298332  32.2686501
  40.4687653  42.8302917  28.4712887  41.4794998  42.7730370  27.6601048
  39.3124542  43.3626518  28.0970154  38.6566811  43.5403328  28.8443394
  39.1380463  43.9290962  26.7281513  40.0591049  44.3250351  26.3003693
  38.5728226  42.8562889  25.7440872  39.4084396  42.2547569  25.3863144
  38.0028191  42.0891609  26.2682152  37.9672966  43.5234718  24.6575832
  37.2714119  42.9755898  24.2872181  38.1653404  45.0483627  26.8797245
  37.1472282  44.9570503  27.6753025  38.2393761  45.9816742  25.9411430
  38.9771042  45.9294586  25.2532978  37.2963753  47.1298027  25.8893032
  37.1102409  47.5113907  26.8932152  37.8711319  48.3712959  25.0993366
  37.9007111  48.0513916  24.0577583  37.1374435  49.1605186  25.2634487
  39.2411232  48.8460541  25.6325340  39.9077263  47.9875259  25.5508404
  39.7950363  49.9608994  24.6815777  39.1030922  50.7994576  24.6032143
  40.0320816  49.4612885  23.7422695  40.7959366  50.3105354  24.9346733
  39.3216705  49.4082298  27.1022053  40.3611374  49.6927147  27.2655163
  38.7907448  50.3590126  27.0549850  38.8748932  48.7016983  27.8017044
  35.9407921  46.7425270  25.2404613  34.9512100  47.3917503  25.4874554
  35.8724785  45.7112579  24.3800220  36.7074242  45.1459312  24.3219700
  34.5942230  45.1578407  23.7654800  34.1044655  45.9604454  23.2140598
  34.8964081  43.9506187  22.9425182  34.0117226  43.3739853  22.6724682
  35.4653320  44.3114471  21.6051445  35.7243805  43.4109459  21.0482960
  34.7864761  44.9508820  21.0408936  36.3760376  44.8832626  21.7833214
  35.6723518  43.0018234  23.6256008  35.6518822  42.2155151  23.0752373
  33.6601486  44.6631470  24.8402176  32.4731636  44.4874878  24.5465298
  34.1026421  44.4823875  26.1169338  35.0571632  44.8009911  26.2034569
  33.3707047  43.9741554  27.2824039  32.4678459  43.4082832  27.0527592
  34.2896233  43.0233688  28.0631714  35.0456200  43.6278496  28.5643387
  33.7179184  42.5269241  28.8472614  35.0679855  42.0499878  27.2359638
  34.4133835  41.5313225  26.5355492  35.8563385  42.5743713  26.6959457
  35.7838898  41.0919266  28.1596737  36.6432915  41.6854401  28.4715672
  35.1001701  40.7348862  28.9298344  36.1547966  39.9996605  27.2055569
  35.3880119  39.2305374  27.2982712  36.3688927  40.3966446  26.2132549
  37.4334145  39.3729210  27.6532497  37.5001907  38.4076843  27.3634911
  38.2557640  39.9496880  27.5474663  37.4315758  39.2980042  28.6604652
  32.8443375  45.0012054  28.2202396  31.9700165  44.7711601  29.0603428
  33.1848602  46.2494621  27.9649849  33.8015366  46.3956528  27.1785736
  32.5105667  47.4668655  28.5573368  32.1860504  47.3266945  29.5884266
  33.5878983  48.5166740  28.5316200  33.8648033  48.6026573  27.4808903
  33.2533989  49.5073624  28.8394299  34.8813133  48.3567276  29.2152710
  35.0659904  47.5540962  30.1023197  35.8882484  49.0804749  28.8278980
  35.6236267  49.8779640  28.2674599  36.7182961  48.9559669  29.3896980
  31.1738510  47.8161545  27.8092499  30.1366997  48.0963554  28.3983078
  31.1791801  47.5587730  26.5141201  32.1254158  47.4875793  26.1681671
  30.0925083  47.9097557  25.5838985  29.5739574  48.7745819  25.9977722
  30.7438927  48.2425919  24.2382698  30.0149536  48.0222740  23.4583931
  31.3570919  49.7103310  24.0204258  31.6199837  49.8363266  22.9701328
  30.5943985  50.4443207  24.2805347  32.2656708  49.7925911  24.6169376
  31.7661076  47.3839302  23.8831501  31.5898762  46.4404068  23.8656578
  29.0348473  46.7807655  25.4581299  29.4494572  45.6085281  25.4282246
  27.7264729  47.1334724  25.3436337  27.4386978  48.0994453  25.4083061
  26.7216473  46.0377846  25.2593555  26.9196072  45.2767296  26.0141468
  25.1948166  46.5895576  25.3984776  24.9878750  47.1193504  24.4686432
  24.4075069  45.8415108  25.4916058  24.9997158  47.5902100  26.5839176
  25.6330643  48.4738159  26.5051174  23.9541950  47.8699684  26.7132206
  25.2807560  46.9247665  27.8545723  25.4861908  47.5673027  28.9438972
  25.3215675  45.6551514  27.8818588  26.7832718  45.2868576  23.9005833
  27.6216297  45.5717621  22.9894829  25.9578800  44.2163506  23.8070526
  25.3332748  44.1241608  24.5953922  25.8943424  43.1779861  22.7855854
  26.8686352  42.9387360  22.3594265  25.3481426  41.9264641  23.4942970
  24.2832890  42.1081085  23.6398811  25.4538460  41.1693916  22.7172718
  26.0109596  41.3932304  24.7538624  26.2651806  42.2754784  25.3413258
  25.0428257  40.4850349  25.5598431  24.7274647  39.7266998  24.8432083
  25.5569458  39.9259720  26.3416538  24.1721745  41.0049591  25.9595318
  27.3066006  40.7027283  24.4471684  27.8385849  40.5954094  25.3924561
  27.2040577  39.6631851  24.1358261  27.8448925  41.3042870  23.7147274
  24.9412689  43.6555481  21.7357426  24.9552975  43.1982956  20.6189861
  23.9890480  44.4147682  22.0609093  34.3796310  57.3922310  59.4986076
  33.9849777  58.1562996  60.0282745  34.7948532  57.8945656  58.7270203
  33.6149864  56.8166199  59.1759644  35.3876534  56.6700897  60.2148247
  36.2152634  57.3543739  60.4016762  34.8002968  56.3339539  61.6246872
  34.9384918  57.2411804  62.2128563  33.7447548  56.0694656  61.5615730
  35.4010277  55.0077095  62.3497200  35.0368919  54.1918907  61.7252579
  36.4842682  55.1224670  62.3887100  34.8352699  54.9233322  64.0629272
  33.0166054  54.7252579  63.9978065  32.5477104  55.7092438  63.9953690
  32.6238861  54.1265221  63.1759834  32.7171822  54.2406464  64.9271088
  35.8072166  55.4829788  59.3838196  35.0719185  54.8380623  58.6055946
  37.0466919  55.0058250  59.4941368  37.6421700  55.5935402  60.0599060
  37.7045784  53.8738785  58.8671684  37.5979767  53.9832497  57.7879219
  39.2455635  53.7791748  59.1802330  39.7073441  54.7342720  58.9299431
  39.5327988  53.7072639  60.2292442  39.9908600  52.6312294  58.5257950
  40.9891167  52.6970177  58.9585304  39.5388947  51.6569061  58.7116013
  40.0296059  52.8148766  56.6832199  40.9772339  51.4078484  56.2430077
  40.4838982  50.5030441  56.5980453  41.0127716  51.4530525  55.1545219
  41.9096718  51.4190063  56.8073959  36.9304924  52.5624847  59.1220055
  36.2782860  52.4868965  60.1781921  37.0725250  51.6085281  58.2040749
  37.4176331  51.8968506  57.2997131  36.7667427  50.1703377  58.4236183
  36.1982422  50.1463318  59.3533134  35.7986107  49.7760124  57.3026009
  35.5837212  48.7532043  57.6121140  34.4727478  50.5915375  57.4215355
  33.9930458  50.2594414  58.3422432  34.6745644  51.6479454  57.5986481
  33.7232819  50.4040070  56.6526184  36.4724960  49.7969551  55.8565674
  36.4032860  50.8282814  55.5106277  37.5436974  49.6091957  55.9298401
  35.8251114  48.8884506  54.8449135  35.8955421  47.8640594  55.2106514
  34.7952309  49.2070541  54.6838455  36.3752670  48.9730644  53.9077530
  37.9748955  49.3179588  58.7120781  39.0497246  49.4724159  58.1058846
  37.8449745  48.4033661  59.6425552  37.0069313  48.3026962  60.1972160
  38.9056358  47.3971481  60.0147057  39.6557159  47.4008369  59.2238426
  39.6435013  47.6789970  61.3611412  38.9490128  47.7663383  62.1966972
  40.2533112  46.8437653  61.7055588  40.6077461  48.9301720  61.3881760
  40.2242279  49.8398323  60.9260788  40.8966370  49.1605911  62.4136276
  41.8153648  48.6955185  60.4439392  42.2302017  47.8016968  60.9098778
  41.4640694  48.5130272  59.4283638  42.6513405  49.8591309  60.2514267
  42.3657761  50.6919975  60.7462921  43.5773773  50.0204582  59.2852058
  43.9079704  49.0012932  58.5773582  43.4800224  48.0876007  58.6234894
  44.5592003  49.1581001  57.8214417  44.2686386  51.0854149  59.1648254
  45.0714188  51.0727997  58.5520592  44.0514870  51.9115257  59.7037964
  38.3165932  45.9981308  59.9517136  37.1529350  45.8031845  60.2094116
  39.0990486  44.9670486  59.5721931  40.0531998  45.0372620  59.2485123
  38.6576691  43.5773201  59.7565422  37.6171265  43.3751602  59.5025711
  39.2942581  43.0283089  59.0626755  39.0877419  42.9999352  61.0622520
  40.1382446  43.4033241  61.4540749  38.3600464  42.1149025  61.6947517
  37.4649124  41.8770943  61.2919083  38.7259216  41.4678459  62.9366531
  39.7200432  41.8052673  63.2298584  37.6682739  41.7438622  64.0108795
  36.7013245  41.3019981  63.7703209  38.1115074  41.1050835  65.3634262
  39.1537895  41.3667068  65.5459366  37.4884529  41.5394058  66.1452560
  37.9119263  40.0339508  65.3942413  37.4612122  43.2566261  64.2691116
  38.1372452  43.7683144  64.9541397  37.6580620  43.8253937  63.3603477
  36.0628052  43.6941261  64.7263565  36.2360497  44.7096977  65.0823212
  35.4893379  43.5877075  63.8055344  35.6565208  43.0576096  65.5124054
  38.8876991  39.9681816  62.8208733  38.1766624  39.3986740  61.9510765
  39.8469658  39.3414421  63.4984093  40.5076828  39.8565712  64.0624924
  40.0584564  37.9135590  63.4331284  39.3566513  37.4693031  62.7272873
  41.4371796  37.5587807  62.7430954  42.1672707  38.3565216  62.8797836
  41.8922882  36.6646118  63.1690559  41.5433311  37.3369904  61.2343025
  41.4267769  38.2768059  60.6946144  42.4669838  36.7996101  61.0193710
  40.3685722  36.4046059  60.6415977  39.5051079  37.0374413  60.4365425
  40.5926018  36.0606232  59.6318512  40.1712952  35.1874924  61.5333481
  39.2183380  34.9286613  61.7454300  41.0733528  34.1657410  61.6586304
  42.2115822  34.2009773  61.1593971  42.7953720  33.4675293  61.5353508
  42.5368309  34.9172630  60.5259552  40.7874527  33.0796127  62.3705826
  41.5079384  32.3736343  62.4215584  39.9813652  32.9638748  62.9680176
  39.7680435  37.1860886  64.7584991  39.7502556  37.7937889  65.8030624
  39.5316048  35.8995590  64.6074371  39.4101677  35.4704132  63.7012444
  39.3813629  35.1145782  65.8158875  40.4014969  35.0195045  66.1878891
  38.8076553  35.5708466  66.6225967  38.9916458  33.6477165  65.5602722
  38.7493439  33.3123970  64.3720474  38.7913246  32.8218307  66.6081314
  38.9703751  33.1298027  67.5532227  38.5955582  31.3598461  66.4518127
  37.7518578  31.2264080  65.7747116  39.8851318  30.8427048  65.8984833
  39.7794838  29.7702179  65.7350464  40.1498108  31.2840691  64.9376297
  40.7038116  30.9959145  66.6016159  38.3440971  30.6894207  67.8266296
  38.7629852  31.3473892  68.8171387  37.7477531  29.5290012  67.8299484
  37.4614944  29.1913872  66.9221115  37.4925766  28.6523628  68.9650192
  38.3479424  28.7215424  69.6370773  36.2976913  29.2232018  69.7121429
  36.4281616  30.2912827  69.8861618  34.9460793  29.1392326  68.9579239
  35.1740303  29.3891678  67.9217377  34.4301300  28.1836128  69.0511246
  34.1402054  29.7548389  69.3575439  36.1150665  28.4478016  70.8652039
  35.6742668  28.9746170  71.5358505  37.2922058  27.2367420  68.3716278
  37.3881493  27.1042976  67.1662216  37.0887032  26.2032051  69.2427521
  37.0703049  26.4604454  70.2192764  37.0962601  24.7737751  69.0093536
  36.8181229  24.4836597  67.9961472  38.4755096  24.1675224  69.2817230
  38.3056870  23.0921097  69.3341599  39.5781517  24.4349880  68.2520218
  39.5271835  25.4831886  67.9574432  40.5348015  24.0805855  68.6358566
  39.2649765  23.8964062  67.3576202  38.9423599  24.5250645  70.5809021
  38.4973145  23.9363422  71.1948624  36.1125565  24.0318756  69.8725052
  35.7249184  24.4903698  70.9638519  35.5992279  22.9646416  69.3074341
  35.8547516  22.7540474  68.3532562  34.6974678  22.0726528  70.1151199
  34.6456871  22.4860477  71.1223602  33.2987137  21.9906216  69.5248642
  32.7538376  21.2158394  70.0642471  32.5498581  23.3065681  69.7633057
  31.5171413  23.2745190  69.4160843  32.5365601  23.3964901  70.8495102
  33.2251167  24.0858154  69.4098969  33.3691750  21.5746841  68.0486069
  33.6805496  22.4135685  67.4261703  33.9968300  20.7039776  67.8588181
  32.3383331  21.3496151  67.7750854  35.4025764  20.6993065  70.2924118
  36.2853088  20.3206978  69.5612564  34.8441811  19.9586945  71.2517090
  34.2236443  20.4520302  71.8775330  35.2332077  18.5897751  71.4891281
  36.2241707  18.5021877  71.0436783  35.3802109  18.3748512  73.0019379
  34.3800049  18.3171825  73.4313126  35.9072571  17.4300404  73.1348038
  36.1301003  19.4636497  73.7629089  35.8656158  20.4690361  73.4352722
  35.8623466  19.3036499  74.8073273  37.6265717  19.3011684  73.5720291
  38.3535919  20.3016529  73.3618622  38.2352180  18.2317410  73.7633514
  34.3739471  17.4860191  70.8381119  34.7630539  16.3242874  70.8039856
  33.2261314  17.8682022  70.2576675  32.9433784  18.8372116  70.2918854
  32.3267975  16.9777718  69.5376129  32.9446526  16.3062439  68.9414520
  31.5373535  16.0702248  70.4640198  30.8520107  15.4542894  69.8817520
  32.1728859  15.4046764  71.0481796  30.7305737  16.9715958  71.5434875
  31.4931507  17.3508720  72.2237320  30.2347736  17.8187981  71.0696411
  29.6670074  16.2066422  72.3957672  28.8910770  15.8902016  71.6987076
  30.1324234  15.4505768  73.0281067  29.1440563  17.1866856  73.4269333
  29.8080826  17.8620167  73.7777863  28.0710087  17.1008720  74.1685257
  27.2348576  16.1616974  74.0512924  27.2260876  15.7025547  73.1517334
  26.4286060  16.2635307  74.6510391  27.8802319  17.9526863  75.1206207
  28.5573635  18.6873665  75.2683945  27.0786533  17.8179283  75.7201309
  31.4235153  17.7622032  68.6141281  31.1427860  18.9462395  68.7994461
  31.0757885  17.1790333  67.5033875  31.1682606  16.1813240  67.3763885
  30.3522625  17.8179150  66.3700943  30.7367744  18.8289204  66.2354889
  30.6318474  17.0740318  65.0143433  31.7117329  17.1632557  64.8960876
  30.3956261  16.0116940  64.9532013  30.0514469  17.7579575  63.7892723
  29.9108829  18.9872246  63.7108650  29.9220753  17.0757866  62.7787628
  28.7706070  17.8815918  66.6496201  28.0992222  17.0214767  66.1136017
  28.2373352  18.8187752  67.4319229  28.9119797  19.4440384  67.8490601
  26.8467236  18.9009800  67.8570251  26.1963177  18.5335732  67.0632477
  26.6374130  17.8762684  68.9509125  26.8437862  16.8402271  68.6823349
  27.4448853  18.3003998  70.1673584  27.0444279  19.2180214  70.5982895
  27.4218197  17.4563503  70.8566666  28.4436378  18.6528053  69.9096756
  25.2901154  17.9114189  69.3205948  24.7597885  17.5376720  68.6130219
  26.4679508  20.2963676  68.2641525  27.3295422  21.1702137  68.5229340
  25.1405811  20.5987015  68.1897888  24.5734024  19.9003639  67.7307281
  24.5727940  21.9313393  68.4760056  24.8930511  22.6071053  67.6829834
  23.0131645  21.8510017  68.3768005  22.6744080  20.9933453  68.9579773
  22.5131664  22.7283230  68.7871780  22.5073681  21.6886845  66.9121323
  22.4873562  22.6479721  66.3949585  23.1838799  21.0101395  66.3925095
  21.1033020  20.9940548  66.9076004  21.0830193  19.8181992  67.3445435
  20.0821991  21.6100082  66.4749222  25.0532551  22.3781738  69.8482742
  25.4663029  23.5011158  70.0261230  24.8645000  21.5484390  70.8879623
  24.3224716  20.7007141  70.8003845  25.1297436  21.9483356  72.2904663
  24.4899406  22.8145256  72.4591904  24.6127834  20.8875561  73.2722397
  24.7068825  21.3652077  74.2474823  23.5412540  20.8164024  73.0855179
  25.3740025  19.6065617  73.1769562  25.1474743  19.2333107  72.1782227
  26.4362774  19.8347683  73.2641144  24.9168205  18.6223984  74.2079239
  24.5801620  17.4533119  74.0166092  24.7609024  19.0669632  75.4075394
  26.5549431  22.4107361  72.6246490  26.8806229  22.8610020  73.7326660
  27.4069862  22.3340092  71.5906754  27.0283279  21.9419327  70.7403870
  28.8079567  22.7990608  71.6130676  29.1635265  23.3154774  72.5046921
  29.8637276  21.6832504  71.5207520  29.7992115  21.2692451  70.5145035
  30.8309708  22.1789017  71.6036377  29.7638493  20.3979836  72.3671951
  28.8433285  19.9216785  72.0297394  30.6086464  19.7625599  72.1013870
  29.8305874  20.6710949  73.9447174  29.8047638  19.7041283  74.6965256
  30.2167301  21.8228302  74.3477325  29.0530014  23.9286308  70.5392914
  29.5998306  24.9398327  70.9349289  28.7111855  23.7177792  69.2683334
  28.3361950  22.8197384  68.9981308  29.1905994  24.5623569  68.1528091
  30.2796841  24.5244122  68.1763763  28.8405590  23.8865261  66.7590485
  27.7742786  23.6626377  66.7909698  29.1301136  24.9061356  65.6004105
  28.8375282  24.3950195  64.6832123  28.3570328  25.6717968  65.6653671
  30.1479130  25.2870197  65.5160904  29.7054005  22.6334934  66.6584549
  30.6841545  22.8509045  66.2308197  30.0391235  22.2014275  67.6018753
  29.0783825  21.5877705  65.7853088  28.9006386  21.9200764  64.7625351
  29.8114376  20.7819176  65.8217926  28.0740967  21.2662258  66.0612259
  28.5915661  25.9719505  68.2583847  29.2935734  27.0005169  68.2127228
  27.3069420  26.0866871  68.6028061  26.8239288  25.2464218  68.8869781
  26.5966206  27.3165264  68.7389145  26.8218193  27.8971176  67.8443222
  25.1199760  27.0682068  68.8300247  24.9102745  26.3616276  69.6330566
  24.5356350  27.9501438  69.0923767  24.3638477  26.4114971  67.6831589
  24.9632721  25.5380878  67.4263611  22.9332428  25.9653721  68.1031647
  22.5305748  25.4587021  67.2260971  23.0573521  25.1707401  68.8388672
  22.4523315  26.8685360  68.4788208  24.3255215  27.3388653  66.4201126
  23.5839233  26.9871807  65.7028580  24.1991119  28.3679447  66.7564392
  25.3121834  27.4151936  65.9631958  27.0514812  28.0581036  70.0163574
  27.2854538  29.2924194  69.9671326  27.1362991  27.3850040  71.1801529
  26.9591599  26.3942966  71.0951691  27.5190029  27.9936199  72.4821091
  26.8463383  28.8507805  72.5120621  27.1601276  27.1725807  73.7082443
  26.1209698  26.8627186  73.5976257  27.7883396  26.2870369  73.8044891
  27.2013683  28.0045738  75.0161819  27.1141815  27.3628502  75.8929291
  28.1953831  28.4420834  74.9233398  26.1112347  29.0565205  75.0944290
  25.0745106  29.0219498  74.4738388  26.2295017  29.8735352  76.1226730
  26.9600830  29.7085133  76.8002548  25.5880737  30.6349373  76.2927780
  28.9530602  28.4911823  72.5726929  29.2301750  29.5975838  73.1374817
  29.9009514  27.7211475  71.9626846  29.6867981  26.8218784  71.5558014
  31.3050690  28.1576176  71.7614670  31.5503559  28.4888153  72.7705460
  32.2624054  27.0523148  71.3110809  31.9429245  26.3642578  70.5283890
  33.1516609  27.4961681  70.8635178  32.8674240  26.3653660  72.5568695
  33.7586975  25.9096260  72.1255569  33.1997871  27.0759926  73.3136063
  31.9122925  25.3595715  73.2016296  31.1598225  25.9006424  73.7753372
  31.5980701  24.6343193  72.4510498  32.6793098  24.6181240  74.3109436
  33.4160614  23.9357700  73.8870316  33.2315750  25.2802830  74.9777603
  31.8562603  23.7611637  75.1816635  32.4557915  23.1850357  75.7550201
  31.2363243  24.2820473  75.7853699  31.3772182  23.1419735  74.5435257
  31.3509026  29.3900547  70.7389832  32.0432587  30.3740959  70.9680405
  30.6374950  29.3078213  69.5891953  30.4680138  28.3657398  69.2669220
  30.4068718  30.5125866  68.6497421  31.4563236  30.7107010  68.4317932
  29.6072845  30.2165070  67.3456726  28.5669804  29.9794922  67.5685806
  29.5331688  31.5029449  66.3511047  28.8743057  31.3458481  65.4971085
  29.3209324  32.4034805  66.9273834  30.5068779  31.7128162  65.9084473
  30.0699081  29.0742683  66.6287613  29.8653164  28.2890434  67.1417542
  29.8215199  31.7137642  69.3384781  30.3411179  32.8239441  69.2199631
  28.8232937  31.5575180  70.1876984  28.4178963  30.6333027  70.2274780
  28.1682014  32.6105766  70.9921570  27.6773357  33.3225060  70.3285980
  27.0357513  31.9211559  71.8293533  26.4492912  31.2166271  71.2396011
  27.4853535  31.3734169  72.6575699  26.0095234  32.9087486  72.3953552
  26.4754829  33.6016273  73.0960007  25.7389660  33.5405121  71.5493240
  24.8194180  32.2039680  73.0859985  24.2172146  31.6363010  72.3766251
  25.1521664  31.6212006  73.9449310  23.7596874  33.1822891  73.6142654
  24.2754650  33.9405708  74.2034073  23.2924366  33.7251472  72.7926331
  22.7506924  32.6006546  74.5091629  23.1599598  32.0533371  75.2528305
  22.2869320  33.3216705  75.0431671  22.0978298  32.0218544  74.0003738
  29.1275120  33.3323479  71.8651123  29.3735790  34.5350914  71.6622925
  29.8195629  32.6146507  72.7798462  29.6091232  31.6275711  72.8184052
  30.7764683  33.2090492  73.6880569  30.3192539  33.8845673  74.4110565
  31.3440361  32.1105957  74.5038605  30.5587997  31.7060127  75.1424713
  31.5758610  31.2890587  73.8260422  32.4780273  32.5750923  75.4200974
  33.0090637  33.4172287  74.9763489  32.0690956  32.8933449  76.3790512
  33.5290413  31.5172253  75.6468048  33.5262985  30.4538403  75.0009384
  34.4859886  31.6511631  76.5427475  35.2524834  30.9952717  76.4938660
  34.5638275  32.4295883  77.1815720  31.8486881  33.9985695  72.8557129
  32.2621918  35.0808563  73.2918320  32.4589539  33.5569458  71.7553329
  32.2031746  32.6073189  71.5253677  33.5144310  34.2524681  70.9329681
  34.3207855  34.5924721  71.5828171  33.9789047  33.2363052  69.8861771
  34.3016739  32.3177910  70.3763351  33.0914764  32.9744072  69.3099976
  35.0000114  33.8493042  68.9683609  34.6351891  34.7532425  68.4806137
  36.2947464  34.1831398  69.7226562  36.1082268  34.7780533  70.6167450
  36.8506432  33.3116188  70.0683899  36.8412209  34.6965866  68.9315491
  35.4196281  32.9053078  67.8278885  36.1577873  33.4232483  67.2155457
  35.8424492  31.9704018  68.1956787  34.5759125  32.7356300  67.1589737
  32.9589081  35.5749588  70.3435822  33.7005730  36.5675926  70.4052505
  31.7163334  35.5874023  69.8489761  31.2236595  34.7082329  69.9155884
  31.1640129  36.7949905  69.2369614  31.8916092  37.2401619  68.5583344
  29.8760853  36.4250412  68.5132141  29.1698914  35.9897385  69.2202530
  29.4143124  37.3664665  68.2155838  29.9262257  35.5886650  67.1932144
  30.4157848  34.6169662  67.2582703  28.5568790  35.1128387  66.7426987
  28.7405834  34.3495865  65.9865265  28.0719070  34.5964737  67.5711136
  27.9489269  35.9090118  66.3130417  30.5379353  36.2451782  65.9753342
  30.7874851  35.5470428  65.1763153  29.7563591  36.9398308  65.6676102
  31.4459496  36.6987457  66.3726959  31.0311852  37.8242073  70.3914642
  31.3411598  38.9818726  70.1894150  30.5274658  37.4228287  71.5579910
  30.2460155  36.4646797  71.7091064  30.3030109  38.3437996  72.7044907
  29.7189445  39.2253151  72.4400864  29.5082150  37.8008728  73.8408203
  30.0702953  36.9692039  74.2656708  29.6092911  38.6227798  74.5495911
  28.0474930  37.5768929  73.5727158  27.4904118  38.4718132  73.2954407
  28.0449047  36.8913307  72.7253113  27.3580685  36.9484367  74.7765961
  26.2563114  36.3491058  74.6532135  27.9013062  37.0807800  75.8475952
  31.6748104  38.8824654  73.2129974  31.7418404  40.0049438  73.6269150
  32.7497177  38.0946770  73.2231750  32.6306458  37.2028008  72.7643890
  34.1513023  38.5126076  73.6265182  34.0577583  39.0869827  74.5481644
  35.1652031  37.3636131  74.0405426  34.7126732  36.6857224  74.7642746
  35.2101212  36.7374268  73.1494904  36.5913811  37.7392845  74.4934387
  37.1512146  36.8114395  74.6108704  36.9725456  38.3816948  73.6996384
  36.6715279  38.5529366  75.8310547  36.2855225  39.5451927  75.5975418
  36.1309128  38.0023766  76.6009445  38.1170998  38.5121384  76.4253006
  38.3794250  37.5556068  76.8773346  38.7090111  38.7926865  75.5540771
  38.3156586  39.5898514  77.4733429  39.3054047  39.7876396  77.5105057
  37.9728127  40.4971886  77.1917343  37.9840965  39.4023590  78.4087601
  34.6874771  39.4645653  72.5858383  35.2825356  40.4401169  72.9289322
  34.3913574  39.2672043  71.2884369  33.8362923  38.4549522  71.0598526
  34.8246880  40.0869789  70.1931458  35.8726273  40.3096352  70.3940125
  34.7153740  39.4488640  68.8894806  33.7281799  38.9952660  68.9777832
  34.8582764  40.3540840  67.6211777  34.0998993  41.1351395  67.6751785
  35.8260803  40.8528404  67.5692291  34.5715294  39.8464813  66.7001953
  35.7388496  38.2914314  68.7098694  36.7446594  38.6725502  68.5332565
  35.8569641  37.6656303  69.5944748  35.3345642  37.4062538  67.5024414
  34.2750664  37.1624031  67.5805969  35.4497643  37.8816376  66.5283585
  35.8346596  36.4395943  67.4425735  34.0619354  41.4104881  70.2989426
  34.7119789  42.4276619  70.3270721  32.7478409  41.3751297  70.6609268
  32.3196945  40.4620209  70.7158813  31.9892273  42.5865631  70.8389664
  32.1532593  43.2176361  69.9654999  30.4731140  42.1906776  70.9081497
  30.3277988  41.3108406  71.5349426  29.6135254  43.3248367  71.4904022
  29.8314323  43.5604897  72.5320740  29.8487873  44.2529831  70.9695358
  28.5547810  43.1301155  71.3193893  29.9190598  41.7524605  69.5779266
  29.5099640  42.6009483  69.0294724  30.6853828  41.2053795  69.0287857
  28.6968994  40.8144608  69.7481155  27.9010181  41.1961212  70.3876495
  28.3274860  40.4262733  68.7989273  28.9813919  39.8773270  70.2265930
  32.4573669  43.3825226  72.0983582  32.6151543  44.5598030  72.0025711
  32.8195076  42.7343369  73.1697769  32.5431900  41.7643204  73.2228622
  33.3485222  43.3347702  74.3989639  32.6669693  44.0987053  74.7731094
  33.2249832  42.2090263  75.4388428  32.2081871  41.8830223  75.6578064
  33.8311882  41.3878479  75.0563583  33.7883949  42.4794846  76.8604507
  33.6813583  41.5750656  77.4593353  34.8522415  42.7165604  76.8493652
  33.1318245  43.6671638  77.6393661  31.9406319  44.0398407  77.3654251
  33.6905441  44.1476860  78.6250153  34.7899628  43.9107590  74.2586441
  35.1234970  44.8316956  74.9490433  35.6632843  43.3257751  73.4112854
  35.3763733  42.5489273  72.8331070  37.1223335  43.6284447  73.3141479
  37.5306969  43.9914207  74.2573242  37.9579811  42.4780617  72.8784790
  37.4401360  41.9577560  72.0727463  38.8712120  42.9717522  72.5462494
  38.5139122  41.5040131  73.9124985  37.7435379  40.8040161  74.2359543
  39.3293533  40.8981743  73.5173874  38.9418068  42.1742325  75.2605209
  38.2220879  42.0636749  76.2916565  40.0725060  42.7261887  75.3561325
  37.1224899  44.8461838  72.3684311  37.8406563  45.8003006  72.4940338
  36.4349976  44.6960487  71.2250824  35.8751602  43.8700104  71.0690613
  36.4573631  45.7503052  70.1640167  37.4247932  46.2524796  70.1654129
  36.3491859  44.9216194  68.8351974  35.5331230  44.2115173  68.9689865
  36.2339821  45.5992889  67.9892731  37.6123314  44.0161400  68.5029602
  38.6702995  44.5477409  68.2993546  37.5789108  42.7612000  68.7263031
  38.4263840  42.2320900  68.5782318  36.7835922  42.3718224  69.2120514
  35.3606300  46.7961311  70.1807175  35.2503128  47.6815147  69.3136826
  34.5650406  46.7600060  71.2552414  34.8767052  46.0484276  71.9007034
  33.4695244  47.6886787  71.5961227  32.8696594  47.2093811  72.3697739
  34.0212479  48.9108963  72.2906570  34.8197021  49.4344406  71.7648544
  33.2631645  49.6674423  72.4932632  34.5095367  48.5033112  73.6443710
  33.7934074  48.1994781  74.7616577  32.7862053  48.1645622  74.8282013
  34.6165314  47.5384331  75.6316910  34.1973495  47.0010757  76.4695053
  35.8802834  47.6415710  75.1477127  36.7384758  47.3992996  75.6219635
  35.8493576  48.1697311  73.9177322  36.6635666  48.4194717  73.2535858
  32.5769806  47.9208717  70.3506851  32.2530403  49.0772209  70.0535278
  31.9780045  46.9321518  69.7894897  32.1216469  46.0396233  70.2398911
  31.1465130  46.8519745  68.5240021  31.4951611  47.6712570  67.8952560
  31.3277397  45.4922333  67.8253098  30.8781967  44.6749840  68.3893356
  30.7532425  45.4082451  66.4268188  29.6686668  45.3336601  66.5057678
  31.1219807  46.2143326  65.7925110  31.0096016  44.5041885  65.8744965
  32.6925583  45.1021652  67.8513718  33.1507759  45.7121582  67.2686615
  29.6735439  47.0015488  68.9332581  29.2202950  46.2945900  69.8890762
  28.8803253  47.4682426  67.9358673  29.3028641  47.8292313  67.0925140
  27.4476528  47.3274994  67.8478699  27.0654449  46.6112709  68.5752106
  26.9022141  48.7376671  68.1734238  25.8134861  48.7179031  68.2222366
  27.2926464  49.0395470  69.1452942  27.2529335  49.8897743  67.1242065
  28.3250275  50.0850143  67.0998459  26.9768219  49.6405487  66.0996323
  26.7292156  51.2466698  67.5806732  25.6851463  51.3242188  67.2773438
  26.7773533  51.2670097  68.6694183  27.5393314  52.4108734  67.0244751
  27.2543297  53.3029251  67.5822525  28.5513954  52.3043404  67.4149551
  27.4304447  52.5741234  65.5977783  26.4980087  52.5561676  65.2100449
  27.6788635  53.5154114  65.3287582  28.0397396  51.8879013  65.1759262
  27.0031643  46.8517647  66.3981400  27.7367229  47.0298424  65.3979187
  25.8126793  46.2968178  66.2852859  24.7898197  46.2413826  67.3447723
  24.7922421  47.2886047  67.6471329  24.9192390  45.5269966  68.1577911
  23.4484310  45.9169846  66.7658081  22.9246120  46.8563538  66.5888672
  22.8821716  45.2155457  67.3785324  23.8879967  45.3746109  65.3871384
  23.2620792  45.9223633  64.6826630  23.7545509  44.3078270  65.2074966
  25.3214989  45.6418610  65.0407333  25.8523159  44.7199326  64.8032761
  25.3932438  46.5782242  63.7689171  25.7398262  46.1115990  62.6990356
  25.0727062  47.8789062  63.9260712  24.6822224  48.1241951  64.8246536
  25.0825939  48.7958412  62.8048668  24.5561237  48.3378525  61.9675064
  24.3453293  50.0341034  63.2002640  23.4386406  49.7511826  63.7350273
  25.0121613  50.5775871  63.8696480  23.8159046  50.8948288  62.0627174
  24.6338387  51.4294662  61.5797577  23.2654228  50.2860985  61.3454208
  22.7446575  51.8580475  62.5044937  22.0986996  51.7896805  63.5876236
  22.6740494  52.8525467  61.7696304  26.4657917  49.1502800  62.3099213
  26.6123466  49.6131859  61.1486435  27.5427036  48.9100952  63.1217995
  27.2907276  48.3067245  63.8915710  28.9432793  48.9550171  62.6786003
  28.9909267  49.9034653  62.1435509  29.9989948  48.8798370  63.8410034
  29.9123211  47.9175072  64.3454971  30.9635277  49.0002594  63.3477783
  29.9842148  49.9143600  64.9743195  29.4064560  50.9936562  64.6830673
  30.5017509  49.6881218  66.0740967  29.4161282  47.8492393  61.6766586
  30.4734421  48.0377388  61.0344963  28.6816292  46.7122917  61.6158333
  27.8263187  46.5694923  62.1336670  29.1737061  45.4876976  61.0099258
  30.2577953  45.5990295  61.0312996  28.6376400  44.2267990  61.7241173
  27.5602283  44.1304474  61.5899506  29.3343887  43.0396652  61.0516777
  29.0617142  42.9176331  60.0034103  30.4023418  43.2356949  61.1473045
  29.0584812  42.0701141  61.4663582  28.8185234  44.1323967  63.2499771
  29.8700848  44.2864571  63.4920197  28.1733971  44.7770691  63.8468895
  28.6250515  43.0965347  63.5286598  28.9263172  45.5307236  59.4622917
  27.8355751  45.2458839  59.0008621  30.0019302  45.7515259  58.7055550
  30.9130936  45.7438965  59.1412392  29.9695377  45.7166557  57.2418098
  29.2041454  46.4066544  56.8866005  31.3219948  46.1741524  56.6910095
  32.1165924  45.5737267  57.1339569  31.4137440  46.1285744  55.1434708
  32.3425560  46.6073227  54.8332977  31.4747543  45.1380463  54.6926575
  30.5952892  46.6709633  54.6701393  31.5948029  47.6230087  57.1540527
  30.6665649  48.1814880  57.2748184  31.9980927  47.4788589  58.1563873
  32.2533302  48.2185555  56.5217819  29.5905781  44.3804359  56.6744804
  28.6956234  44.2616119  55.8276787  30.2549057  43.2748032  57.2068748
  30.9820194  43.4937782  57.8727989  30.0994644  41.8303261  56.8669281
  29.0697861  41.6008873  56.5926743  30.8277149  41.3851662  55.5760651
  30.7492065  40.2988968  55.5318413  30.2737656  41.7760429  54.7225685
  32.3376465  41.8423042  55.4729881  32.4050865  42.9299088  55.4988861
  32.8408432  41.3371506  56.2974358  33.1213417  41.3904266  54.2282143
  32.7071114  40.7448883  53.3304138  34.3299179  41.8284378  54.0841484
  34.7135506  42.3357887  54.8687019  34.7956924  41.5199814  53.2427139
  30.6217175  40.9159470  58.0262985  31.5629120  41.2527771  58.6936569
  30.1285305  39.6480370  58.1176682  29.4610729  39.2937775  57.4475174
  30.6492748  38.5935173  58.9691772  31.6316261  38.8638992  59.3564529
  29.7386208  38.4396400  60.1399612  29.6038113  39.4188728  60.5993423
  28.9080105  37.7637367  59.9366341  30.5706959  37.6496277  61.1721230
  31.0651588  36.8004761  60.7003632  31.2617893  38.3478317  61.6443481
  29.5765324  36.9282532  62.5054321  28.7537479  38.4446640  63.1808891
  29.4573708  39.2598534  63.3496437  27.9363461  38.6948357  62.5045967
  28.2481518  38.1956024  64.1138611  30.7962799  37.3610802  58.1390800
  29.8043213  36.7810287  57.6919098  32.0433350  36.9128418  58.0412216
  32.7876930  37.5419807  58.3062057  32.4197540  35.5916367  57.5571251
  31.6269646  35.1292610  56.9690781  33.5519638  35.8467407  56.5671730
  33.2742195  36.5062485  55.7449760  34.4097252  36.2534676  57.1028252
  34.1532173  34.5122643  55.9593735  34.4960022  33.8663673  56.7677155
  33.1577530  33.9311829  54.9009438  32.4974289  33.2585487  55.4483261
  32.4778671  34.7015839  54.5371590  33.5296707  33.3021889  54.0921516
  35.3363228  34.9930534  55.0867538  34.9295082  35.4655418  54.1926842
  35.9645882  35.6007156  55.7380066  35.9593544  34.1406784  54.8158417
  32.7296181  34.5187798  58.6518288  33.7980690  34.5676422  59.2505188
  31.8617973  33.5436287  58.9967575  30.9306870  33.6257515  58.6141472
  32.2488594  32.3382645  59.7732544  33.0699196  32.4800568  60.4760094
  31.0471439  31.7621689  60.5393639  30.2595806  31.4764271  59.8420868
  31.3968258  30.8803196  61.0761757  30.5725975  32.7189026  61.6846199
  30.6196442  33.7462921  61.3235741  29.1882477  32.4514542  62.2774200
  28.4650707  32.4986305  61.4632416  29.2338181  31.4693546  62.7480698
  28.9766235  33.3377686  62.8755531  31.4448395  32.6990929  62.9212074
  31.2568703  33.6550102  63.4100723  31.2695694  32.0173912  63.7534714
  32.4840317  32.4897575  62.6675186  32.8961487  31.2717934  58.8230972
  32.4731598  31.1054935  57.6451492  33.8356628  30.4692650  59.2815552
  34.1590157  30.6344528  60.2240295  34.3914604  29.3765678  58.5133514
  33.6635399  29.0829544  57.7570267  35.6374588  29.8613415  57.7547913
  35.2987556  30.6128311  57.0415993  36.3245430  30.2598705  58.5012436
  36.3195000  28.7774639  57.0931473  37.1668701  29.1314354  56.8133774
  34.6347275  28.1488380  59.5131798  34.8901558  28.3767872  60.7345543
  34.5111504  26.9723225  59.0389862  34.5584373  26.8262100  58.0407257
  34.5875702  25.7193871  59.8026657  34.9476204  25.9354935  60.8085365
  33.1808128  25.0888996  59.8285408  32.3846245  25.8147774  59.9937439
  32.9843864  24.6188297  58.8649254  33.1864815  24.3071823  60.5881348
  35.6458931  24.7874317  59.1237869  35.7393570  24.6291618  57.9097443
  36.4568481  24.0767326  59.8964691  36.5240555  24.3558807  60.8647957
  37.1968803  22.8747139  59.4745369  37.7345123  23.2075634  58.5866966
  38.2919960  22.4636326  60.4797935  38.8060188  21.5721569  60.1204147
  39.2485390  23.6258526  60.5936928  39.8227997  23.7779865  59.6798096
  38.8289833  24.6160011  60.7716827  39.9778366  23.4160461  61.3761292
  37.8611069  22.0988369  61.7794304  37.6730995  21.1584759  61.7349739
  36.3725929  21.6933460  59.1127243  35.2805557  21.5454826  59.5840263
  36.7870102  20.9298763  58.0947113  38.0581551  20.8665237  57.4511566
  38.9058266  20.8136005  58.1343536  38.1588669  21.7096977  56.7677727
  38.0080490  19.6352100  56.5523224  38.3525391  18.7457199  57.0798111
  38.6418648  19.8067665  55.6822929  36.5416260  19.3887196  56.2288246
  36.4139519  18.3088169  56.1539726  36.3606300  19.7719421  55.2245903
  35.8665504  19.9866943  57.4308891  34.9797897  20.4986916  57.0572357
  35.3887939  18.7928181  58.3619423  34.5289078  18.0353260  57.9825096
  35.9934616  18.5690079  59.5380745  36.7589302  19.1488094  59.8511009
  35.5381012  17.6294518  60.5244064  35.3186111  16.7011890  59.9969101
  36.6763382  17.2645626  61.5225105  36.2512207  16.6401310  62.3082962
  37.3982239  16.6320934  61.0058212  37.5217247  18.4002819  62.1393242
  37.4770164  19.5583553  61.7083015  38.1959343  18.0512486  63.1062355
  34.2427826  18.0555229  61.2716942  33.7759094  17.2870178  62.1121216
  33.6817322  19.2493649  61.0073586  33.9985008  19.7244415  60.1742554
  32.4472618  19.7800961  61.5880852  32.1925545  19.2940903  62.5299034
  32.7728195  21.1959705  62.0842018  33.0243797  21.7776108  61.1973457
  31.8839722  21.7264175  62.4257965  33.7350845  21.3364162  63.2671776
  34.6668739  20.7757015  63.1932487  34.2367134  22.7497864  63.2489128
  34.8355522  22.9754219  62.3665390  33.3744392  23.4060173  63.1308212
  34.6326408  23.0096798  64.2306442  33.0325737  21.0084286  64.6021423
  32.4033890  20.1285572  64.4677963  33.8022652  20.8361149  65.3544617
  32.3965378  21.8593330  64.8461151  31.2667904  19.7921238  60.4989853
  31.5369625  20.0076008  59.2898598  30.0170898  19.4385357  60.8290024
  30.1021080  19.0511589  61.7578812  28.8044052  19.1793537  60.0044594
  28.8432560  19.7411976  59.0712204  28.7538090  17.7850895  59.4613304
  28.4744339  17.1673088  60.3147926  27.8568840  17.7722187  58.8420868
  29.8822155  17.2014084  58.5858269  30.3726139  17.8912010  57.4914970
  29.9853535  18.7126751  57.0495567  31.2663879  17.0608978  56.8644333
  31.8065796  17.3250809  55.9673271  31.3771591  15.9014320  57.5621033
  31.9810047  15.1298304  57.3169441  30.5664444  16.0200253  58.7175903
  30.3502598  15.2372265  59.4295502  27.4466476  19.5051289  60.7009773
  26.4363270  19.6181545  60.0041962  27.3714561  19.6417656  62.0057793
  28.1810646  19.3930759  62.5560417  26.1181030  19.6150913  62.7404976
  25.6531239  18.6773129  62.4364166  26.4302177  19.7577477  64.2144928
  26.7428570  20.7717133  64.4639435  25.4961147  19.5140133  64.7206039
  27.2171059  19.0864086  64.5583115  25.0259972  20.6617432  62.3502579
  23.8574867  20.2733803  62.4180069  25.4724674  21.8698502  62.0931740
  26.4740944  21.9991302  62.0816803  24.6274624  23.0680389  62.0667686
  23.6882553  22.9073505  61.5374603  24.1149406  23.3852024  63.5229683
  23.5443764  22.4843025  63.7486649  25.1904049  23.5573902  64.6251755
  25.6416035  22.5767918  64.7766724  25.9132404  24.2632999  64.2161484
  24.7040863  23.9484177  65.5188675  23.1132870  24.5220776  63.5263023
  22.6044903  24.4547520  64.4879150  23.5595894  25.5100327  63.4128876
  22.4340210  24.2297516  62.7255249  25.4432716  24.2612839  61.4648056
  26.6148682  24.4544125  61.8251762  24.8120651  25.0897083  60.6510353
  23.8408051  24.9378185  60.4193420  25.3890228  26.3945808  60.4210091
  26.3125668  26.1127434  59.9152946  24.4807034  27.1385612  59.3461723
  23.4148026  27.0182171  59.5397530  24.8502789  28.1638889  59.3608704
  24.7680092  26.6723042  57.9666100  26.0460663  26.8394928  57.3000183
  26.8521309  27.3761158  57.7782364  26.2264290  26.3677731  56.0256920
  27.1475105  26.5259323  55.4844017  25.1381264  25.7261868  55.3382607
  25.2572002  25.3805618  54.3220100  24.0032558  25.4007282  56.0321655
  23.2545757  24.8910408  55.4438667  23.7638474  25.9079609  57.3071327
  22.7731628  25.7144794  57.6912003  25.6440086  27.2043457  61.7059288
  24.6550617  27.5484047  62.3705215  26.9019585  27.5231209  62.0213356
  28.0806465  27.1625271  61.2117119  27.9855061  27.3270588  60.1384048
  28.3537846  26.1598091  61.5404243  29.1081963  28.2159042  61.8384247
  28.9025192  29.1170082  61.2606621  30.1565285  27.9264774  61.7653961
  28.7081642  28.3145123  63.3494797  29.0967922  29.2385540  63.7775116
  29.0159168  27.4072857  63.8694191  27.2075920  28.2161846  63.2614441
  26.8411407  27.6966324  64.1468124  26.6378403  29.6747322  63.2241135
  26.4403210  30.2794704  64.2399139  26.2193489  30.1649113  62.0502510
  26.5878525  29.7322998  61.2152939  25.6119480  31.5186405  61.9262238
  26.4352741  32.1099281  62.3269920  25.2667732  31.7813053  60.4528885
  24.6760807  32.6905746  60.3414497  26.1982784  31.8625088  59.8927040
  24.7828503  30.8743172  60.0905418  24.3384132  31.6914864  62.7624397
  24.0632763  32.8174095  63.2611313  23.5741119  30.6632862  63.1674232
  23.8406219  29.7494926  62.8297043  22.3168049  30.7860241  63.9681549
  21.6713257  31.6236725  63.7039375  21.5295277  29.4723186  63.8411636
  22.0235767  28.7538681  64.4952621  20.5082836  29.7475224  64.1046524
  21.1959953  29.0143013  62.3773880  20.7712612  29.8186092  61.7767334
  22.1389503  28.7325211  61.9088402  20.2682838  27.8164024  62.1726112
  20.7400169  26.9220810  62.5797386  19.3307781  28.0063248  62.6952133
  19.9919796  27.6204929  60.6811333  19.8178635  28.5018559  60.0638924
  20.9299393  27.2375679  60.2790070  18.9256477  26.6058846  60.5243378
  19.0729122  25.8031826  61.1193848  18.0200462  26.9885845  60.7557030
  18.9507866  26.1881161  59.6051331  22.6978474  31.1951408  65.4504852
  21.8189926  31.5218906  66.2964096  23.9893112  31.1557255  65.8495941
  24.6572456  30.8466949  65.1578827  24.5062866  31.7860870  67.1241226
  23.9703369  31.1465302  67.8254242  25.9534454  31.5139732  67.3557434
  26.5447979  32.0829163  66.6383133  26.3450432  31.7388592  68.3478012
  26.1220837  30.4391727  67.2888947  24.2066975  33.3442039  67.2198257
  23.7257729  33.8362465  68.2439575  24.2579575  33.9976997  66.0500717
  24.4858131  33.3857574  65.2795486  24.0772552  35.4932022  65.8972092
  24.6489544  35.9741058  66.6909332  24.5048676  35.9201660  64.4842834
  23.6998692  35.5432549  63.8533974  24.4205132  37.4933472  64.2866364
  25.3236332  37.9288406  64.7142105  24.3311520  37.6857033  63.2174759
  23.4947052  37.8596916  64.7302322  25.9090595  35.4353561  63.9957008
  26.7455215  35.9754448  64.4392624  25.9848957  34.3675728  64.2010803
  26.0217457  35.6146164  62.9264641  22.6681366  35.9020004  66.2215347
  22.4409542  37.0334244  66.6997375  21.6534901  35.0046349  66.2046585
  21.9393024  34.0768814  65.9259415  20.2104702  35.2608337  66.4636002
  19.8799229  36.0615387  65.8020020  19.3528385  34.0279770  66.2312088
  19.6606483  33.1186066  66.7473526  18.2900867  34.1737938  66.4245987
  19.2766094  33.5613213  64.7586975  18.5281925  34.1572418  64.2363434
  20.1717587  33.5558052  64.1367874  18.8319588  32.0921249  64.6961823
  19.7308006  31.5519161  64.9934311  17.9571362  32.0749588  65.3461761
  18.5789471  31.6817513  63.3770676  18.9071178  32.1635208  62.5522614
  17.8819027  30.5985279  63.0181274  17.3506203  29.7545738  63.8592377
  17.4024220  29.9048634  64.8566513  16.7579880  29.0949078  63.3757858
  17.6282234  30.2829323  61.8055801  17.1056156  29.4449673  61.5939140
  17.9094620  30.9174519  61.0718269  19.8977222  35.6916008  67.9007187
  18.8927326  36.3361473  68.0280075  20.8383102  35.3835487  68.8215942
  21.6725979  34.8833771  68.5497589  20.9498177  35.7253571  70.2721939
  19.9775181  35.6493721  70.7589951  21.8426495  34.6765938  70.9320526
  22.8456955  34.9830246  70.6352310  21.6839771  34.9560318  71.9736099
  21.6341476  33.1702805  70.6969757  21.4633808  33.1928978  69.6206741
  22.5387669  32.6183624  70.9522324  20.3778839  32.5616264  71.3423767
  20.5560684  31.8026791  72.2817841  19.3076439  32.6988525  70.7964706
  21.4514084  37.1592522  70.5965881  21.1193409  37.7230415  71.6236420
  22.3013535  37.6654778  69.7641296  22.4487171  37.1601028  68.9021606
  22.8021126  39.0401459  69.8824463  23.0443478  39.2730217  70.9193649
  24.0371704  39.2162781  69.0140533  23.7205715  39.2930717  67.9738770
  24.4118290  40.2073593  69.2699661  25.2609005  38.2651291  69.1114960
  24.9550323  37.2192192  69.1362610  26.2559738  38.4382591  67.8795624
  25.6442471  38.1433525  67.0269623  26.4563732  39.5004616  67.7393417
  27.1755810  37.8563690  67.9414291  25.9286423  38.5230484  70.4503326
  25.2479019  38.2569046  71.2589493  26.8515377  37.9489975  70.5329742
  26.1793499  39.5825043  70.5031738  21.6030312  39.9869576  69.5178223
  21.2297096  40.1819572  68.3734665  21.1254444  40.7025566  70.4857788
  21.3954906  40.5089684  71.4395599  19.9028282  41.5380707  70.3178482
  19.0919476  40.9969711  69.8302078  19.4101315  42.1135139  71.6142426
  20.1795483  42.7341919  72.0734329  18.4870243  42.6767120  71.4772034
  19.1431046  41.0143623  72.5506363  19.4183598  41.2865982  73.4291153
  20.2680435  42.7439690  69.4006653  21.1993427  43.4433327  69.7068634
  19.5372410  42.8501816  68.2680206  18.8775578  42.1142845  68.0597610
  19.6328487  43.9143066  67.2589111  18.6453133  44.1750069  66.8782349
  20.2109432  44.7826996  67.5748291  20.4259491  43.4701118  66.0234070
  20.5284824  44.2153778  65.0393600  20.9094791  42.2266769  65.8801270
  20.9335079  41.5837479  66.6586914  21.8378925  41.8450928  64.8058853
  22.4731808  42.6731415  64.4914932  22.8931293  40.8545151  65.5087204
  22.3164940  40.1171455  66.0671768  23.3165722  40.1972351  64.7492599
  23.9039841  41.4472847  66.4505692  23.7069607  42.1724548  67.5839996
  22.7321758  42.3982468  67.9904709  24.9100208  42.6771660  68.0392685
  24.9371510  43.2930183  68.8393250  25.9440594  42.3520050  67.2676697
  27.2783241  42.7384987  67.2488556  27.6155682  43.4289169  68.0077896
  28.1798248  42.1170425  66.3414841  29.1507168  42.5756073  66.4576111
  27.6834087  41.2863655  65.3111801  28.3650169  40.9197807  64.5578995
  26.3392944  40.9106178  65.3011627  25.9029274  40.2440414  64.5720062
  25.4079094  41.4783020  66.2468109  21.2191734  41.2221413  63.5076332
  21.9583549  40.7619629  62.6389961  19.9083481  41.0851784  63.4089622
  19.2812672  41.4028740  64.1341782  19.2133904  40.4001312  62.2904930
  19.7963619  39.4807205  62.2363663  17.9164543  39.8044052  62.6934853
  17.8781204  38.8720932  62.1300812  17.9759750  39.4928780  63.7363205
  16.7066059  40.6551170  62.4154816  16.5290222  40.7897682  61.3485107
  15.7799120  40.1984024  62.7629776  16.7661476  42.0754547  63.0237770
  17.3741455  42.3346863  64.0244446  16.1926823  43.0521431  62.3474045
  15.8094978  42.7489853  61.4634552  16.1017761  43.9542236  62.7924767
  19.2921143  41.0642509  60.8852119  19.0551376  40.3368759  59.9435806
  19.6592064  42.3546295  60.7024574  19.8559971  42.9816322  61.4694290
  20.2127552  42.9222679  59.4128571  19.8353252  42.3114433  58.5927734
  19.5486412  44.2821350  59.1252289  20.0495548  44.9974365  59.7775536
  19.7233372  44.5805473  58.0915260  18.0399208  44.4959221  59.2404785
  17.1196518  43.7524109  58.4438667  17.4756966  42.9657898  57.7951279
  15.6918898  43.9842529  58.5661087  14.9036217  43.3897438  58.1283913
  15.1788998  44.9592171  59.5161743  13.8620567  45.0808525  59.7307014
  13.7932224  45.4044724  60.6318893  16.1056976  45.6316032  60.3028259
  15.7214451  46.3791466  60.9810066  17.5102768  45.4520569  60.1470909
  18.1788063  45.9363937  60.8434258  21.7290344  42.9883499  59.2929955
  22.1306839  43.6107521  58.2964668  22.4785023  42.2719994  60.0476608
  22.1338825  41.8502007  60.8982048  23.9137173  42.0576553  59.7508163
  24.3018723  43.0443382  59.4980507  24.7593212  41.6799889  60.9811096
  24.5374374  40.6726799  61.3335304  26.2410049  41.6599655  60.5715218
  26.5413208  42.5474892  60.0145607  26.8352566  41.4227448  61.4539566
  26.2652016  40.8337326  59.8609924  24.6941261  42.7392960  62.0842133
  23.6645012  42.8446541  62.4260788  25.3112259  42.3983040  62.9154892
  24.9380379  43.7165909  61.6676788  24.0449295  41.0022926  58.6282692
  23.5772781  39.9582939  58.8205872  24.7844124  41.2708130  57.5561981
  25.3027058  42.5823975  57.1622963  26.2160568  42.7955589  57.7176819
  24.5305061  43.2913361  57.4609795  25.4471302  42.5968399  55.6528244
  26.2470455  43.3101273  55.4541817  24.5550041  42.9838371  55.1604385
  25.7949257  41.1209946  55.4085617  26.8741493  41.0266762  55.5289040
  25.5122490  40.7981186  54.4065895  25.1656532  40.2771225  56.6306152
  24.2504025  39.7577667  56.3465538  26.1729851  39.2402496  57.1373940
  27.3520298  39.4564629  57.5010948  25.7604198  37.9276543  57.0934029
  24.8023262  37.8508987  56.7831345  26.4419498  36.8559189  57.7284966
  27.4884052  37.0938492  57.9193344  25.8105946  36.5257988  59.0792236
  24.7879753  36.1828423  58.9219513  26.6545811  35.4346581  59.7281418
  26.2946930  35.0485077  60.6818008  26.8036346  34.5617447  59.0926056
  27.6471329  35.8002243  59.9913979  25.9029102  37.6196823  60.1500168
  25.4378815  37.2029610  61.0434303  26.9224453  37.9982834  60.2228928
  25.2841015  38.4573021  59.8281975  26.4539375  35.6210976  56.8600845
  25.3640461  35.1393013  56.4459496  27.6326599  35.1561852  56.5837250
  28.3887177  35.6506844  57.0353317  27.9917450  34.0600204  55.6517639
  27.0686874  33.7951546  55.1360970  29.0639820  34.6415710  54.6590309
  30.0491962  34.6284904  55.1251678  29.2485580  33.6815681  53.4808311
  29.9624538  32.9037933  53.7519836  28.3284092  33.3528824  52.9977226
  29.6863861  34.1874466  52.6203079  28.5976639  35.9840927  54.2866096
  28.5093555  36.4199448  55.1373940  28.5567150  32.8830223  56.4443588
  29.2794075  33.0572433  57.4862938  28.4257679  31.6036358  55.9988022
  27.8123608  31.4583416  55.2096710  29.4888458  30.6009159  56.2097282
  30.1493759  31.1218548  56.9028587  28.8928566  29.3043709  56.8305550
  28.0931396  29.0062599  56.1525612  29.6430531  28.5136986  56.8185921
  28.3220100  29.6505032  58.4655380  27.4475918  30.5988407  58.1177711
  30.4656067  30.1905518  55.0500984  30.1217823  30.3677444  53.8888130
  31.5894661  29.5670128  55.3334503  31.7772160  29.4103622  56.3134079
  32.6170311  29.0707722  54.4487228  32.1656837  28.7819996  53.4995117
  33.5930519  30.2120228  54.2404099  33.0697784  31.1148701  53.9255219
  34.0978394  30.3504658  55.1965065  34.6934891  30.0744209  53.1702614
  35.3631248  29.2520294  53.4219704  34.3040237  29.8096828  52.1872368
  35.8610992  31.4537735  53.1746979  36.5970955  31.2588367  54.8263321
  37.4933701  31.8768978  54.8792915  35.8985634  31.5711861  55.6026001
  36.8571243  30.2213688  55.0364532  33.2755127  27.7897491  54.9682961
  33.1611061  27.4586830  56.1540604  34.0074501  27.0801430  54.1125259
  34.0764198  27.4228859  53.1649666  34.8711929  25.9044781  54.5581665
  34.4516563  25.5285797  55.4913292  34.6238747  24.8024788  53.5424957
  33.5950546  24.5114193  53.3305626  34.9070282  25.1639233  52.5539131
  35.4701767  23.5021610  53.8058701  35.7707100  23.1344128  52.8247795
  36.3911324  23.8211727  54.2938957  34.7042427  22.5054302  54.6606827
  33.8830528  21.6870766  54.2320404  34.7826424  22.7827320  55.9157715
  35.5771942  23.3316898  56.2114639  34.1768646  22.2543030  56.5272446
  36.3614273  26.3203659  54.5471306  36.8579063  26.8557453  53.5362320
  37.0210495  26.2358913  55.7179680  36.5611725  25.9258976  56.5620766
  38.4314270  26.5040989  55.8095474  38.6466255  27.3622246  55.1728325
  38.8815308  26.7566624  57.2422295  38.0253220  27.0973873  57.8243942
  39.3032722  25.8612900  57.6988983  39.9944572  27.7938900  57.4149742
  40.3774986  27.7974529  58.4354477  40.8447456  27.4602299  56.8201828
  39.7674789  29.2849579  57.0799637  40.6311607  30.0848656  57.5012054
  38.7550278  29.6165142  56.4142494  39.2232933  25.2381802  55.1807785
  38.7243690  24.1095142  55.1642303  40.4366531  25.5284271  54.7085953
  40.6996956  26.5018330  54.6503563  41.3225403  24.6178379  54.0167847
  40.8236771  24.3106461  53.0976143  42.5386353  25.5253735  53.7176094
  42.2802162  26.3674870  53.0756073  42.8897285  25.9828568  54.6425629
  43.6693687  24.7080345  53.1112404  43.8942642  23.9166393  53.8262329
  43.3335037  24.1536865  52.2348824  45.1246948  25.6993904  52.6808357
  46.2540283  24.2439404  52.5402527  45.8045006  23.4489765  51.9452248
  47.1589012  24.5779419  52.0325623  46.4360237  23.8821697  53.5522308
  41.6426086  23.3724518  54.8460503  41.8683777  23.4962883  56.0615082
  41.4787750  22.1814480  54.3110542  41.3166122  22.1773872  53.3141670
  41.9504204  20.9509182  55.0153465  41.5964737  20.8490429  56.0412331
  41.2711411  19.7432423  54.3301964  40.1937485  19.7486057  54.4953995
  41.3669128  20.0092583  53.2775040  41.7660141  18.3532181  54.5696144
  42.4201965  18.1055412  55.5858269  41.5229988  17.5174465  53.6898422
  43.5006294  20.7971325  55.1197662  44.1515770  20.4051476  54.1171799
  44.0420418  21.0556622  56.3620415  43.5233116  21.3692741  57.1699181
  45.5341339  20.9956799  56.6288414  46.0607147  20.8668842  55.6832085
  45.9917793  22.2913589  57.2998390  45.5259476  22.3471909  58.2837029
  47.4952621  22.3965206  57.6083260  48.0953293  21.8408985  56.8876953
  47.7624817  23.4520264  57.6593437  47.5788612  22.0332184  58.6325989
  45.5338020  23.4267521  56.3944893  46.1599998  24.2993889  56.5801811
  45.5880661  23.0984612  55.3565216  44.5295982  23.6819553  56.7329292
  45.9354286  19.8154507  57.4889450  45.4445038  19.6269608  58.6058846
  46.9119148  19.0554428  56.9916077  47.1128654  19.2262192  56.0166435
  47.8313484  18.0775337  57.6623154  47.1623993  17.2917938  58.0133438
  48.8076324  17.3776855  56.6525879  49.3947601  18.2098923  56.2642441
  49.7105522  16.3467312  57.3284416  49.0882912  15.5541306  57.7439919
  50.3818054  15.9561319  56.5636177  50.3172150  16.8706627  58.0670624
  48.0155602  16.7589302  55.6782532  47.1049500  17.0516682  55.7600975
  48.5425568  18.7793808  58.8607941  49.5037727  19.5259533  58.6106224
  47.9738998  18.5595779  60.0395622  47.1783714  17.9718056  60.2439194
  48.5181122  19.2763214  61.2335548  48.6090698  18.5167122  62.0099678
  49.5749550  19.5423145  61.2542572  47.7174034  20.5310898  61.6254654
  48.1617775  21.3956242  62.4125290  46.5038719  20.7314625  61.0002022
  46.1308975  20.0676613  60.3366089  45.6006546  21.8146629  61.4725418
  46.1665993  22.6891003  61.7937355  44.8755684  22.0307941  60.6879082
  44.8319969  21.3358364  62.6626778  44.3258858  20.1875134  62.6824188
  44.5257378  22.2750835  63.5295334  44.8192978  23.2414646  63.5238075
  43.7318344  22.1415367  64.7627029  44.2687225  21.5073376  65.4681396
  43.6900558  23.5301037  65.4319534  44.6958847  23.8914757  65.6460190
  43.2169228  24.1775818  64.6937027  42.8664856  23.7656670  66.7179871
  41.8583031  23.3994274  66.5242233  43.5206032  22.9175644  67.8326492
  44.5140190  23.3464279  67.9642258  42.9780045  23.1773510  68.7416077
  43.6489563  21.8470306  67.6726990  42.8652573  25.2411575  67.1207428
  43.8955765  25.5962658  67.0998306  42.3472023  25.9104977  66.4339294
  42.4805412  25.4007492  68.1280289  42.3373489  21.5927677  64.4209671
  41.5493889  22.1713333  63.6747475  42.0287666  20.3961544  64.8907700
  42.7309723  19.9212036  65.4397964  40.7367363  19.6997547  64.5301514
  40.5458412  19.6781139  63.4572144  40.9349899  18.2615318  65.0359802
  41.2142982  18.2540226  66.0895615  39.9272652  17.8461056  65.0322495
  41.8486366  17.4882088  64.0664673  41.4710732  17.4712849  63.0440903
  42.7728157  18.0657825  64.0866241  42.1225204  15.9725180  64.3619232
  42.7320786  15.9391193  65.2649307  41.1824150  15.4314079  64.4691620
  42.9327850  15.3213367  63.2123451  42.2620850  15.4471455  62.3623848
  43.7612648  15.9457684  62.8779640  43.2746544  13.8893108  63.3722000
  43.6895790  13.5584497  62.5128555  43.9167747  13.7177401  64.1326981
  42.4725533  13.3271732  63.6186409  39.5736465  20.3453560  65.2886963
  39.6797905  20.7671871  66.4202576  38.4265976  20.4479771  64.5864563
  38.4084206  19.9380798  63.7148018  37.1591988  20.9666252  65.1184158
  36.4068069  20.9028816  64.3323135  36.6193695  20.2382641  66.3785629
  37.2501068  20.4912987  67.2307663  35.5982323  20.5476894  66.6013489
  36.5412941  18.6792698  66.2911758  37.5077019  18.2375889  66.0481339
  36.3872719  18.3259830  67.3107681  35.3883896  18.1527767  65.4112244
  34.5129242  18.3608379  66.0263443  35.2945976  18.6447830  64.4431152
  35.6240692  16.6360378  65.1647720  36.5851860  16.6072311  64.6514282
  35.9084816  16.1282101  66.0863571  34.6435966  15.7919931  64.4513092
  34.2668991  16.2487240  63.6330185  35.0494690  14.9470167  64.0752945
  33.8894958  15.5644045  65.0834808  37.0775719  22.4513302  65.3141403
  36.3947487  23.0113182  66.1679611  37.8667259  23.1837006  64.5191650
  38.2526054  22.6828461  63.7315445  37.9630547  24.6321812  64.6207809
  37.8003540  24.8518829  65.6759491  39.3350716  25.0163403  64.3000031
  39.9258690  24.4403248  65.0122299  39.6507797  24.7841587  63.2828865
  39.6311417  26.8133163  64.5837555  39.0450859  27.1998901  63.4470978
  36.9930611  25.4117260  63.8045807  36.6622810  25.2112637  62.6645241
  36.5381050  26.4290752  64.5086899  36.9487267  26.5950680  65.4163971
  35.6037216  27.4138870  64.0136261  35.2555122  27.1623745  63.0118332
  34.2880173  27.3530464  64.8710480  34.4683418  27.7115631  65.8844833
  33.1749115  28.3804245  64.4296875  32.7142601  27.9923592  63.5212212
  32.4541817  28.5091801  65.2371979  33.5951042  29.3367310  64.1182175
  33.5663834  25.9767647  65.1016922  32.7666092  25.7418671  64.3993530
  34.2472839  25.1452980  64.9196625  32.9234924  25.8659134  66.5147705
  33.7470207  25.9551373  67.2232513  32.2659035  26.7313271  66.5968628
  32.3542519  24.9411259  66.6087570  36.2879562  28.8296795  64.0955124
  36.8315773  29.1900978  65.1155319  36.2633438  29.6174889  63.0216064
  35.5273552  29.4993210  62.3400955  36.8462982  30.8864059  62.7695389
  37.4205437  31.2156715  63.6355209  37.8550529  30.7498989  61.6184731
  37.2483749  30.3303699  60.8159523  38.3919830  31.6822510  61.4437599
  38.9268723  29.7331810  62.0271797  39.5051880  30.1462173  62.8536453
  38.5833435  28.7191925  62.2319107  39.9376640  29.4895649  60.8742638
  39.5452614  28.8818493  60.0589066  40.1992798  30.3884640  60.3160172
  41.1944084  28.9706421  61.3941269  41.7997017  29.6533585  61.8272743
  41.5906105  27.6980038  61.3975983  40.9378090  26.7701645  60.8500328
  40.2052040  26.9659138  60.1828957  41.3604355  25.8530769  60.8709602
  42.7694016  27.4579411  61.9128456  43.3981895  28.2089195  62.1593361
  43.0854797  26.5041695  61.8103065  35.7581177  31.9490719  62.4074364
  34.6399574  31.6415157  62.0574875  36.1434746  33.1764641  62.5242119
  37.0496445  33.3558807  62.9325790  35.4076271  34.3436928  62.0047951
  34.7593956  33.9916649  61.2023163  34.5254326  34.9770813  63.0354462
  33.9123459  34.2156067  63.5175056  35.3167114  35.6654587  64.1445847
  34.6719551  36.0153694  64.9507904  36.1071014  34.9912262  64.4744263
  35.8963013  36.5521393  63.8877335  33.4695778  35.9396782  62.6571655
  33.8748550  36.8643990  62.2463722  32.7918091  35.4356880  61.9681664
  32.9434090  36.1857071  63.5795059  36.3311768  35.3706512  61.3994064
  37.4700356  35.5524216  61.8898506  35.8562012  36.1542549  60.4079094
  34.9753036  35.7670326  60.1010246  36.3810196  37.4630814  59.9265213
  37.2044067  37.8530350  60.5249138  36.9749298  37.2745934  58.4914551
  37.8685570  36.6506233  58.5054779  36.2643967  36.8711052  57.7700386
  37.4667702  38.6116829  57.9485893  37.5926590  38.5878181  56.8661461
  36.7454643  39.3924332  58.1899376  39.0379639  39.0900726  58.6020966
  40.0705948  38.0313606  57.5548363  39.8233604  38.3942642  56.5571938
  41.1103745  38.2464981  57.8011627  39.8646736  36.9704475  57.6968269
  35.1694145  38.4650116  59.8948784  34.1038246  38.1577110  59.3018875
  35.2448540  39.5889893  60.5214348  36.1192932  39.7999725  60.9807205
  34.1451569  40.5984383  60.7287369  33.4471893  40.5068321  59.8965416
  33.5078087  40.4383087  62.1159668  33.0500832  39.4563484  62.2356987
  34.2282829  40.6302185  62.9110756  32.3240852  41.3837051  62.1588783
  32.7355042  42.3747559  61.9674416  31.5664082  41.1991920  61.3973160
  31.5049000  41.4309082  63.7595749  32.8472557  41.9179802  64.8628082
  33.0952568  42.9061089  64.4752655  32.4775200  41.9946518  65.8853073
  33.5753784  41.1083946  64.8127747  34.7534637  41.9757118  60.4773865
  35.4951286  42.5813980  61.2574120  34.2620239  42.5553360  59.4217300
  33.7579117  42.0323334  58.7199860  34.6257210  43.8951454  58.9611015
  35.6433868  44.1863251  59.2212448  34.4698868  44.0594101  57.4674606
  33.4113235  44.0885429  57.2091866  35.1851234  45.3167305  56.9467392
  35.0147972  46.1761169  57.5952339  36.2637863  45.1939697  56.8491554
  34.8334694  45.6771393  55.9800224  35.1374741  43.0523491  56.7903595
  36.0821228  43.2185326  56.7501183  33.6408463  44.8531265  59.6715889
  32.4524460  44.6909027  59.5702629  34.2161827  45.8521385  60.3317642
  35.2168808  45.8744545  60.4666977  33.4181175  46.8486862  61.0953102
  32.4280319  46.9455795  60.6498413  33.2040863  46.4318390  62.5947342
  32.5151138  47.1867180  62.9736481  32.6149597  44.9797096  62.8248901
  31.9112263  44.7913551  62.0141029  33.4308739  44.2805481  62.6417160
  32.1062012  44.8324966  63.7775650  34.4627762  46.6280251  63.4009590
  34.3764839  46.1177673  64.3602829  35.2711067  46.1550522  62.8432808
  34.6485710  47.7018509  63.4227829  34.0319901  48.2286491  60.9883728
  35.2443428  48.4039841  60.9100456  33.1579094  49.2987518  61.0350113
  32.2027626  49.0666351  61.2672081  33.7019768  50.6755066  61.2232742
  34.5974770  50.6988029  60.6022644  32.5991745  51.7380905  60.9145279
  33.0262489  52.7392883  60.9720650  32.3806229  51.6053696  59.8549423
  31.2745838  51.5797424  61.7788277  30.6518116  50.7938347  61.3515015
  31.5325184  51.4206772  62.8258553  30.3177223  52.7828064  61.7923279
  30.5015945  53.8955879  61.2196503  29.1582680  52.6001167  62.2769928
  29.1111717  51.8741188  62.9775696  28.3697033  53.1965218  62.0706787
  34.2842674  50.8800011  62.6213074  33.6922646  50.4420700  63.5481758
  35.4841232  51.4943771  62.7969666  35.7063828  52.1827965  62.0921402
  36.1740570  51.5616455  64.0517654  35.5054398  52.0476532  64.7622910
  36.6112213  50.2407150  64.6781158  35.6918564  49.7158241  64.9376526
  37.3795090  49.2785416  63.7835159  38.3915138  49.5980568  63.5347977
  37.3500977  48.2706375  64.1974869  36.8700142  49.2160835  62.8219452
  37.2922401  50.3341408  65.8900375  36.7523727  50.9170303  66.4289093
  37.3881607  52.5177040  63.8844566  38.1606712  52.3961182  62.9660187
  37.6388588  53.5131302  64.7745209  37.0485725  53.6722221  65.5784836
  38.7590446  54.3703041  64.7229767  38.9006157  54.5994072  63.6667709
  38.4820137  55.7708855  65.4085007  39.3465767  56.4279442  65.3141251
  37.6345139  56.2000923  64.8740540  38.0486984  55.7063713  66.8731995
  38.4218369  56.6004448  67.5993729  37.2640305  54.7474022  67.2835159
  40.0470963  53.6432533  65.2287521  41.1587029  54.0894470  64.9741135
  39.9853210  52.5504150  65.9600143  39.1274910  52.1497269  66.3116913
  41.2298088  51.9708862  66.6613541  41.7190552  52.7587013  67.2341461
  40.8059006  50.8342247  67.5698166  40.0470352  50.2771454  67.0203705
  41.9617195  49.8503838  67.8712921  41.5908012  49.1221581  68.5925522
  42.4206238  49.3698616  67.0072327  42.8138695  50.3146439  68.3676834
  40.0802841  51.3413582  68.8292236  39.2814636  51.8907127  68.3310318
  39.7598419  50.4386635  69.3493805  40.7384415  52.0201569  69.3715973
  42.3055458  51.4513702  65.6570435  41.9597588  50.7735481  64.6625366
  43.5671959  51.8628387  65.7102203  44.0997238  53.0301094  66.3622513
  44.3246498  52.5946541  67.3358459  43.4156914  53.8752098  66.4397354
  45.3598137  53.4436913  65.5652924  46.0473480  54.0448761  66.1602402
  44.9637718  54.0003662  64.7159576  45.8833199  52.0499840  65.1504898
  46.2915688  51.5176582  66.0095901  46.6286583  52.2432480  64.3789825
  44.6089859  51.4803238  64.6718826  44.3831787  51.9726219  63.7259674
  44.7160988  49.9803352  64.4150772  44.4136848  49.1470642  65.2922592
  45.1621323  49.6654739  63.1888084  45.3820457  50.4781609  62.6308861
  45.4092445  48.3282967  62.7395325  44.4462852  47.9111862  62.4448700
  46.2736969  48.3928413  61.4355545  45.7738152  49.0928955  60.7661209
  47.3013268  48.7344551  61.5596046  46.2220764  46.9374237  60.7641945
  46.6168633  46.1495247  61.4056435  45.1982689  46.6249657  60.5585480
  47.0810547  46.9211349  59.4954147  48.2883606  47.1121025  59.5691986
  46.4642906  46.6818008  58.3736610  45.4582710  46.6965027  58.2853127
  47.0159950  46.6981468  57.5278130  46.0858803  47.3321648  63.7244797
  45.6080513  46.2024460  63.9095001  47.1486664  47.7091484  64.4249649
  47.5826607  48.5849609  64.1706085  47.8569069  46.7303810  65.3238373
  47.7362823  45.7542076  64.8541183  49.3592300  47.0769272  65.4089737
  49.9662247  46.3406372  65.9357910  49.7625160  46.8699150  64.4177094
  49.7019424  48.4909172  65.8058548  50.7490616  48.7028008  66.3898239
  48.9150314  49.4783592  65.6022797  47.1846657  46.6493835  66.6785889
  47.4885597  45.8096657  67.4764709  46.1681099  47.4732056  66.9386826
  45.8378868  47.9920998  66.1375580  45.4359818  47.6208191  68.2381821
  45.9410553  47.0649376  69.0281219  45.4982033  49.0908241  68.6387863
  44.9137497  49.6432190  67.9030075  45.0697479  49.2989197  69.6192093
  47.0433807  49.5941544  68.7607117  47.4785461  49.0892029  69.6231232
  47.6689568  49.4563370  67.8787994  47.2040634  51.0621414  69.0541000
  46.2885208  51.7097511  69.5940323  48.2800217  51.7290649  68.7112732
  48.9908600  51.2897148  68.1440125  48.1230736  52.7084846  68.5210037
  43.9929543  47.0286293  68.1683884  43.2775269  46.7514229  69.1115341
  43.5803375  46.6274147  66.9263611  44.1925659  46.8514099  66.1549301
  42.3442688  45.7681351  66.7465057  41.4327583  46.2386017  67.1151733
  41.9698486  45.5472755  65.2059250  42.8111763  45.1241417  64.6570892
  40.8534508  44.5519676  64.9576874  40.0556755  44.9375572  65.5924988
  40.6205521  44.5445251  63.8928833  41.1494026  43.5604439  65.3003082
  41.5927353  46.9176865  64.5667267  42.3573189  47.6775513  64.7283249
  41.5684891  46.7610397  63.4883118  40.1975098  47.5119133  64.9516678
  39.4166183  46.9138451  64.4819641  40.0908737  47.5295792  66.0363007
  40.0612526  48.5357094  64.6032715  42.6404457  44.4324417  67.4232483
  43.7415543  43.8962250  67.2731400  41.7642250  43.9854889  68.3231354
  40.8954620  44.5004539  68.3102417  41.9632378  42.8152466  69.2271652
  43.0191536  42.5676270  69.3359909  41.4299698  43.1455345  70.6548233
  40.3463974  43.2613068  70.6310043  41.7227898  42.3029060  71.2811890
  41.9409561  44.4057007  71.3021545  43.0284538  44.4347725  71.2343140
  41.3541908  45.1990852  70.8391800  41.5396690  44.3555717  72.7636566
  40.4611626  44.2335701  72.8638458  42.1164246  43.5584183  73.2326965
  41.9500999  45.5483856  73.4179459  42.4355316  46.2191925  72.8396072
  41.8863106  45.8928070  74.6972198  41.1741295  45.2629242  75.5782013
  41.1612320  45.5553322  76.5448608  40.8155556  44.3295708  75.4354553
  42.3748283  47.0839233  75.0224838  42.6550789  47.0350494  75.9915924
  42.7678947  47.7116661  74.3357925  41.4168816  41.5792809  68.6995544
  40.2170830  41.3516045  68.6792679  42.2954330  40.7405090  68.2340775
  43.2808685  40.9049606  68.3823166  41.8615570  39.4130821  67.6839828
  40.8393364  39.5237198  67.3221436  42.7795601  38.9473991  66.5064926
  43.7410622  38.5764008  66.8614197  42.1963539  38.1716003  66.0104065
  42.9823875  40.1561661  65.5865631  42.1247177  40.5935402  64.5414963
  42.7684288  41.6685791  64.0077438  42.2765007  42.2583466  63.2484131
  43.8413582  41.9951057  64.8378906  44.3088875  42.8850441  64.7402725
  43.9807739  41.0205612  65.7813492  44.8145256  40.9171333  66.4599991
  41.7443848  38.3438835  68.7539291  42.5556564  38.3066177  69.6809082
  40.6071510  37.6240311  68.7683258  40.0224686  37.5636215  67.9469833
  40.1935196  36.7345963  69.9120331  40.8763809  36.9972610  70.7200012
  38.8035126  37.1247826  70.3483276  38.0958595  36.7260895  69.6214371
  38.4916267  36.3306694  71.5723648  37.4547806  36.5822830  71.7953949
  38.3978500  35.2965851  71.2407379  39.1645889  36.4350700  72.4234314
  38.7424698  38.6150017  70.6972504  37.7245941  38.8776321  70.9854431
  39.4082069  38.8684464  71.5222702  38.9120903  39.2524872  69.8295212
  40.3910294  35.2562294  69.5920868  39.9423370  34.7240410  68.5823441
  40.9124908  34.5358238  70.5234756  41.1202431  35.0382538  71.3746567
  41.2620659  33.1198006  70.4100952  40.6420403  32.5406952  69.7257690
  42.7171936  32.9281387  69.9628754  43.3754196  33.5656967  70.5530930
  43.0088501  31.8849659  70.0846786  42.7993851  33.3451729  68.4899139
  42.9927063  34.7357292  68.2822418  43.1098137  35.5321770  69.0022125
  42.9782295  35.1788025  66.8890381  43.0330353  36.2461357  66.7334900
  43.0113373  34.2805061  65.8572617  43.0824280  34.7136536  64.5654984
  43.4534760  34.0123901  64.0249863  42.8587341  32.8763695  66.1632080
  42.9758339  32.1603470  65.3632050  42.7431641  32.4533958  67.4748611
  42.6980934  31.3905239  67.6610718  40.9637337  32.4077034  71.7667313
  41.6104584  32.6486168  72.7675705  39.9559326  31.5618019  71.7678070
  39.4827309  31.4909096  70.8783417  39.3071785  30.9121685  72.8879929
  39.7319298  31.1519279  73.8627853  37.8398628  31.4834957  72.8206635
  37.3668251  31.3363991  71.8497391  37.2681046  30.8680744  73.5152435
  37.6802483  32.9765320  73.2274094  38.0681419  33.5829048  72.4089050
  36.1788025  33.2387619  73.2622223  36.0171356  34.2921638  73.4909210
  35.7218399  32.8777885  72.3408203  35.7298088  32.6468735  74.0598297
  38.2112503  33.2404213  74.6626740  39.2291107  33.6167831  74.5605621
  37.5908813  33.9014587  75.2678833  38.2716866  32.2697067  75.1547699
  39.2799454  29.4051018  72.7962570  39.4726219  28.8669453  71.6893463
  39.1208000  28.6523247  73.9177551  39.0651550  29.1586876  74.7898788
  39.3282661  27.2049541  73.9805908  39.3938675  26.8227215  74.9992676
  38.1885681  26.5210285  73.2996597  38.2394676  26.7210712  72.2293854
  38.3165207  25.4884090  73.6243515  36.7277412  26.8277702  73.7122574
  36.5880547  27.8979568  73.5596619  35.9412003  26.3546696  73.1243591
  36.4083824  26.5410442  75.2604294  35.9781303  25.4754143  75.6947937
  36.3827400  27.5077705  76.1285172  40.7904053  26.8982830  73.4492493
  41.6573219  27.7535725  73.5047760  40.9665680  25.7189693  72.8453522
  40.1995621  25.0618839  72.8516312  42.2055817  25.3098412  72.1791458
  43.0134087  25.4255848  72.9017258  42.1227570  23.8873005  71.7612610
  41.4821777  23.7925320  70.8844604  43.1227417  23.5835381  71.4516449
  41.8039551  22.9822483  73.0200806  42.5358391  23.2091637  73.7952957
  40.7964478  23.2215843  73.3602982  41.9229546  21.5502510  72.6339722
  42.9297829  21.3059063  72.2953110  41.7896347  20.9111786  73.5068512
  40.9428444  21.2190552  71.5688705  39.9982605  21.7537422  71.6687164
  41.4224586  21.5381165  70.6435242  40.5042610  19.8160400  71.5683365
  39.8676529  19.6818943  72.3408890  40.1555748  19.5165749  70.6689835
  41.2963295  19.2241287  71.7741776  42.6442490  26.2343750  71.0345306
  43.8037567  26.1868057  70.6430130  41.7559509  26.9808712  70.4655228
  40.7875595  26.9328327  70.7483749  42.1575165  27.8778763  69.3943253
  42.5481987  27.2268505  68.6122589  41.0160866  28.4992561  68.7217178
  40.3370743  27.6546364  68.6048660  40.4738045  29.2635880  69.2783356
  41.0801888  28.9160366  67.7165833  43.3145180  28.9436569  69.7655334
  43.8066521  29.6218109  68.8703613  43.6319962  29.1131535  71.0613937
  43.0688171  28.5944805  71.7201157  44.8174324  29.8949337  71.5114136
  44.7248764  30.9449348  71.2338715  44.8593369  29.9370880  73.0716171
  43.8546333  30.1962547  73.4055557  45.3134117  28.5881729  73.5112228
  45.0028915  28.5118294  74.5532684  44.7145424  27.8331604  73.0018997
  46.3766861  28.3611546  73.4337234  45.8332176  30.9513702  73.6735458
  45.3902359  31.9122238  73.4115753  45.9367676  30.7771397  74.7445374
  46.8221664  30.8007946  73.2406235  46.0897331  29.3200970  70.8934555
  46.8542519  30.1197224  70.4228897  46.2453079  28.0563011  70.6183167
  45.5802536  27.3330421  70.8521957  47.3559341  27.4711571  69.7297592
  48.2395706  27.9124146  70.1908188  47.5137444  25.9086933  69.8425369
  48.5773888  25.6939621  69.7393341  47.1125145  25.3825684  71.2398300
  47.8388863  25.8428173  71.9096527  46.0892601  25.5980053  71.5474701
  47.2368240  24.3090000  71.3815918  46.7838974  25.0809040  68.7552109
  46.7474747  24.0587902  69.1321182  45.8308487  25.5833321  68.5897751
  47.3482895  25.1239834  67.8237000  47.3858337  27.9911556  68.2451859
  48.5280914  28.0672245  67.6781387  46.3615036  28.5190659  67.6442719
  45.6184235  28.7209854  68.2978439  46.4605217  29.1242161  66.2440720
  46.7676392  28.3657494  65.5239944  45.1100845  29.5237064  65.6615372
  44.7265816  30.4337273  66.1229401  45.2964821  29.7697506  64.6161575
  44.0714340  28.4004898  65.6361160  43.8817291  27.9945641  66.6297607
  42.7956810  28.8972569  65.0710526  43.0009346  29.2154331  64.0489273
  42.1367416  28.0293388  65.0958633  42.5589752  29.7009163  65.7683334
  44.5518379  27.2628422  64.7292862  45.4679680  26.7382183  65.0005341
  43.7865372  26.5054131  64.5598297  44.8804245  27.6920280  63.7827530
  47.4834862  30.3117237  66.2010040  47.8105812  30.7802773  65.1023102
  47.7992477  30.9168987  67.3663177  47.5350990  30.4431400  68.2182999
  48.2987556  32.2878990  67.4868011  48.6649170  32.6806641  66.5382385
  47.2304001  33.1872749  68.1759109  46.7607536  32.7979126  69.0792007
  47.7893791  34.1178589  68.2741928  46.0223007  33.5313606  67.2654037
  45.5302315  32.5715446  67.1081619  45.4213791  34.1654816  67.9172363
  46.3875504  34.2021561  65.9655762  47.0289688  33.4863129  65.4515305
  45.5245514  34.3447227  65.3151855  47.0597839  35.5341682  66.1665344
  47.9330864  35.6763382  66.6536026  46.6382942  36.6539154  65.5680084
  45.5413246  36.7461624  64.8059998  45.3866310  37.6527977  64.3886414
  45.0095558  35.9169846  64.5828781  47.3302956  37.7863159  65.7535324
  46.9806595  38.6569099  65.3794708  47.9662933  37.8464470  66.5358276
  49.6239471  32.2966270  68.3308258  49.5693169  32.3217430  69.5393906
  50.8465996  32.2049713  67.7695465  51.1641197  31.8936424  66.4009628
  50.6398010  32.5940895  65.7509155  50.9058113  30.8563004  66.1881180
  52.6389961  32.1619301  66.2501755  52.8421783  33.2027168  65.9980164
  53.0154419  31.4134712  65.5529022  53.2181015  31.8401680  67.6327362
  54.1119461  32.4321327  67.8295212  53.5739822  30.8260746  67.8145599
  52.0682449  32.1687584  68.5992737  51.8562851  31.4727421  69.4109039
  52.3335953  33.4349632  69.4229050  53.0754814  33.4063606  70.4060287
  51.6497536  34.5012283  69.0947800  51.0361633  34.4855690  68.2926788
  51.5529594  35.7713013  69.8058167  52.5516396  36.0954704  70.0984802
  51.0991096  36.8090706  68.7826309  50.9421883  37.7820473  69.2482376
  51.8564110  36.9327278  68.0084839  49.7950516  36.5090332  68.0177765
  49.6212616  35.3957367  67.4239578  48.8139763  37.3015022  68.1873398
  50.6844635  35.7722359  71.0435028  50.6948051  36.7084656  71.8378143
  49.8971443  34.7061043  71.1992264  50.0249367  33.9794579  70.5094833
  48.9888268  34.6258011  72.2960587  49.1438255  35.3862305  73.0614548
  47.4990158  34.7528114  71.8167572  47.4231339  34.1311111  70.9246674
  46.8608856  34.4906807  72.6606674  47.1507607  36.1328583  71.2432785
  47.9006767  36.4097061  70.5022736  45.8054161  36.1152153  70.5367279
  44.9808426  35.6899910  71.1088715  45.4802322  37.0885010  70.1692123
  45.9776688  35.4048538  69.7281418  47.1741524  37.2213440  72.3259277
  47.1347885  38.2055511  71.8591614  46.3622475  37.2082329  73.0530777
  48.1054497  37.2362061  72.8921127  49.2148933  33.3195152  73.0736008
  48.7489014  33.0824051  74.1992569  49.8433647  32.3140144  72.4079666
  50.1242981  32.5637054  71.4705048  50.2017097  31.0153294  72.9557190
  49.7883949  30.9415665  73.9616165  49.6950722  29.9039917  72.0466003
  48.7382736  30.2770557  71.6812820  50.3866425  29.6542645  71.2419510
  49.5324249  28.8178577  72.8647614  48.9629974  28.9333420  73.6289749
  51.7229691  30.7906113  73.2472763  52.5837021  31.3130817  72.5681305
  52.0565109  29.9201450  74.2261734  51.3559761  29.3652706  74.6967773
  53.4173317  29.6267643  74.7926559  53.2305946  28.9927616  75.6594162
  54.1356468  28.6834946  73.7993851  54.2465782  29.3024578  72.9090576
  55.1281586  28.3513107  74.1038132  53.3131256  27.4270725  73.4712601
  52.2429771  27.6281681  73.5207977  53.8099747  26.9278507  72.0837784
  53.6060905  27.6004372  71.2506180  54.8866768  26.7588043  72.0991440
  53.3239975  26.0166931  71.7348938  53.3948631  26.3678722  74.5269394
  54.3988190  26.0507221  74.8090591  52.9371376  26.7150764  75.4532471
  52.7943497  25.5120506  74.2186279  54.2230911  30.8417892  75.2319565
  55.4344940  30.9263077  74.8386536  53.5884399  31.8833122  75.8468781
  52.6983223  31.8051605  76.3177109  54.2039261  33.2691383  75.8549118
  55.2894440  33.3058205  75.9465942  53.9916344  33.9801407  74.4928436
  54.3615150  33.2969894  73.7282562  52.5457344  34.4015770  74.1164246
  51.9596863  33.6738510  74.6777344  52.4126663  35.4369278  74.4301682
  52.3574486  34.2805786  73.0496445  54.7423477  35.1493149  74.4585114
  54.7173615  35.4310303  73.5411148  53.6311150  34.1157379  77.0408249
  52.6257286  33.7549973  77.6168823  54.2649498  35.2963867  77.3276215
  55.0368080  35.5312538  76.7200241  53.9360123  36.2989883  78.3853302
  53.9617310  35.8192520  79.3637390  55.1402435  37.3197861  78.4941940
  55.0175095  38.1205025  79.2235031  55.9513397  36.7643242  78.9650269
  55.5565300  37.9830894  77.1703949  55.7529526  37.2119408  76.4255142
  54.8969345  38.8294106  76.9786148  56.9457855  38.6467705  77.4623337
  56.8603134  39.4624138  78.1803284  57.6353607  37.9343033  77.9150772
  57.4896049  39.1948242  76.1221313  57.1431084  38.5245399  75.3355103
  56.9174194  40.0768318  75.8344269  58.9624710  39.5135231  76.0987701
  59.5260010  38.6840363  76.2191315  59.1182556  39.9639473  75.2082901
  59.2188339  40.2068596  76.7870026  52.5911331  36.9472160  78.3134232
  52.2440681  37.8963242  79.0168457  51.6756172  36.3705864  77.5342560
  51.7834969  35.5250473  76.9924698  50.3307076  37.0287933  77.3308716
  50.4871559  38.0608788  77.0171432  49.6200485  36.2972641  76.2125549
  50.1903114  36.6342583  75.3469162  49.7108116  35.2434120  76.4757233
  48.1414642  36.6808281  76.2081985  47.3031387  35.9879990  76.7155991
  47.8100510  37.7946625  75.5998230  48.5351868  38.3645172  75.1880646
  46.8468056  38.0855865  75.5125351  49.5931511  37.0260887  78.6811447
  49.4975014  35.9198761  79.3027573  48.9492912  38.1630058  79.0673981
  48.9770622  38.9751511  78.4676056  48.2252121  38.3625908  80.3414841
  48.9878883  38.3295708  81.1195145  47.5990791  39.7888069  80.4658737
  47.1948318  39.9856377  81.4588242  48.6583519  40.9078331  80.2936401
  49.6439705  40.5023346  80.5221558  48.6124458  41.2774391  79.2692413
  48.3820038  41.6699677  81.0222549  46.6410103  40.0035744  79.4830933
  45.8058052  39.6873589  79.8352814  47.2219429  37.3309288  80.8066559
  46.9197769  37.3091660  81.9715805  46.7008820  36.5674019  79.8610611
  46.9736443  36.5808640  78.8886795  45.5186920  35.7290802  80.1750641
  45.0257568  36.2098312  81.0200424  44.5582886  35.6959839  78.9625397
  45.0936012  35.1921310  78.1577606  43.7312737  35.0588379  79.2759018
  44.1542702  37.0232277  78.4112244  44.9781647  37.4776001  77.8609085
  43.4385262  36.8297539  77.6122360  43.6083717  38.0591888  79.4363937
  44.3627930  38.9723167  79.9853439  42.4295502  37.8752823  79.7739029
  45.8034477  34.3354645  80.6295624  44.9328270  33.6271095  81.1190720
  47.1018829  34.0065575  80.5736847  47.6800461  34.6548653  80.0584030
  47.6936913  32.7090149  81.0711746  46.8340645  32.0657158  80.8832550
  48.8424759  32.2236443  80.1326523  49.6782608  32.8950005  80.3297501
  49.1089973  31.2009697  80.3994904  48.6018372  32.2420540  78.5955124
  48.1105728  33.1821060  78.3443985  49.9382172  31.9319859  77.9370651
  49.8543510  31.9459801  76.8503799  50.6903229  32.6785927  78.1920395
  50.3950272  31.0186405  78.3181381  47.7496529  31.0968075  77.9804993
  47.6040230  31.2831211  76.9164581  48.3546143  30.1915340  77.9294815
  46.8003578  31.0320549  78.5122375  48.0063591  32.4679222  82.5452194
  48.7187614  33.3333015  83.1030579  47.6708374  31.4594727  83.0999908
  28.0253925  58.4087677  53.6548386  28.7264118  58.8189011  54.2552299
  27.7979603  59.0589828  52.9161949  27.1768074  58.3307419  54.1969795
  28.5291271  57.1496468  53.0733910  27.7514057  56.4995232  52.6726494
  29.4344902  57.3506889  51.8829880  29.1364670  58.2218742  51.2996216
  30.3983402  57.5659294  52.3442535  29.5257130  56.2274017  50.9206886
  28.5128937  55.8531914  50.7714729  29.8440170  56.6808319  49.9819756
  30.6762619  54.9702835  51.3253212  32.0092239  55.7468071  50.4301567
  33.0209732  55.4273300  50.6799469  31.8383942  55.5224571  49.3772583
  31.9549923  56.8282509  50.5551720  29.2147141  56.2907410  54.1515579
  29.9612961  56.7750587  54.9214249  28.8561344  55.0037956  54.1158562
  28.1711349  54.7923813  53.4043922  29.6025238  53.9787521  54.8351212
  30.6071148  54.3403702  55.0545120  28.9676571  53.6807327  56.2253990
  29.3305073  54.5260239  56.8101387  27.8809471  53.7633972  56.2070122
  29.3270264  52.3701057  56.8574066  28.8564034  51.5742798  56.2801094
  30.4069595  52.2226639  56.8675575  28.9303246  52.3452950  58.6528778
  29.4155445  50.6473618  59.0565071  28.9028893  50.3351593  59.9663506
  29.0627270  49.9379501  58.3079376  30.5031700  50.6131706  59.1197128
  29.5888824  52.6627350  53.9919510  28.6114311  52.4455681  53.2468948
  30.6813831  51.8610115  53.9424896  31.5231266  52.1694489  54.4077148
  30.6565323  50.5345726  53.2323074  30.2162933  50.7220573  52.2529526
  32.0347672  50.0073662  52.9259605  32.6357765  49.9962082  53.8352318
  32.0831642  48.6427956  52.1907997  31.4883957  47.8981628  52.7198257
  31.9106998  48.8451424  51.1337242  33.1037903  48.2791634  52.3099747
  32.7619820  51.0342216  52.0113449  32.3695526  50.9593468  50.9972000
  32.5508080  52.0538406  52.3336678  34.3023605  50.9321213  51.8437920
  34.5261307  49.9758263  51.3709984  34.6141167  51.8191719  51.2923927
  34.7946854  51.1073265  52.8003578  29.7509384  49.5210266  53.9663124
  29.7953796  49.3875618  55.1379433  28.9749336  48.8115234  53.2004509
  29.1400108  48.9446144  52.2129631  27.9368649  47.7897568  53.7154083
  28.2026024  47.4777069  54.7254105  26.5472622  48.5182457  53.8323517
  26.4200134  48.9250603  52.8291473  25.7791843  47.7871971  54.0847893
  26.6559048  49.6909294  54.8627663  27.4636135  49.5417328  55.5793190
  26.9671135  50.6012268  54.3503151  25.3807926  49.7892761  55.6653633
  24.5141315  49.9071426  55.0149002  25.1975632  48.8214417  56.1320839
  25.4393120  50.9575157  56.6201515  25.3052578  51.8648453  56.1972122
  25.7080040  50.9247475  57.9047813  25.9641342  49.7794952  58.4372177
  26.2296791  49.8130150  59.4111099  26.0858517  48.9725075  57.8421936
  25.7558784  52.0248337  58.5896301  25.5068913  52.9510918  58.2731590
  26.0541306  52.1316185  59.5486603  27.8374634  46.5448837  52.8838615
  28.0690498  46.6113510  51.6952934  27.6551838  45.3108826  53.4566612
  27.8338375  45.2345619  54.4478035  27.3860340  44.0582237  52.7340813
  28.1434994  43.8604736  51.9756317  27.3438377  43.1740570  53.3701363
  26.0221634  44.0612869  52.0968361  25.0631580  44.6764870  52.5774994
  25.9928799  43.2740364  51.0310173  26.8547554  42.8562508  50.7105103
  24.7625046  42.8561783  50.3526039  23.9212818  42.7556953  51.0384254
  24.4459076  43.7041817  49.1619492  25.0633621  43.3695450  48.3283577
  23.0104980  43.3693275  48.7427597  22.6150112  43.7451401  47.7991219
  22.9038944  42.2845535  48.7434120  22.4255371  43.7459717  49.5818405
  24.7201900  45.2120171  49.2742500  24.3034306  45.4643021  50.2493210
  25.7972717  45.3728447  49.2280769  24.1669044  46.0026741  48.1190453
  24.4112453  45.5528374  47.1567383  23.0775433  45.9707527  48.1383896
  24.4541969  47.0497704  48.2146835  24.9819164  41.3872375  50.0974808
  26.0400124  40.9692688  49.7088013  23.9503708  40.5375824  50.3861122
  23.0619831  40.9194260  50.6777649  23.9622459  39.0148506  50.3291473
  24.8796310  38.6488457  49.8681183  24.0379715  38.5363808  51.7845230
  23.4499397  39.2319565  52.3832664  23.5226288  37.5790710  51.8625374
  25.4903164  38.4111252  52.2975197  26.1599770  38.1455154  51.4795303
  25.7607555  39.4511871  52.4798470  25.6820145  37.4961548  53.5349426
  26.5987492  37.6319199  54.1087570  24.8539333  37.7815971  54.1837196
  25.6037579  36.0710983  53.0756683  26.3839531  35.7489090  52.5210609
  24.5612984  35.2896118  53.0342979  23.5625610  35.6331902  53.7444611
  23.6442318  36.3616486  54.4392853  22.7275143  35.1118851  53.5185356
  24.4218426  34.2481537  52.2489510  25.2147560  34.1516418  51.6308289
  23.6630821  33.5895615  52.3521080  22.7891674  38.4658318  49.5803757
  21.8133659  39.2430305  49.5658722  22.9465370  37.2587929  49.0337296
  23.8439674  36.8041992  49.1235390  21.9115601  36.5613327  48.3073730
  20.9810658  36.6927071  48.8596611  21.7539444  37.1520958  47.4050102
  22.2283688  35.0829506  48.0655098  23.3984470  34.6932716  48.0544205
  21.2229366  34.2708931  47.7664452  20.2965202  34.6683655  47.7042198
  21.3149052  32.7669792  47.6028442  22.3418713  32.5797234  47.2891960
  21.2470570  32.1433945  49.0173149  21.7548656  31.1818256  49.0921745
  21.8809681  32.6939468  49.7124062  20.2195969  31.8772297  49.2654724
  20.4391327  32.2079201  46.5156212  19.3460217  32.7807655  46.2957077
  20.9011917  31.0585785  45.9244423  21.8542519  30.7528477  46.0597343
  20.1248970  30.2700500  44.9902115  19.0670204  30.1999092  45.2433472
  20.2277069  30.9411469  43.6168289  19.9822807  31.9925423  43.7666054
  21.5922222  31.0537262  42.9151878  22.4014454  31.2525005  43.6178703
  21.7502098  30.2182236  42.2332230  21.5473690  31.9033718  42.2338753
  19.3954620  30.3391609  42.6248512  19.2740498  31.0518456  41.9932327
  20.6047058  28.8531284  44.9215927  21.5669003  28.5165958  45.5705986
  19.8503246  28.0851059  44.0727921  19.0302944  28.4831543  43.6378098
  20.1834393  26.6788292  43.9289436  21.1654415  26.4010868  44.3118668
  19.1097641  25.8370266  44.7232628  19.2759914  24.7674503  44.5949135
  19.3247795  26.0703926  46.2559700  18.7917976  26.9547901  46.6050720
  18.8563042  25.3053131  46.8750687  20.3685169  26.1658249  46.5553055
  17.8036976  26.1153717  44.2630081  17.5892563  25.3512840  43.7228355
  20.0763550  26.2833233  42.4578247  19.3394985  26.8880825  41.6699142
  20.7923088  25.2498703  42.0025330  21.3843689  24.8218651  42.6999397
  20.6951580  24.5271282  40.7931519  19.9945469  25.0199013  40.1190453
  21.9643173  24.4483376  39.9611359  21.7219067  23.7625675  39.1493111
  22.3346329  25.8489075  39.4202309  22.9160423  26.3757343  40.1768837
  23.0062828  25.8215771  38.5621872  21.3961697  26.2805710  39.0723000
  23.1632881  23.8060665  40.6429672  23.2223454  24.2038116  41.6560898
  23.0277519  22.7248096  40.6677933  24.1438656  24.0152798  40.2154198
  20.1837406  23.0910072  40.9655113  20.5393581  22.4440498  41.9380836
  19.3393612  22.5942631  39.9925919  18.8755474  23.2555084  39.3861809
  18.8978157  21.2336292  40.0332489  18.6494789  20.8771210  41.0329170
  17.6711388  21.0006523  39.1405029  17.9337521  21.2003670  38.1016350
  17.4424934  19.9369030  39.2058029  16.4959278  21.8846092  39.4174385
  16.7815075  22.9329510  39.3306961  15.7757187  21.5757809  38.6597939
  15.7830677  21.6750259  40.7385483  15.5489874  20.4781494  41.1224174
  15.4371128  22.6877880  41.3405228  19.9946117  20.1685848  39.7522087
  19.8165512  19.1232033  40.3964653  21.0721111  20.3149223  38.9725800
  21.2377377  21.2412090  38.6056175  22.2695293  19.5062046  38.9538956
  22.3761787  19.0145092  39.9208298  22.0761566  18.4320774  37.9005585
  22.6890430  17.5715199  38.1687241  21.0455093  18.0973072  38.0180016
  22.3198147  18.8385525  36.4168816  21.9544411  19.8505001  36.2420540
  23.3991699  18.7511845  36.2924957  21.7227993  17.8752422  35.3686638
  21.7881088  18.2639866  34.3524399  22.3017464  16.9547520  35.4436684
  20.2539120  17.5655403  35.6472816  19.6122551  18.3248596  35.8256340
  19.6626034  16.4010811  35.7017822  20.3271122  15.2503662  35.4068680
  21.2499599  15.3115273  35.0010223  19.7782173  14.4231567  35.2210236
  18.3623276  16.3028889  35.8941154  17.8720341  17.1820641  35.9763527
  17.8967094  15.4120378  35.7956886  23.5960522  20.2917976  38.6514320
  23.5644550  21.4486275  38.1813393  24.7203197  19.6478348  38.6600876
  24.6736603  18.7557163  39.1313057  26.0346813  20.1595745  38.2857361
  26.0836697  21.2050743  38.5900993  27.0785828  19.3367081  39.0190887
  26.7916088  19.2478962  40.0668793  27.1084557  18.3686790  38.5189629
  28.5223484  19.9149590  38.8823967  28.5946636  21.1699524  39.0417633
  29.5036335  19.1847858  38.7071953  26.3010540  20.1875324  36.7811699
  26.9094410  19.3077488  36.1492996  25.8936653  21.3092651  36.1120415
  25.3127689  21.9902992  36.5798569  26.1562138  21.6901932  34.6875229
  27.0639076  21.1541748  34.4102554  25.0620193  21.1137409  33.7634888
  24.9249802  20.0895653  34.1104546  23.6445103  21.7840919  33.8746796
  23.7363281  22.8659935  33.7789612  23.0626564  21.5089588  32.9949913
  23.0807419  21.3744698  34.7128220  25.6479511  21.1606274  32.4702950
  26.5800285  20.9504414  32.5633202  26.4305801  23.1846313  34.5062370
  25.7857800  24.0211372  35.0889015  27.3294697  23.4941730  33.6098251
  27.8664589  22.7054768  33.2786102  27.5268612  24.9332333  33.0767860
  27.6860695  25.5464573  33.9637566  28.8426609  25.0936775  32.2289772
  29.1612110  26.1358509  32.2066383  29.5501251  24.4053020  32.6912880
  28.5301170  24.6926765  30.7644672  28.1288280  23.6923218  30.6021137
  27.8801880  25.4743538  30.3711796  29.7551479  24.8622208  29.8731976
  30.3302917  23.8211632  29.4186535  30.1580677  25.9946957  29.5452843
  26.2332458  25.5204601  32.4882011  25.9340782  26.6870899  32.6098938
  25.3976040  24.6424141  31.8870296  25.6045589  23.6566925  31.9620285
  24.0816917  24.9528255  31.4007587  24.1568928  25.8999901  30.8666019
  23.6179352  23.7933311  30.4672737  23.6113262  22.9093971  31.1050167
  22.5558529  23.9182777  30.2563953  24.4063511  23.5465603  29.2710342
  24.6473446  24.4250126  28.6724129  25.3888416  23.1287498  29.4906883
  23.6650391  22.6458302  28.3266335  23.9531612  21.4449863  28.2729816
  22.7190704  23.0671844  27.5819473  22.9901390  25.2135296  32.4957542
  21.8296738  25.4610672  32.2007980  23.3488522  25.2514591  33.7414207
  24.2787037  24.9529114  33.9990005  22.4991455  25.8191280  34.8335342
  21.6173763  26.3101425  34.4218445  21.9641056  24.6796741  35.6901588
  22.8102322  24.1496029  36.1274147  21.3736115  25.0399551  36.5325432
  21.0703907  23.7202415  34.8615379  21.2819271  23.5876846  33.8005104
  21.0396233  22.7770977  35.4071007  19.6067104  24.1538486  34.7562637
  19.3325710  25.3826160  34.6326141  18.6688423  23.3056946  34.6482201
  23.2823696  26.7937794  35.6981125  22.8266487  27.8668137  36.0073280
  24.4481659  26.4174862  36.1546669  24.7730293  25.5035038  35.8732452
  25.2015018  27.2382946  37.1492386  24.5601501  27.2222824  38.0304375
  26.5594254  26.5636730  37.4547348  27.0971642  26.4071922  36.5196114
  27.5147285  27.4434528  38.2526779  28.5296040  27.0558128  38.3413239
  27.5578823  28.4211273  37.7726898  27.2072620  27.6494083  39.2779350
  26.3845043  25.2822609  38.1957970  26.1191559  25.3858662  39.2479172
  25.6597462  24.6957893  37.6311073  27.6316185  24.4238052  38.1332054
  27.8103027  23.9614811  37.1624184  28.5163918  24.8791389  38.5781212
  27.4804420  23.5481300  38.7644272  25.3458405  28.7579155  36.7010612
  25.0540600  29.6739368  37.4654846  25.9778919  28.9319649  35.5277710
  26.0825348  28.1792793  34.8624763  26.3526173  30.2036076  34.9276237
  26.9194279  30.7230873  35.7002602  27.2011375  29.9042664  33.6237450
  26.5158119  29.3785553  32.9588737  27.4011765  30.8348808  33.0926666
  28.5319309  29.1086445  33.8285294  28.3635387  28.1575508  34.3336754
  29.3342190  28.8616428  32.5149612  28.6046085  28.4263840  31.8320923
  29.6575298  29.8260155  32.1230965  30.1882362  28.2011414  32.6649399
  29.5679550  29.8914852  34.6169281  29.1989059  29.9327335  35.6417274
  30.5007553  29.3281479  34.5916786  29.6907101  30.9012222  34.2251892
  25.1273689  31.0843353  34.6900940  25.2468014  32.2859497  34.9134254
  23.9555588  30.4707050  34.4133835  23.8801537  29.4640331  34.4453773
  22.7379761  31.3326187  34.3275795  22.9653320  32.3344040  33.9631081
  21.8072662  30.7019024  33.2791748  22.3596115  30.7418423  32.3403358
  21.7233086  29.6248608  33.4242134  20.5105267  31.4550533  33.1178703
  20.0114670  30.9316978  32.3023071  19.9965305  31.3559380  34.0739479
  20.8208599  32.8379402  32.5953789  21.2982883  33.1705589  31.4806499
  20.3692341  33.8458977  33.3553123  19.8441238  33.6882248  34.2035446
  20.4609680  34.8058128  33.0548820  22.0932884  31.5364132  35.7343330
  21.7122593  32.7386742  35.9283600  21.9749832  30.5733814  36.6795807
  22.2085800  29.6132851  36.4704285  21.4681396  30.8515320  38.0078926
  20.4816246  31.3094254  37.9355469  21.2624779  29.5439377  38.8584290
  22.0886574  28.8408051  38.7529106  21.2264996  29.8472843  39.9047508
  19.8542652  28.9240398  38.4827881  19.6493416  28.0686913  39.1265945
  19.0605679  29.6545277  38.6394234  19.5360527  28.4235573  37.1319771
  19.5804100  29.2602501  36.4347839  20.2689590  27.6806889  36.8171692
  18.1320400  27.8008060  37.1958733  18.3201847  26.9525414  37.8540115
  17.4799919  28.6223984  37.4923897  17.8007851  27.3608265  35.7786598
  18.3806000  26.6268253  35.3976631  16.8103924  27.1714611  35.7206612
  17.9603519  28.0817070  35.0894814  22.3731956  31.8437481  38.7396660
  21.8399868  32.7116890  39.5221138  23.6734238  31.8184242  38.5100555
  24.0443039  31.1109505  37.8919754  24.5079670  32.8061256  39.1794243
  24.2940407  32.8556099  40.2470818  25.9994793  32.4275703  39.0734673
  26.2599239  32.8460770  38.1012955  26.8104534  33.3239479  40.0462418
  26.6494064  34.4015198  40.0144653  26.7114086  32.9725227  41.0732689
  27.8652744  33.1983910  39.8019142  26.3028164  31.1228714  39.2580147
  25.7376308  30.5537338  38.7305222  24.3011627  34.2269325  38.5835609
  24.3971539  35.1528931  39.3690910  24.1509323  34.4467545  37.2201309
  24.2438488  33.5784264  36.7127113  23.8352966  35.7310333  36.5428886
  24.5236664  36.5186157  36.8494301  23.9057827  35.3833351  35.0242500
  24.7775192  34.7923317  34.7433739  23.1024113  34.6738853  34.8258209
  23.9120121  36.6930351  34.2652702  22.9159966  37.1148071  34.4000244
  24.7092533  37.3332939  34.6428642  24.1462841  36.4422684  32.7662354
  24.0908928  37.3962250  32.2418327  25.1902428  36.1296883  32.7896080
  23.1510239  35.4149399  32.0764771  23.1058979  34.5591965  32.7500954
  22.2033710  35.9525414  32.1088104  23.5527763  34.9777031  30.6990910
  22.7523441  34.7753868  30.1173058  23.9859409  35.7747421  30.2550144
  24.1645222  34.1788368  30.6114578  22.4507828  36.2430458  37.0253601
  22.3883686  37.4038811  37.4232521  21.4244175  35.4075623  37.0054703
  21.5645866  34.5068855  36.5704575  20.0608616  35.6827278  37.4078903
  19.6116505  36.3757286  36.6965065  19.3705521  34.3987122  37.1733856
  19.5629616  34.0252037  36.1676178  19.7963486  33.6896553  37.8833427
  17.8280869  34.5434074  37.2660217  17.6386185  35.2633820  38.0621605
  17.5689087  34.7948303  36.2375679  17.0990925  33.2668800  37.5959587
  17.6804695  32.2734795  38.0534019  15.8652744  33.1450233  37.2554550
  15.3915262  33.9096107  36.7960281  15.3279724  32.3177948  37.4724808
  20.0029163  36.2400856  38.8214149  19.2313633  37.1548309  39.0590897
  20.7942543  35.7718773  39.8069305  21.3169136  35.0047722  39.4088326
  20.9695759  36.2724953  41.1253510  19.9120789  36.2775955  41.3894920
  21.7995777  35.2966194  41.8903008  21.4102097  34.3008537  41.6782913
  22.8287811  35.4334335  41.5584564  21.7463951  35.4961433  43.4241638
  22.0837173  36.5141792  43.6188889  20.2935085  35.3993874  44.0199623
  19.5744190  35.9929504  43.4554291  20.0379734  34.3526039  44.1844063
  20.4376793  35.7802925  45.0310135  22.7289219  34.5330200  44.0914574
  23.7204380  34.4593163  43.6447296  22.8859291  35.0344543  45.0464478
  22.2229137  33.5676384  44.0813789  21.5081825  37.7418709  41.1766052
  21.0440044  38.6029968  41.9476204  22.5707798  38.0363235  40.3755417
  22.9127178  37.3766975  39.6913834  23.2779541  39.3787346  40.2798691
  23.3941441  39.6931114  41.3170624  24.6535759  39.2349815  39.6343536
  24.5040073  38.9246407  38.6002274  25.0388069  40.2468529  39.5085869
  25.5677471  38.3466721  40.4229584  24.9721012  37.4778137  40.7029495
  26.8124981  37.9050217  39.5654488  27.3851643  38.7917328  39.2935982
  27.4549294  37.2849274  40.1906395  26.4908276  37.2529335  38.7534065
  26.1255074  39.0279617  41.6892281  26.6381855  39.9358902  41.3715439
  25.3097076  39.3595848  42.3315697  26.6743107  38.3428764  42.3354263
  22.3813324  40.4017067  39.6336060  22.2459221  41.5174789  40.1510277
  21.7681999  40.0268135  38.5138206  21.8668537  39.0947189  38.1375694
  20.8683853  40.9875641  37.8443451  21.5362778  41.8138504  37.6008873
  20.2318726  40.3980789  36.5402718  20.1165333  39.3499031  36.8161812
  19.2725544  40.8474541  36.2836189  21.2459793  40.3815422  35.3727036
  21.6034012  41.3934708  35.1820526  22.1332703  39.8059883  35.6364517
  20.5156212  39.7917404  34.1794205  19.6735611  38.9100914  34.2989388
  20.7115269  40.2770348  33.0473938  19.7500839  41.5891914  38.7347412
  19.4480152  42.7431221  38.5555534  19.1980648  40.7667427  39.6758881
  19.3978500  39.7834015  39.5609093  18.2372761  41.1271782  40.7279243
  17.3982811  41.6375961  40.2549858  17.6219940  39.8405113  41.2676506
  17.1836548  39.3342896  40.4075928  18.4741554  39.2050629  41.5087509
  16.5378284  39.8598633  42.3533859  16.2732620  38.8618317  42.7027283
  16.8524933  40.3779793  43.2592812  15.3186417  40.6182594  41.8496170
  15.5122166  41.6834030  41.7227211  15.0658350  40.0349045  40.9642448
  14.2170668  40.5636292  42.9265022  14.1967354  39.5585442  43.3478050
  14.5249395  41.1181335  43.8129807  12.9408674  41.0983162  42.4492760
  13.1100845  42.0068588  42.0418282  12.5973797  40.4455681  41.7593193
  12.2390127  41.0720520  43.1750908  18.7167377  41.9130249  41.9592514
  17.9316120  42.7757645  42.3711700  19.8947201  41.6656227  42.4699440
  20.3461075  40.8237686  42.1418686  20.5604095  42.4649696  43.5063171
  19.9370995  42.5585670  44.3955994  21.8557415  41.6803665  43.9516869
  22.2337914  41.3100967  42.9987564  22.9098320  42.5728111  44.6573219
  23.6789112  41.9253845  45.0785866  23.3716602  43.2039223  43.8980370
  22.3879299  43.2437553  45.3396339  21.6708031  40.3676682  44.8066368
  21.3887615  40.6115494  45.8308792  20.8629265  39.8761978  44.2645149
  22.8724365  39.4153061  44.8916359  22.5057259  38.3958206  44.7721405
  23.4455605  39.5226288  43.9707069  23.3969593  39.4057846  45.8470879
  20.9519291  43.8705177  42.9758453  20.7129345  44.8849258  43.6638374
  21.3452148  43.8477020  41.7163048  21.6573124  42.9632721  41.3415031
  21.8217926  45.1175041  41.0532188  22.5073967  45.6385918  41.7214394
  22.5454750  44.7657089  39.7547150  21.8422604  44.1261520  39.2212753
  22.7510490  46.0349045  38.8852348  23.3157520  46.8569107  39.3251343
  23.0723057  45.7880211  37.8733368  21.8415279  46.6148071  38.7284279
  23.9099846  44.0906525  40.1142578  24.5900726  44.8264961  40.5433464
  23.7088470  43.3808594  40.9166489  24.5176144  43.3662987  38.8208504
  25.4334278  42.8077888  39.0144043  23.7844505  42.8149910  38.2320976
  25.0686569  43.9827271  38.1105919  20.6024246  46.0847397  40.8744087
  20.7105198  47.2920113  41.1567993  19.4055691  45.5938454  40.4842300
  19.4080372  44.6126938  40.2445717  18.1958752  46.4256516  40.3678856
  18.3824062  47.3669662  39.8509407  17.1902027  45.6520576  39.5269623
  17.5670090  45.4167976  38.5315857  16.9435883  44.8398132  40.2107277
  15.8072157  46.4832878  39.3414764  15.4867935  46.6230278  40.3739052
  16.0738716  47.3794518  38.7812233  14.8265715  45.7660408  38.3542747
  14.2110844  46.4275894  37.5332985  14.7465429  44.4561844  38.3539009
  17.6820488  46.7889366  41.7549248  17.3829956  47.9530296  41.9787025
  17.5740910  45.7637253  42.6432610  17.8882580  44.8610802  42.3167114
  17.0144539  45.9666824  44.0039253  16.0223045  46.3871460  43.8397293
  16.8600559  44.6737938  44.7281113  17.7894592  44.1512260  44.5017624
  16.8769245  44.8090477  45.8095589  15.6062765  43.8692322  44.3062935
  15.3847942  44.1371422  43.2732048  15.9587107  42.8411217  44.2233772
  14.2917023  44.0428619  45.0310631  13.5988894  43.0360489  45.1621361
  14.0693941  45.0881882  45.6368217  17.8611259  46.9495125  44.8813744
  17.2242584  47.6403351  45.6468048  19.1654663  47.1926651  44.5311966
  19.5779343  46.5472946  43.8728142  20.0602322  48.1575127  45.2598076
  19.4623375  48.6671829  46.0153618  21.2006073  47.3451500  45.8456764
  21.6927605  46.6541138  45.1613121  21.9773235  47.9818802  46.2692146
  20.6943169  46.4131813  47.0086975  20.6735382  46.8718109  48.1423607
  20.3442326  45.2377357  46.6835518  19.9531174  44.6708565  47.4223213
  20.4502010  45.0347557  45.6998520  20.5640717  49.3699493  44.4564095
  21.3047447  50.2469139  44.9713593  20.3356571  49.3699684  43.1167488
  19.6733875  48.6572037  42.8457031  20.8141842  50.3978195  42.1637840
  20.5290871  50.0435333  41.1731796  20.0974884  51.7440033  42.4618721
  20.5455532  52.2974396  43.2871284  20.2146091  52.4262505  41.6198959
  18.5951290  51.7156105  42.7539558  17.6973648  51.2280960  41.7832832
  17.9375381  50.7718658  40.9147949  16.4433861  51.3514977  42.2824135
  15.5989828  50.8514709  41.8314552  16.4807167  51.9236603  43.5124474
  15.6962500  51.9921379  44.1449203  17.8391743  52.1789589  43.8160400
  18.2048283  52.5285835  44.7702179  22.3500519  50.5489349  42.0206146
  22.9175854  51.6279564  41.8936539  22.9868221  49.4053650  42.0887032
  22.3408794  48.6304245  42.0404472  24.4337597  49.2480850  42.1865578
  24.8953838  49.9673805  42.8630333  24.6370602  47.8380470  42.7918167
  23.9578762  47.1604958  42.2743835  26.0468063  47.3499680  42.5721245
  26.8028126  48.0607681  42.9057693  26.1365376  46.4044342  43.1069260
  26.2326069  47.0882530  41.5304451  24.4315357  47.8262482  44.2241287
  25.0012379  48.5387993  44.5229759  25.0574150  49.4183311  40.8737907
  24.4130993  49.0125313  39.9212570  26.2431698  50.0586395  40.7351379
  26.7181892  50.6238823  41.4243126  27.0449238  49.8893356  39.5798187
  26.5277901  49.1950607  38.9175110  27.1655617  51.2241631  38.8348923
  27.7459869  50.9742317  37.9467812  26.1913414  51.6581230  38.6097832
  27.9750690  52.3171616  39.5789680  27.6348820  52.5141563  40.5956154
  28.9538345  51.8493538  39.6851540  28.1762886  53.5617523  38.6699905
  28.5799866  53.2933044  37.6937408  27.1579971  53.8872948  38.4573669
  28.8491173  54.7336807  39.3500290  28.2619534  54.8366432  40.2625771
  29.9057465  54.5798378  39.5690460  28.7347546  55.9877663  38.5771370
  29.2493877  55.9547806  37.7087097  27.7751827  56.2850761  38.4725685
  29.2702560  56.6660233  39.0999222  28.3651180  49.2469330  39.9531059
  28.8000660  49.3491287  41.0990372  29.1478214  48.6477966  39.0594559
  28.8180466  48.4329758  37.6516609  28.6809082  49.3824120  37.1341057
  28.0209656  47.7012253  37.5201225  29.9853420  47.8797035  36.9396667
  30.2984505  48.6463585  36.2309303  29.6306190  47.0025597  36.3984680
  31.0035229  47.4827766  37.9908867  31.9935284  47.9021606  37.8116951
  31.0565662  46.4002838  38.1070557  30.3867302  47.8835487  39.2860260
  30.1394215  47.0021400  39.8776817  31.4617729  48.7018814  40.0929222
  32.1589699  48.1190491  40.9833527  31.5990849  49.9635925  39.8241196
  31.1893139  50.3275681  38.9757614  32.5067596  50.8454514  40.5120773
  33.5331497  50.4787827  40.4987488  32.5549049  52.1787262  39.7148018
  32.6961746  52.0341682  38.6437035  31.6105766  52.7225075  39.6893044
  33.7012215  53.1447334  40.0813942  33.5671120  53.5964088  41.0643005
  34.6198387  52.5658340  39.9858932  33.9212074  54.3777237  39.1146049
  32.9329948  54.7285652  38.4352722  35.0062714  54.9928017  39.0718269
  32.1983261  51.0347481  42.0130348  33.0794411  51.5478973  42.6930199
  31.0080376  50.5629272  42.4885559  30.3906879  50.0629692  41.8648415
  30.5973492  50.6157188  43.8941345  30.9827061  51.5776825  44.2321129
  29.0249901  50.5916862  43.9905396  28.7295055  49.5698967  43.7523499
  28.7545891  50.7557564  45.0336494  28.1652145  51.5574989  43.1636848
  28.5657501  52.7130699  42.9449806  26.9604740  51.2594986  43.1101456
  31.1976452  49.4232903  44.6785507  31.5588512  49.6130104  45.8350487
  31.4113884  48.2838440  44.0471001  31.2534828  48.3290939  43.0505447
  31.8450851  47.0270996  44.7018204  31.1201820  46.8913002  45.5044250
  31.7668056  45.8034592  43.7810860  32.6387596  45.6631317  43.1422501
  31.8592587  44.5554695  44.6761665  32.8139305  44.4284592  45.1866455
  31.0407391  44.7134476  45.3784294  31.6152554  43.6475830  44.1245270
  30.3622093  45.7815971  43.0154648  30.3913383  46.5717545  42.2651939
  30.2505093  44.8207703  42.5130310  29.5945873  45.9558296  43.7694511
  33.2011719  47.1337280  45.3515549  34.1480141  47.5325546  44.6664581
  33.3960304  46.8382301  46.6222725  32.6085930  46.4224625  47.0989075
  34.6897621  46.8885345  47.3188667  35.3901443  47.4874191  46.7367134
  34.5430260  47.4553757  48.7305984  33.7680511  47.0568771  49.3853569
  35.8873138  47.5097084  49.5026932  36.3266144  46.5147476  49.5746193
  36.5531235  48.1730804  48.9506569  35.8382454  47.9412651  50.5024223
  34.1299095  48.8839035  48.5090790  34.1717262  49.3766632  49.4804420
  34.8869781  49.3880539  47.9084320  33.1494179  48.9925728  48.0454788
  35.2663956  45.5198746  47.2354813  36.4464989  45.3968658  46.9049721
  34.5587044  44.4437218  47.5362320  33.6300621  44.6967201  47.8423576
  34.9638824  43.0173187  47.6148796  35.7205849  42.8533249  46.8476715
  35.4303207  42.7346420  49.0405426  36.3559990  43.2630157  49.2686653
  34.7185669  43.1458740  49.7563629  35.7481270  41.2696686  49.4216728
  35.5128479  40.5657501  48.6234016  36.8038597  41.2581215  49.6925926
  35.0004845  40.8911095  50.6600952  35.4384308  40.8930626  51.7770157
  33.7392197  40.6227150  50.4834862  33.2697105  40.4136772  51.3529472
  33.2529030  40.5837898  49.5991287  33.7636986  42.1536903  47.2163544
  32.6771584  42.3198051  47.7995720  33.9882736  41.1457939  46.4368248
  34.8476830  41.0707550  45.9115791  32.9496117  40.1562538  46.3088760
  32.2330856  40.1292038  47.1298256  32.2291260  40.4768486  44.9594040
  31.8379459  41.4938164  44.9886742  32.8523827  40.4509773  44.0655441
  31.0144157  39.5578537  44.6676712  31.3611603  38.6196404  44.2345123
  30.7580280  39.2742500  45.6884232  29.6358280  40.3887749  43.7922935
  30.0176373  39.7380867  42.1633606  30.9662170  40.1214333  41.7874107
  29.9615898  38.6495590  42.1552238  29.3158436  40.2451210  41.5011635
  33.4465523  38.7194061  46.4821434  34.5193062  38.3918343  45.9295387
  32.7158813  37.8818550  47.2707214  31.8664284  38.2592087  47.6658516
  32.9050064  36.3985138  47.3849792  33.8174210  36.1064644  46.8650742
  33.1264420  35.9919815  48.9520874  32.1526489  35.7416382  49.3729782
  33.6314888  35.0287895  48.8793831  33.9259186  36.8738670  49.9154854
  33.3068962  37.7634735  50.0317192  33.9131355  36.3176270  51.3446693
  34.5215836  35.4222870  51.4721603  34.0756836  37.1831703  51.9869423
  32.8854332  35.9758987  51.4677544  35.4030495  37.0341492  49.5824776
  36.0648346  36.1685867  49.6130714  35.6047897  37.5475998  48.6423912
  35.8361282  37.8133659  50.2096786  31.6705437  35.5986443  46.7457962
  30.5694332  36.0952492  46.8731232  31.8398781  34.3570557  46.2246208
  32.7702446  34.0359077  45.9979401  30.7282143  33.4810677  45.7569504
  29.8148441  33.9967575  46.0534554  30.6129780  33.3246040  44.1623650
  31.6263580  33.2159882  43.7758865  30.1044884  32.3783875  43.9773788
  29.7727795  34.3213768  43.4370651  28.7570724  34.3553238  43.8311424
  30.3797283  35.7541809  43.4243584  29.7095509  36.3280373  42.7843094
  30.3100357  36.1676025  44.4305038  31.4092064  35.7530556  43.0662079
  29.5814724  33.9025726  41.9467621  28.9789505  34.6641922  41.4517860
  30.5796967  33.9329720  41.5100403  29.1624088  32.8973961  41.9008293
  30.8818855  32.1559830  46.4665604  31.8415871  31.4528580  46.2594986
  29.8738537  31.7181702  47.2525749  29.0552845  32.3012962  47.1525421
  29.6907749  30.4171028  47.8410263  30.6043797  30.1490307  48.3716545
  28.6133099  30.4229259  48.9498672  27.6815720  30.5886688  48.4090385
  28.5469685  29.4188595  49.3688545  28.7999859  31.3046722  50.0249825
  28.6275749  30.7961674  50.8207855  29.3342762  29.3359756  46.8512459
  28.4930458  29.5550423  45.9610176  29.7274342  28.1122875  47.0102158
  30.5564079  27.9858761  47.5731735  29.2355366  26.9458046  46.2866440
  28.1873951  27.1656570  46.0837479  29.9088249  26.7702961  44.9147568
  30.9882946  26.9066029  44.9800987  29.8352489  25.7383595  44.5715485
  29.3965969  27.4248028  44.2095337  29.1886921  25.7062702  47.1445732
  30.1932907  25.4293747  47.8840141  28.1637726  24.8626251  47.1779404
  27.3544464  25.0878983  46.6172752  28.1592293  23.6371422  48.0495949
  28.4982395  23.9448986  49.0387688  26.7195263  23.1004353  48.3129196
  26.7837219  22.1108494  48.7653580  25.7956810  24.0691833  49.1006546
  24.8078823  23.6086617  49.0840988  26.2114487  24.1684895  50.1033401
  25.7266846  25.0902157  48.7253761  25.9944916  22.9968147  47.1111107
  25.8285980  22.0516949  47.0823822  28.9763317  22.5028648  47.4269028
  29.1958370  22.5731163  46.2212715  29.5126534  21.5282955  48.1892776
  29.5007610  21.4956512  49.6356926  28.5617714  21.0645580  49.9829063
  29.6399612  22.4786625  50.0856018  30.7061825  20.6271915  49.9010963
  30.8418026  20.2575302  50.9174919  31.6552353  21.1113472  49.6708984
  30.5743237  19.4700050  48.8828697  29.7274666  18.8034496  49.0460854
  31.4664192  18.8619156  48.7328911  30.3359070  20.3804684  47.6763802
  31.3067398  20.7911224  47.3989830  29.7014027  19.5027905  46.5547218
  30.4135361  18.6186466  46.0827904  28.3924809  19.7366314  46.1469116
  27.8684292  20.4712963  46.6004982  27.7861996  19.0099621  45.0517883
  27.8656731  17.9366398  45.2243156  26.2708950  19.3328571  45.0583534
  26.1094952  20.3317528  44.6530685  25.7771397  18.6532822  44.3637428
  25.5662270  19.3236885  46.3866425  25.8058910  20.2292690  47.2364120
  24.6356678  18.5290051  46.5912361  28.3729954  19.3797302  43.7104073
  28.3272705  18.5863132  42.7441330  28.8422146  20.6667728  43.5633965
  29.1654091  21.2425346  44.3276863  29.0365772  21.1743774  42.2082596
  28.5853901  20.4623718  41.5171814  28.3966942  22.5844154  42.2254028
  29.0787373  23.1905212  42.8216858  28.3125076  22.9387550  41.1980476
  26.8738346  22.7188835  42.7059822  26.5937099  22.2486267  43.6485863
  26.3617935  24.1295033  42.6688538  25.2720337  24.1067085  42.6705246
  26.8727188  24.6942768  43.4486542  26.6743031  24.6621933  41.7707024
  26.0279293  21.9453411  41.6654549  24.9633999  22.1516037  41.7765007
  26.1565914  22.2815800  40.6366234  26.1830921  20.8664684  41.6733589
  30.5668278  21.2580891  41.9443245  31.3824749  21.5734558  42.8001976
  30.9049892  20.8709793  40.6819611  30.1613178  20.6124611  40.0493279
  32.2814255  20.7837086  40.0491257  32.9681282  21.3811588  40.6487885
  32.6663170  19.2980995  40.1185646  32.0846252  18.6650066  39.4485435
  33.6797562  19.1560822  39.7432327  32.5682602  18.7326412  41.5032425
  33.3337708  19.1763935  42.6304512  34.0422287  19.8943958  42.5788918
  32.8138733  18.6578178  43.7690811  33.0591850  18.8297691  44.8067017
  31.6755238  18.0100212  43.4227638  31.0419559  17.5914955  44.0887413
  31.5233078  18.1064205  42.0756569  30.6010628  17.7986259  41.6054192
  32.3921204  21.2081108  38.5730362  33.4746933  21.2284679  38.0340576
  31.3335571  21.4200954  37.8561783  30.4286804  21.3350296  38.2967033
  31.2997932  21.6283569  36.4234962  31.8188076  20.7552586  36.0279961
  29.8636017  21.6092281  35.9672508  29.4449539  20.6984386  36.3953781
  29.1995697  22.4011841  36.3136101  29.7608795  21.5821953  34.8824348
  32.0583420  22.8609085  35.8977852  32.7931175  22.7225838  34.9262810
  32.1268806  23.8834820  36.6771889  31.5926418  23.9304638  37.5330391
  32.7098274  25.1361408  36.2434425  33.6877365  24.8606758  35.8485870
  31.8083019  25.8279781  35.2278137  31.4520359  25.0700855  34.5301170
  30.5577450  26.4973030  35.7651978  30.0069885  25.8520260  36.4495773
  30.8628044  27.3555832  36.3638611  29.9128075  26.8053207  34.9422264
  32.5810471  26.8969116  34.3745193  33.4661560  26.4291248  33.9434204
  31.8790607  27.2520905  33.6200905  33.0517006  27.7543678  34.8555145
  32.8909645  26.0202770  37.4846077  32.2235680  25.7372894  38.4751778
  33.7237473  27.1004448  37.3493004  34.3142586  27.2750702  36.5487366
  33.5863495  28.1810951  38.3548126  33.4019394  27.6658974  39.2975006
  34.8451347  29.0241470  38.5053368  35.0944099  29.3451977  37.4939575
  34.7659149  29.8891869  39.1637688  36.0026894  28.2889214  39.0294762
  36.2228012  28.3211403  40.4315872  35.5263824  28.8092937  41.0972481
  37.2208519  27.5323811  41.0554886  37.3108330  27.6165733  42.1284370
  38.1565361  26.7957535  40.2684593  38.9671211  26.2214813  40.6922073
  37.9651413  26.8986454  38.8685341  38.7236557  26.4284286  38.2602997
  36.9509964  27.5997372  38.2456360  36.8614044  27.6229439  37.1696091
  32.3394814  29.0616035  38.1022949  32.3834152  29.6951866  37.0494881
  31.4474964  29.3323021  39.0016518  31.3448486  28.7167225  40.2951965
  32.0420341  29.2359276  40.9528160  31.5813637  27.6528034  40.2798119
  29.8677464  28.8242207  40.7059746  29.6583385  29.0341282  41.7548752
  29.3829288  27.9587593  40.2542839  29.4263172  30.1055641  39.9420891
  29.4125996  30.9534950  40.6268692  28.4113941  30.0291958  39.5519600
  30.3096104  30.2442379  38.7320137  29.8171635  29.7748528  37.8803825
  30.7204876  31.7204208  38.4764900  30.0183182  32.5030785  37.9147835
  31.8969765  32.0981178  38.9954033  32.4765778  31.4196968  39.4685860
  32.5350876  33.4326744  38.8567123  31.8961239  34.2115784  39.2728081
  33.8537941  33.5908928  39.5907745  33.8294563  33.4270859  40.6681213
  34.6360321  32.8825874  39.3178062  34.2880669  34.5860939  39.4954681
  32.7577171  33.8706551  37.3787384  32.6739273  35.0529861  37.1404037
  32.9144173  32.9431915  36.4465714  33.0473671  31.9743347  36.6990433
  32.8953018  33.1819496  35.0179558  33.7468185  33.8289223  34.8071365
  32.9831886  31.8425198  34.2614594  33.8671036  31.3195992  34.6266212
  32.1244354  31.2411785  34.5598526  33.0877991  31.9138966  32.7416458
  32.2928467  32.5125160  32.2968941  34.0052757  32.4116783  32.4277115
  32.9773750  30.4519253  32.1121368  32.0183372  30.0169544  32.3934593
  33.0372162  30.4752655  31.0240307  34.0643692  29.4047279  32.5293159
  34.2122459  29.3492031  33.6078110  33.7045975  28.4433880  32.1625900
  35.3829231  29.8097477  32.0041924  35.3363495  30.0851955  31.0335960
  35.8343773  30.4921398  32.5963364  36.0567207  29.0573654  32.0079880
  31.6611195  34.0358849  34.5152206  31.7488060  34.9200020  33.6691399
  30.4704609  33.7677460  35.1277695  30.4829617  33.1240196  35.9059448
  29.2134953  34.4254723  34.8221321  28.9527740  34.3421440  33.7670593
  28.1436348  33.5318298  35.5014267  28.1179829  33.5500641  36.5909767
  27.1474571  33.7678566  35.1272316  28.4389305  32.5302162  35.1889038
  29.0158978  35.8906822  35.2404404  28.2457981  36.5377312  34.5905571
  29.7603531  36.4174576  36.1848412  30.4515305  35.8169556  36.6111908
  29.9092121  37.8945961  36.4973297  28.9046326  38.2839813  36.6625710
  30.7635460  38.0782394  37.7889328  31.7744293  37.6999969  37.6367874
  30.7804413  39.4852562  38.3095474  29.7341671  39.7680779  38.4254112
  31.4784431  39.6614647  39.1279869  31.2867184  40.0327721  37.5145569
  30.3249187  37.1377525  38.9385681  30.8930359  37.1573029  39.8686028
  29.3529510  37.4263115  39.3387070  30.2888126  36.1360435  38.5103569
  30.4391823  38.6391144  35.2849197  29.8809872  39.7013664  34.9901505
  31.4214268  38.1102524  34.5276718  31.7842216  37.1935463  34.7470665
  31.9904842  38.7216072  33.3085747  32.1259537  39.7562256  33.6237183
  33.2789879  38.1001472  32.9858284  33.1577187  37.0848312  32.6082954
  33.7516403  38.7074089  32.2138596  34.2669830  38.0967293  34.1937065
  34.2146797  39.0488739  34.7217102  34.0350571  37.3199997  34.9224014
  35.6898308  37.8561325  33.6876717  35.7666702  36.8998375  33.1702766
  35.8137016  38.6936569  33.0011520  36.5967293  37.8524857  34.8303452
  36.3281441  38.4010887  35.6347046  37.6396027  37.0694695  35.0074615
  37.9816055  36.1006584  34.2283325  37.5147629  36.0551872  33.3338547
  38.7480354  35.5009117  34.4984932  38.2156487  37.1705437  36.1564674
  38.9158821  36.5079575  36.4577179  38.2287636  38.0883331  36.5778809
  31.0755558  38.7854729  32.1023521  31.4109287  39.4918823  31.1748085
  29.9900341  38.0033493  32.1494865  29.8935986  37.4155579  32.9651451
  28.8416462  38.2433357  31.2614613  29.2794418  38.1366615  30.2689629
  27.7932968  37.1937370  31.4793892  27.4034042  37.4041138  32.4752922
  26.9322014  37.3052444  30.8204632  28.2768517  35.7372665  31.4424362
  29.2181282  35.6733551  31.9883423  27.5053730  35.0686646  31.8244057
  28.6576347  35.4044418  29.9892349  29.5922737  34.6029434  29.8554211
  28.1376686  35.9451027  29.0157719  28.1355934  39.6554451  31.4500923
  27.5925293  40.1652260  30.4191761  28.0654640  40.2373848  32.6324120
  28.5292988  39.8606567  33.4466782  27.5850086  41.5637589  32.8361549
  26.7502213  41.7679100  32.1656685  27.1405163  41.8669968  34.2467003
  28.0029392  41.7744904  34.9068298  26.7104855  42.8682022  34.2742767
  25.9959011  40.9049530  34.7324028  26.2309570  39.8579407  34.5410194
  25.6635151  41.0235176  36.2564774  25.1800804  41.9999542  36.2874641
  24.9775887  40.2116432  36.4982796  26.6189327  40.9975586  36.7805023
  24.6809750  41.0074844  33.9831963  24.7478104  40.8749428  32.9033508
  23.9615955  40.2680054  34.3349953  24.2597580  42.0091133  34.0693245
  28.6554413  42.5728836  32.3826408  29.8668766  42.3744507  32.4505005
  28.2514076  43.6633263  31.6663055  27.2657814  43.8620720  31.5707073
  29.2030449  44.6097260  30.9536381  29.9198227  43.8709297  30.5951519
  28.5895462  45.4888496  29.8610630  28.0578022  46.3621025  30.2389240
  29.3787060  45.8738594  29.2152328  27.6937485  44.6245155  29.1146679
  26.9159107  45.1222420  28.8522968  30.0373211  45.5093956  31.9057312
  29.5197926  46.1150360  32.8856735  31.3576927  45.5600014  31.6202850
  31.7771187  45.1702499  30.7882519  32.1719360  46.2873268  32.5926743
  33.0890198  46.5552635  32.0680237  31.6938324  47.1818581  32.9918442
  32.4733772  45.4371872  33.9105492  33.4510880  45.7482796  34.5589447
  31.6840057  44.3643837  34.2253456  30.8786659  44.0886574  33.6817436
  31.9359875  43.5954132  35.4422493  32.0907211  44.3071518  36.2531662
  30.7170258  42.7450790  35.8228111  30.4956551  42.1713791  34.9228325
  31.1434574  42.0964928  36.5880547  29.5205688  43.4266090  36.3850899
  28.7443199  44.3765297  35.7674599  28.8126965  44.6426735  34.7230034
  27.8105297  44.8035927  36.6226921  26.9366837  45.2258339  36.3430405
  28.0362339  44.3628578  37.9054832  27.4671555  44.6944733  39.1757126
  26.8706474  45.5886307  39.2809029  28.0062885  44.0160942  40.3005867
  27.6817894  44.2484779  41.3041306  28.9096127  43.0086594  40.1403198
  29.3234653  42.4840088  40.9887695  29.4499073  42.7206421  38.9105721
  30.2618656  42.0270386  38.7492142  29.0742912  43.4405670  37.7529831
  33.2547112  42.7101135  35.4582710  33.5496330  42.0775032  36.4627533
  34.0471573  42.7714386  34.3366394  33.6172943  43.0984230  33.4831772
  35.4427452  42.2679443  34.3095741  35.5071144  41.2578735  34.7141953
  35.7808609  42.2876129  32.8240166  36.7710876  41.8535995  32.6855392
  35.0974121  41.6447678  32.2692680  35.7846870  43.7171898  32.2456093
  34.8015747  44.1771622  32.3456879  36.3733025  44.3218155  32.9355774
  36.3975601  43.8498154  30.8867722  37.0706291  43.0294418  30.3140678
  36.2788849  45.0012779  30.3147812  35.8520813  45.8764725  30.5830498
  36.7540970  45.0041008  29.4235630  36.4090996  43.0524940  35.2160263
  37.4981575  42.6362991  35.6205215  35.9410515  44.2139244  35.6475334
  35.0468712  44.5444984  35.3139763  36.7064362  45.0878677  36.5612946
  37.7306252  44.7371140  36.6882401  36.6931801  46.5665054  36.0501251
  35.6612549  46.9088974  36.1275826  37.2639313  47.2087059  36.7208824
  37.1109695  46.9369240  34.6175690  38.1324883  46.2594528  33.9639854
  38.7539673  45.6022530  34.5541115  38.4601250  46.6708107  32.6735878
  39.3841248  46.3071136  32.2489052  37.8464813  47.7641411  32.0580902
  38.0770569  48.1702385  30.7673779  38.6195259  47.6209106  30.1967945
  36.8502502  48.4407272  32.7635231  36.3291168  49.2706413  32.3095818
  36.4882317  48.0543747  34.0577049  35.7067642  48.6165390  34.5472755
  36.2832718  45.0155449  38.0621185  36.9287415  45.6768494  38.8514938
  35.3969688  44.1923103  38.4199066  34.9061584  43.6427994  37.7290764
  34.9520531  43.9506035  39.8254585  35.0569267  44.9170113  40.3185616
  33.5104408  43.5064926  39.9491348  33.4127846  42.8346596  39.0963707
  33.0009117  42.7744217  41.1592140  32.0821800  42.2095680  41.0011444
  33.6551094  41.9149017  41.3053131  32.8754501  43.4265518  42.0235519
  32.5444679  44.6506615  39.7106514  32.4882164  45.3389587  40.5539665
  32.8009300  45.2000427  38.8048325  31.5202885  44.3235664  39.5312767
  35.8518600  42.8256798  40.2695808  35.8583832  41.8111839  39.5824623
  36.5585785  42.9692154  41.4035912  36.6315002  44.2211075  42.2250404
  35.6202698  44.6190605  42.3095665  37.2776031  44.9719772  41.7702446
  37.2153893  43.8578644  43.5367165  36.4196434  43.7327614  44.2710457
  37.8109970  44.6564789  43.9789429  37.9453201  42.5196877  43.2569771
  37.9344482  41.8802948  44.1396751  38.9741554  42.6956749  42.9429283
  37.0641365  41.8834991  42.1581917  37.6791916  41.2865677  41.4847832
  36.1522942  40.8326035  42.7398643  35.3582458  41.0347328  43.6356850
  36.3981247  39.5601959  42.2058945  37.0814056  39.2993851  41.5093307
  35.6961174  38.3556862  42.7598648  35.1187286  38.7830009  43.5797005
  34.7424660  37.7229195  41.6587067  34.7290649  36.6560097  41.8814735
  33.3754425  38.3351250  41.5752907  32.8746643  38.1371880  40.6275902
  32.7063866  37.8509903  42.2866821  33.4925613  39.4175606  41.6274376
  35.2493439  37.7585182  40.2023621  34.6113358  37.1589775  39.5530586
  35.3382111  38.8039932  39.9070854  36.2342529  37.3286476  40.0199547
  36.5792580  37.2420616  43.3382072  37.7854233  37.2998810  43.1750221
  35.9428215  36.2891579  44.0891495  34.9878426  36.4085960  44.3955040
  36.5339966  35.0346870  44.4390831  37.0102501  34.6592407  43.5333672
  37.5292320  35.2289925  45.5867691  38.3081932  35.9668045  45.3945389
  36.9409714  35.5996552  46.9472809  36.2775116  34.8077736  47.2948990
  37.7451401  35.8959084  47.6208115  36.3661003  36.4951744  46.7113075
  38.2042427  33.9877396  45.7641182  37.6294861  33.4624786  46.3256836
  35.4460754  33.9789276  44.7140198  34.5035667  34.3092194  45.4096565
  35.5367737  32.8007736  44.1620293  36.1939964  32.6237335  43.4158325
  34.7269516  31.6670685  44.5568657  33.6681137  31.9258308  44.5593300
  34.9198723  30.6693401  43.4402161  35.8762589  30.8028069  42.9346390
  34.8950005  29.6974201  43.9330177  33.6266174  30.9769726  42.1907539
  32.6163521  30.6252956  42.9911232  35.2422333  31.1454124  45.8577080
  36.4619255  31.2763634  46.1052971  34.4110680  30.5211048  46.6312065
  33.4014130  30.5237694  46.6048851  34.8162537  29.7792549  47.8635750
  35.8692017  29.5319691  47.7284966  34.7277641  30.7139301  49.0325890
  35.2376289  30.2759724  49.8906898  35.2747993  31.5979347  48.7048950
  33.3192444  31.2330837  49.4403496  32.8300705  31.6622601  48.5659256
  32.6448212  30.4516182  49.7904396  33.3830490  32.6268806  50.5716629
  31.6397114  32.7777328  50.9751358  31.3582439  31.9077625  51.5684509
  31.4198513  33.7255669  51.4664345  31.0362549  32.7401695  50.0682068
  33.9028244  28.5517330  47.9422836  32.7278214  28.6838074  47.8665352
  34.4523811  27.4263535  48.3558350  35.4449120  27.2695274  48.4577408
  33.6690407  26.2208157  48.6893272  32.9494209  26.0494080  47.8887787
  34.5972939  25.0112953  48.8714409  35.2403641  24.9856815  47.9917183
  35.3160934  25.1844139  49.6723480  33.7226982  23.7138691  49.1488075
  32.7159538  23.9826813  49.4686546  33.5098343  23.1651783  48.2313499
  34.4049072  22.7153950  50.0796318  35.4147377  22.0918694  49.7776985
  33.7884407  22.4475842  51.1861954  34.2299728  21.7363033  51.7511978
  32.8306465  22.7483063  51.2970772  32.9306602  26.4690056  50.0392113
  33.4901428  26.9642467  51.0405769  31.6612206  26.1682415  50.1322670
  31.2614498  25.6608982  49.3558083  30.7606297  26.1746368  51.3238449
  30.9145832  27.0429382  51.9645081  29.2656441  26.3333473  50.8320160
  29.1495724  27.3033352  50.3485374  29.1158886  25.5142727  50.1286049
  28.3573074  26.2208424  52.0340691  28.0395527  25.1843987  52.1477165
  28.9400101  26.6421223  52.8532639  27.0371609  26.9975891  51.8657303
  26.8553219  28.0119877  52.6123505  26.0849438  26.5637970  51.1461220
  30.9393291  24.8103504  52.0991135  31.3925858  23.8348236  51.5020561
  30.6307259  24.6888256  53.4180336  30.3086491  25.4897728  53.9422913
  30.7818069  23.4794464  54.1915359  31.7366962  23.0386372  53.9052277
  30.8976345  23.9468498  55.7004890  31.1191711  23.0808697  56.3242683
  31.8184376  24.5097485  55.8533440  29.6934719  24.7342548  56.1998672
  29.4082623  25.5424957  55.5264435  28.7338600  24.2173443  56.2076645
  29.8362198  25.4833088  57.8179855  30.1333618  23.9747696  58.9494858
  29.2187328  23.3891335  59.0421295  30.9435101  23.3544598  58.5661049
  30.4096737  24.4168911  59.9067116  29.6526451  22.4375286  53.9816284
  28.6035767  22.8482323  53.4469223  29.8289509  21.2082996  54.3973885
  30.6860504  20.8627644  54.8049240  28.7227745  20.2783203  54.3158417
  27.9224949  20.6197987  53.6592941  29.1302319  18.9644794  53.7276726
  29.1111584  19.0507965  52.6412659  30.1929340  18.8153286  53.9187698
  28.2710609  17.7515011  54.0694199  28.8128567  16.6816406  54.4844818
  27.0341015  17.7479038  53.7398834  28.1324406  20.2378807  55.6857948
  28.7163200  19.7605934  56.6102638  26.8909664  20.7497063  55.8615837
  26.5040951  21.1473923  55.0176201  26.0534420  20.7421799  57.0630913
  26.6170406  20.2534199  57.8578072  25.6478996  22.1932964  57.3517075
  25.3059921  22.5667000  56.3864250  24.4475365  22.4135590  58.2339096
  24.6770821  22.0533199  59.2367210  24.1482677  23.4369984  58.4599953
  23.5382195  21.8973026  57.9261436  26.8143406  23.0346336  57.9809456
  27.7107277  22.8844585  57.3792496  26.6163216  24.1025791  58.0724945
  26.9994640  22.7118988  59.0054817  24.8537693  19.8301373  56.9805794
  24.1275845  19.5493050  55.9901810  24.5478687  19.2904148  58.1638069
  25.2318497  19.3954868  58.8994904  23.3669376  18.4143944  58.3902359
  23.4257774  17.7168331  57.5547447  23.5025272  17.6813831  59.7406006
  23.2461014  18.4315262  60.4886932  22.6338234  16.4245758  59.8697319
  22.8456440  15.7439585  59.0451202  22.8066616  15.8763542  60.7958450
  21.5780087  16.6856880  59.9416618  24.7484646  17.1987705  60.0791512
  24.7266350  16.9658470  61.0102081  22.0248070  19.1937504  58.2916489
  21.9727650  20.3149014  58.7948341  21.1304474  18.7197075  57.4213600
  21.1873474  17.8217964  56.9624290  19.9652691  19.5338840  56.9678917
  19.3167496  18.9185963  56.3442421  19.3394241  19.7759113  57.8268661
  20.3338299  20.7700958  56.1133308  19.3391819  21.5146694  55.8746605
  21.5713482  21.0093021  55.6293716  22.3405170  20.3698540  55.7693100
  21.9075680  22.1738224  54.7553215  21.4859695  23.0045166  55.3212738
  22.9493771  22.4718285  54.6372871  21.2367821  22.2174664  53.4069138
  20.9208298  21.1475391  52.8873253  21.0566807  23.3674259  52.8005295
  21.1270199  24.2334194  53.3155212  20.5280495  23.4539452  51.4909439
  19.6748734  22.7758808  51.5114136  20.0517254  24.8636703  51.3637505
  19.4718838  25.0572796  52.2661934  20.9481697  25.4837112  51.3701820
  19.2397766  25.1792355  50.0975456  19.8461819  24.9595280  49.2188530
  17.9136238  24.4858322  50.1310577  18.0813446  23.4208241  50.2914352
  17.3044548  24.9951744  50.8777733  17.4419727  24.5668831  49.1517334
  18.8206139  26.6743240  50.0923424  18.5899982  26.9662209  51.1169014
  19.6823196  27.2227898  49.7118797  17.9053135  26.8181877  49.5182114
  21.4661083  23.0485554  50.3217773  22.5830669  23.4286213  50.1894188
  21.0029030  21.9947109  49.6138077  20.0647793  21.7039280  49.8493271
  21.8619633  21.2233105  48.6880417  22.8927593  21.2239628  49.0423889
  21.3735027  19.8265419  48.5231857  20.2847157  19.7952099  48.5639496
  21.6344452  19.3425159  47.5820541  21.8989334  18.9401741  49.6834984
  21.6506214  19.4044647  50.6378975  21.2953053  18.0366173  49.7690315
  23.3190174  18.5140381  49.5944824  23.4366055  17.8501568  48.7380180
  23.9016113  19.4048977  49.3598480  23.9661942  17.8664112  50.8081322
  25.0200100  17.7311993  50.5646286  23.9124584  18.5934010  51.6185036
  23.4167824  16.5816097  51.2139053  23.2027302  16.0352993  50.3918190
  23.9766674  16.0650997  51.8771172  22.5060883  16.7943840  51.5952988
  21.8670578  22.0270386  47.3745193  20.9712315  22.7051697  46.9623985
  23.0200005  21.8427429  46.6653976  23.7693119  21.3333759  47.1116905
  23.3891182  22.3485394  45.3538513  24.4158211  22.1890278  45.0244026
  22.5419960  21.6422653  44.3029366  21.4692783  21.8355904  44.3032990
  22.8830109  21.9458466  43.3131676  22.5886650  20.1140633  44.4630928
  23.6193829  19.8703842  44.2055244  22.2095871  19.6542664  45.3757744
  21.6883507  19.5368214  43.2649651  20.6299667  19.7109241  43.4589119
  21.9311085  19.9263878  42.2763252  21.9116344  18.0154991  43.2870483
  22.9584160  17.8528519  43.0303459  21.8078213  17.6566868  44.3110466
  21.0468311  17.3674202  42.3008537  21.2288609  16.3739910  42.2924652
  20.0873203  17.4691219  42.5993423  21.0182381  17.8202400  41.3985023
  23.2942448  23.9004135  45.3148689  22.7170162  24.4523468  44.3601646
  23.6164913  24.5997009  46.3697548  24.1891422  24.1483917  47.0686760
  23.3470783  26.0455627  46.5958023  22.5423717  26.3596344  45.9310455
  22.8689804  26.1842785  48.0901604  22.0635872  25.4945354  48.3425446
  23.6936264  26.0194111  48.7836151  22.4015732  27.8882866  48.4512978
  21.3031120  27.8583374  47.6914444  24.6344070  26.8972874  46.1651649
  25.7761650  26.5549831  46.4264145  24.2911739  28.0852871  45.6626129
  23.3033733  28.1765347  45.4728127  25.1830215  29.1444244  45.2280502
  26.2415848  28.9137154  45.3476906  24.9641552  29.2811279  43.6984406
  23.8884907  29.3342819  43.5304527  25.5660362  30.6095066  43.0432053
  26.6532879  30.6050282  43.1204834  25.2383823  30.7706413  42.0161819
  25.1782856  31.4994831  43.5388794  25.5024796  28.0281391  43.0070534
  26.5824356  27.9129505  43.0993958  25.0311394  27.1982174  43.5335197
  25.3135872  27.9714699  41.4806709  25.4169369  26.9629974  41.0801620
  24.3278828  28.3612633  41.2266045  26.0444450  28.6791115  41.0892715
  24.7854824  30.4769135  45.9601517  23.6735878  30.9528313  45.7765160
  25.7687225  31.0103073  46.6946259  26.7061348  30.6343307  46.6951447
  25.5620174  32.3519669  47.3789024  24.5508881  32.7373886  47.2478828
  25.6201286  32.2369385  48.9234123  26.6704960  32.3690529  49.1829758
  25.0579033  33.0718040  49.3417549  25.0051212  30.9290123  49.4953461
  23.9785767  30.8062820  49.1500282  25.5771008  30.1258411  49.0307426
  25.1321907  30.9793625  51.0165062  26.1437473  31.2521324  51.3172569
  24.3755989  31.6432190  51.4347916  24.8608150  29.6804848  51.5407639
  25.6191101  29.0412807  51.7318306  23.6627789  29.1089611  51.6333618
  22.5224438  29.7405510  51.6230774  21.7893925  29.1579037  52.0015717
  22.4391403  30.7335377  51.7878075  23.6401100  27.8364048  51.8126068
  22.7639809  27.3370838  51.8690071  24.5293522  27.3592262  51.7719841
  26.5793438  33.4766083  46.9661751  27.7422771  33.2254639  46.5544701
  26.0685539  34.6899033  46.9723320  25.1237202  34.8339272  47.2989006
  26.9246387  35.9047852  46.7708817  27.9027500  35.5701447  46.4253197
  26.4042339  36.7932320  45.5975037  25.4386921  37.2154884  45.8759384
  27.2718925  38.0633354  45.3629494  28.2405510  37.7620468  44.9641685
  26.7629223  38.7351799  44.6718102  27.2973919  38.7555771  46.2045326
  26.2522125  36.0535355  44.2156258  27.1252785  36.2240334  43.5857162
  26.0419922  35.0018997  44.4104843  25.3252773  36.3152504  43.7053375
  27.0928555  36.6760063  48.0447273  26.1209946  36.8853607  48.7586441
  28.2526855  37.2428131  48.3668060  29.0125141  36.9995728  47.7474556
  28.6631851  37.9996567  49.5669174  27.8429813  38.3980713  50.1641006
  29.4461021  37.1189957  50.5407524  28.7433052  36.3498917  50.8611488
  30.2295437  36.6296082  49.9621086  30.0982018  37.7781067  51.8215256
  30.5765629  36.9807854  52.3903389  31.0099010  38.3067703  51.5432777
  29.1505165  38.8186722  53.0854111  29.1344185  40.3216400  52.1053925
  28.3809700  40.2759209  51.3190575  28.8973885  41.1501503  52.7728424
  30.1268768  40.5496788  51.7166443  29.4725971  39.1025124  48.9312401
  30.6250458  38.8577652  48.6065025  28.8443584  40.2650337  48.7087784
  27.8763237  40.4117508  48.9567375  29.4593525  41.4008331  48.1725235
  30.5114632  41.2761459  47.9163666  28.8853245  41.7982941  46.7915993
  29.5552883  42.3196449  46.1079025  28.6033936  40.8776054  46.2807655
  27.5835457  42.5503311  46.7704926  26.8810120  42.0823555  47.4600945
  27.7329216  43.5915337  47.0563011  26.7405186  42.4882660  45.1253090
  25.9347935  44.1534653  45.2028770  25.3271503  44.3486633  44.3192673
  25.2911949  44.1788788  46.0822182  26.6050339  44.9922066  45.3909874
  29.3036728  42.5743256  49.1752930  28.4484634  42.5434570  50.0360527
  30.1895542  43.5310211  48.9854851  30.8991566  43.4064217  48.2776451
  30.2888279  44.7675362  49.8077164  29.3449764  44.9062538  50.3349724
  31.4357967  44.8882446  50.8389626  31.3430862  45.8279457  51.3834496
  31.4890423  43.7092247  51.7621269  30.4643459  43.4076347  51.9792404
  32.0445824  42.8650894  51.3535767  31.9464283  43.9240723  52.7279091
  32.6535072  44.9645042  50.1248322  32.7400055  44.1356850  49.6481934
  30.4095631  45.9856491  48.8936958  31.0495605  45.8347282  47.8767052
  29.7774982  47.0788956  49.2665482  29.0962658  47.0654068  50.0120964
  29.6165257  48.2360725  48.3270226  30.4257717  48.1085854  47.6080132
  28.2919369  48.2582321  47.4308281  28.3489475  49.2151260  46.9119873
  28.1056824  47.1154327  46.3965492  28.1661701  46.1879044  46.9658852
  27.3284206  47.4131737  45.6927643  28.9509354  47.0386162  45.7126312
  27.0631275  48.1628799  48.2782707  26.2270374  48.5586929  47.7017441
  26.8478851  47.1235695  48.5264740  27.0642891  48.7628441  49.1882896
  29.8674355  49.6407509  49.0001945  29.5780087  49.7175865  50.2124825
  30.3212719  50.6933060  48.2884598  30.5523987  50.5570755  47.3147430
  30.2976208  52.0384140  48.8352737  30.4305515  52.0586777  49.9169502
  31.3112907  52.8946953  48.0489464  31.0847645  52.8079071  46.9862785
  31.1699886  53.9139748  48.4083939  32.7548637  52.4544563  48.1803665
  32.8475304  52.1603203  49.2258339  32.9584770  51.5132713  47.6696701
  33.8153191  53.4979019  47.9195061  34.9384270  53.4201698  48.3825798
  33.5680656  54.5504417  47.2811050  34.3012276  55.2443771  47.3132019
  32.7378845  54.6084709  46.7087975  28.9296169  52.6681366  48.5552902
  28.3516083  52.5698166  47.4486694  28.2492409  53.2657967  49.5788612
  28.7628460  53.3911209  50.4394493  26.7772255  53.6262627  49.7303848
  26.4871159  54.2448502  48.8810997  25.8722916  52.3254356  49.7416496
  26.1815834  51.7157974  48.8926620  25.7873840  51.4697914  51.0315056
  26.7717381  51.0613327  51.2602196  25.3585091  51.9581566  51.9065285
  25.1245060  50.6528168  50.7464600  24.6513996  52.8585625  49.5187721
  24.1281853  52.1784363  49.0883293  26.4789734  54.4753609  50.9913292
  27.1146030  54.3678169  52.0374222  25.4917278  55.4103928  50.8325577
  25.0504341  55.5160828  49.9302292  24.8498573  56.0583153  51.9701691
  25.6348915  56.1359901  52.7223625  24.2505360  57.4688606  51.7659454
  23.5783787  57.2832909  50.9281693  23.6467590  57.7317314  52.6345367
  25.2720413  58.5453873  51.3566895  26.4585304  58.2003174  51.3328247
  24.9146805  59.7301826  51.1905670  23.6940193  55.2083588  52.6020432
  23.0558472  55.5927391  53.6232643  23.2621136  54.1109276  51.9726028
  23.8511868  53.8189621  51.2058868  22.0756950  53.3300629  52.3344841
  21.3420086  54.1299019  52.4348068  21.5127411  52.4938850  51.1864243
  22.3011570  51.7785187  50.9524384  20.1888752  51.7459869  51.4290276
  19.4436359  52.5398178  51.4795074  20.0090809  51.0296936  50.6273422
  20.3351517  51.2362480  52.3813286  21.2200470  53.3588943  49.9616394
  20.9453602  52.7283173  49.1160545  20.3841801  54.0365486  50.1354446
  22.0414085  53.9929695  49.6278610  22.1445999  52.6245003  53.7047729
  23.1396942  51.9882889  54.0261307  21.1991043  52.7372627  54.6632996
  20.2473431  53.8189812  54.6144485  19.3730736  53.5272903  54.0324936
  20.7106724  54.6549759  54.0904808  19.7558365  54.1152000  56.0544662
  18.7402477  54.5104866  56.0752602  20.4294834  54.8862381  56.4283714
  20.0260830  52.8431511  56.8136978  19.2206268  52.1130638  56.7342606
  20.3231983  53.0535278  57.8411064  21.1912918  52.1705589  56.0483932
  22.1510334  52.4698524  56.4696121  20.9813328  50.6706467  56.1135025
  20.3668728  50.1131783  55.2467613  21.4512424  50.0297470  57.1868744
  21.9137573  50.5339432  57.9298172  21.4619637  48.5435448  57.3028603
  22.0540333  48.1110153  56.4963379  22.1907177  48.2101860  58.6119537
  23.1710415  48.6650467  58.4699440  21.6713257  48.6462021  59.4653130
  22.3996849  46.7729530  58.9361649  21.4506950  46.2369156  58.9497452
  23.1021671  46.4482613  58.1685753  23.2760715  46.4891586  60.1618233
  22.8189411  46.3579102  61.2517624  24.5538158  46.3409920  60.0135956
  25.1516876  46.2123833  60.8174057  25.1291885  46.4044456  59.1859283
  20.1005821  47.8898048  57.1052322  19.9723854  46.8762093  56.4420357
  19.0114193  48.5174942  57.5459290  19.2335987  49.3645401  58.0491714
  17.5746555  48.1176529  57.4028282  17.4353237  47.0390015  57.4749413
  16.7120209  48.5871201  58.5695305  15.7462788  48.0817223  58.5734596
  17.3769646  48.3068848  59.3864861  16.4964523  50.0533447  58.5288010
  17.3501205  50.7768326  58.0274696  15.4431334  50.5016861  59.0223923
  16.8247890  48.3945885  56.0654945  15.7226372  47.8137512  55.8483238
  17.5079060  49.1684761  55.2205048  18.3670216  49.4210205  55.6876717
  17.0106583  49.7440453  53.9946709  15.9676933  49.4399567  53.9060364
  17.0371799  51.2860184  54.1688156  16.7755699  51.5252342  55.1995621
  18.0343323  51.6506691  53.9221840  15.9911594  51.8449898  53.2207527
  16.2156620  51.6607628  52.1701546  15.0271902  51.3788567  53.4246750
  15.7768250  53.3162079  53.4109764  16.3651562  54.0698586  54.1767616
  14.7458181  53.9233513  52.7855148  14.4031706  53.3222771  52.0497131
  14.5168352  54.8974991  52.9222832  17.7956829  49.2527122  52.7380180
  17.4117336  49.4852142  51.5876846  18.8884392  48.5277328  52.9350662
  19.2567558  48.4432793  53.8717155  19.4737549  47.5966530  51.9193878
  19.6863136  48.0998421  50.9761391  20.8325596  47.0985985  52.4930191
  20.6104031  46.8491135  53.5305672  21.5396519  45.8893280  51.8263474
  21.5122490  46.1438026  50.7668228  22.5391197  45.6504555  52.1898079
  20.9774513  44.9592018  51.9094162  21.9765167  48.1191559  52.5958595
  21.5556984  49.0130768  53.0562057  22.7220993  47.8983612  53.3596992
  22.6158295  48.7555885  51.3544273  23.0641727  49.7218552  51.5855446
  23.3143559  48.1386642  50.7891235  21.8556709  48.8947716  50.5857277
  18.5114956  46.4305763  51.6072578  17.8184128  45.9411125  52.4821777
  18.6183453  45.8606987  50.3815918  19.3178730  46.2055588  49.7398491
  17.7676563  44.7465706  49.9232330  17.0682335  44.5318832  50.7312050
  17.0251160  45.0938721  48.5830231  17.8226871  45.2859268  47.8653221
  16.5210896  44.2812462  48.0598640  16.0834675  46.3821373  48.6214600
  16.6851006  47.1218796  49.1495857  15.7968674  46.8128242  47.6620483
  14.7375803  46.1808090  49.3444366  14.8269939  45.6798363  50.3083496
  14.2539682  47.1555519  49.4084320  13.9184313  45.3781090  48.5102310
  14.0787935  45.4314423  47.5144691  13.1351185  44.3693352  48.8775177
  12.8151970  44.1753540  50.0622978  12.3255539  43.3473549  50.3701439
  13.0428076  44.8242874  50.8020134  12.8382473  43.5578232  47.8927155
  12.1191626  42.8632355  48.0361290  13.1842566  43.7691307  46.9676590
  18.6426258  43.4993858  49.7246017  19.5382690  43.5291252  48.8274994
  18.4947758  42.4777031  50.5338669  17.8348446  42.6245880  51.2842140
  19.0964966  41.1177902  50.3224678  20.0047417  41.3255577  49.7567635
  19.5230408  40.5428467  51.6428108  18.5974236  40.3430443  52.1826401
  20.1076488  39.6308136  51.5222626  20.3019905  41.4881210  52.4343376
  21.6002064  41.9431686  52.1319542  22.0378437  42.7331161  53.1172104
  22.9293499  43.3417282  53.0824661  21.0381565  42.8741684  53.9460220
  21.0153217  43.5078506  54.7321663  19.9129791  42.2300186  53.5030670
  18.9312859  42.2990990  53.9479294  18.1552429  40.1765594  49.5223351
  16.9529972  40.2536850  49.7807007  18.7077255  39.3470001  48.6480179
  19.7128773  39.3385620  48.5495453  17.9160366  38.8470001  47.5023384
  16.8855896  39.1618385  47.6671371  18.3272419  39.4689903  46.1624718
  19.3348160  39.8662491  46.2852936  18.3220387  38.4729881  45.0175819
  18.5237942  39.0491905  44.1145897  19.1070995  37.7411041  45.2076607
  17.3574715  37.9847450  44.8785477  17.5566063  40.7927856  45.8502769
  16.5019531  40.6238022  45.6328850  17.6814423  41.4305496  46.7253609
  17.8689594  41.3128281  44.9446869  18.0286083  37.3218269  47.4611931
  18.9833107  36.7387886  47.8623123  16.9334717  36.6721001  47.2001495
  16.1320515  37.2605438  47.0225067  16.6167831  35.2425919  47.3154831
  17.5499802  34.6876945  47.4120827  15.9456911  34.9613991  48.6577988
  15.0770264  35.6118584  48.7599182  15.6342115  33.9200821  48.5756607
  16.7782536  35.2170258  49.8957138  16.7268047  36.5613136  50.4604301
  16.0708923  37.3235512  50.0665131  17.8220444  36.8540268  51.3905830
  18.0010204  37.8987427  51.5977821  18.6583138  35.8349457  51.8516731
  19.6240540  36.0684547  52.8052864  20.1511879  35.2662125  52.7936363
  18.5849857  34.4931946  51.3826523  19.2420273  33.6748161  51.6375198
  17.6180496  34.2464027  50.3809052  17.6142483  33.2533188  49.9564323
  15.9684706  34.6558342  46.0655899  15.1198883  35.2547684  45.3792992
  16.4419212  33.4904518  45.6048737  17.2723026  33.0668640  45.9936371
  15.9584560  32.8246346  44.3806458  14.9117975  33.0832672  44.2202644
  16.8872204  33.3074036  43.2229805  17.9351997  33.2409821  43.5152626
  16.8042355  32.6346664  42.3693733  16.5913353  34.6699181  42.5554428
  16.5941582  35.4524155  43.3142509  17.5127201  34.8571854  41.3210297
  18.5568848  34.7984657  41.6282349  17.2883663  34.0861359  40.5839729
  17.4201126  35.8030777  40.7873459  15.1348963  34.6304741  41.9870796
  14.9499063  35.3740425  41.2118454  14.9069147  33.7004051  41.4664154
  14.4537106  34.8649559  42.8050690  16.0627098  31.2449627  44.4929276
  16.6476784  30.7291698  45.3958893  15.4265184  30.5418873  43.5574036
  14.9582767  31.1097450  42.8657455  15.1707993  29.1103573  43.4877396
  14.2409468  29.0314674  42.9244843  16.3231030  28.4413185  42.6678391
  17.2976532  28.6064682  43.1272736  16.1681271  27.3630428  42.6303558
  16.4297123  28.9192924  41.1747742  16.3114414  29.9958191  41.0514870
  17.4259071  28.6580448  40.8177719  15.3099184  28.4091759  40.3753471
  15.1818094  27.1860085  40.1903801  14.3801899  29.1365547  39.9258652
  14.6940022  28.4480286  44.8672791  13.7502289  28.9032841  45.4508781
  15.3827486  27.3905296  45.3233528  16.2097893  27.0182304  44.8789444
  15.0351353  26.8231182  46.6603012  13.9594421  26.6491680  46.6872635
  15.5690374  25.3426628  46.7560349  16.6351776  25.3437786  46.5292053
  15.4444790  24.9806480  47.7765884  14.8349886  24.4740944  45.7063446
  13.8380480  24.3120060  46.1161499  14.7938223  25.0318604  44.7707672
  15.6782885  23.1755924  45.4876099  16.7277203  23.3655624  45.2624359
  15.6690092  22.5970802  46.4113770  14.9693956  22.5086269  44.3386536
  13.9136591  22.3843327  44.5796318  15.0665140  23.1729679  43.4799805
  15.4800282  21.1418781  44.0450172  15.0980806  20.4106636  44.6277199
  15.2510471  20.9055347  43.0901260  16.4829350  21.0727406  44.1424675
  15.4576130  27.6354942  47.8802986  14.9547138  27.3084488  48.9960251
  16.3170452  28.6612148  47.7311745  16.2716064  29.0561695  46.8027077
  16.6904373  29.5082283  48.9034424  16.9463482  28.8335590  49.7204132
  18.0663013  30.1639843  48.4804344  18.1323490  31.0273094  49.1425629
  18.9519138  29.5289764  48.5039597  18.0356216  30.6448212  47.5027046
  15.5925274  30.5218601  49.3768806  15.8016510  31.3605957  50.2550659
  14.4111605  30.3649254  48.8523750  14.2340698  29.6996403  48.1133652
  13.2791967  31.2671509  49.2592964  13.7011709  32.2712708  49.3015099
  12.1242533  31.1437893  48.3574562  12.1407576  30.0968819  48.0544510
  10.8015909  31.4395313  48.9191399  10.8335524  32.4925346  49.1988831
   9.9946651  31.2829151  48.2032890  10.5376873  30.8833103  49.8186226
  12.3402948  31.9332275  47.1067352  12.4390335  32.9719048  47.4221611
  13.2516279  31.7092781  46.5522804  11.4720755  31.8654060  46.4512215
  12.8863373  31.0283813  50.7097015  12.5645981  31.9558525  51.3970833
  13.0672016  29.8075256  51.2885475  13.2420645  28.9871635  50.7259369
  13.1338024  29.5109444  52.7611694  12.1266642  29.7798023  53.0797462
  13.5227480  28.0162735  53.0783653  12.7446394  27.4874668  52.5279007
  14.9123230  27.6101913  52.5720673  15.7000723  27.8516846  53.2856712
  14.8671350  26.5221786  52.5242691  14.9838247  27.9589672  51.5418434
  13.4123907  27.5706005  54.5486603  12.5021915  28.0196629  54.9461250
  13.2490568  26.4929218  54.5544357  14.3362455  27.8109798  55.0747871
  14.0211086  30.3709011  53.6352997  13.7705107  30.4352303  54.8527374
  15.1330032  30.8068237  53.0595551  15.2520342  30.7213402  52.0602417
  16.1019726  31.6463909  53.6560631  16.1591759  31.3756943  54.7103653
  17.4839401  31.5136566  52.9974289  17.4742908  32.0460701  52.0463524
  18.2329063  32.0322723  53.5959167  17.9161987  30.1330051  52.6272430
  17.1767254  29.6554546  51.9844170  19.2027607  30.0840950  51.9033661
  19.3886471  29.1041546  51.4637489  19.1314869  30.8521194  51.1332016
  20.0492725  30.2881489  52.5590134  18.1313763  29.2909546  53.9007797
  17.1584835  29.1767673  54.3788376  18.2782173  28.2587776  53.5827332
  18.8544827  29.7576466  54.5696716  15.7591076  33.1844902  53.6947670
  16.5128250  33.9505768  54.3494034  14.7470293  33.6951714  53.0058975
  14.1213360  33.1367950  52.4430275  14.6810627  35.2077103  52.8630867
  15.6403351  35.6117401  52.5395775  13.8053598  35.4074821  51.6258507
  14.0588140  36.3447723  51.1305237  13.9403439  34.6414185  50.8622894
  12.3118277  35.2861290  52.0616150  12.1666908  34.3185883  52.5421371
  12.0598326  36.1932335  52.6109467  11.4292555  35.1900635  50.8291969
  11.6136894  36.1251526  50.3003387  11.7600660  34.3451996  50.2251511
   9.9952755  35.1401100  51.2152748   9.4190197  35.9657745  51.1358223
   9.3357267  34.0239029  51.5723228   9.8046083  32.8693542  51.8928833
  10.7769356  32.6658363  52.0752563   9.1614485  32.1106567  52.0684471
   8.0783596  34.0009193  51.7108002   7.6069899  33.1612587  52.0155640
   7.5407848  34.7975845  51.4002533  14.2342854  36.0321007  54.1262016
  13.6788559  35.4840813  55.0686188  14.6221724  37.3327713  54.2361031
  15.4553032  37.9697495  53.2797966  15.1493473  37.9059715  52.2355652
  16.4757690  37.6431885  53.4800835  15.3198996  39.4803352  53.6336479
  14.4347448  39.8786583  53.1377258  16.2036915  40.0813675  53.4196930
  15.1018496  39.4353905  55.1511307  14.5809431  40.3322716  55.4863396
  16.0297241  39.4270210  55.7230377  14.3174257  38.1744308  55.4188538
  14.7287321  37.7311134  56.3257103  12.8086224  38.4605331  55.6111374
  12.4074755  39.0145607  56.6366806  11.9390974  38.2771454  54.6277008
  12.3156195  38.1021919  53.7069817  10.5003815  38.5206070  54.6531296
  10.2539024  39.5340805  54.9697075   9.8540297  38.3095245  53.2446747
  10.0100164  37.2712784  52.9517365   8.8018446  38.5735168  53.1383018
  10.5986710  39.2154198  52.2378540  10.0620747  40.1660118  51.6754150
  11.8257513  39.0100365  51.9475327   9.8084278  37.5825920  55.6044922
   8.7236567  37.9044685  56.0816803  10.4200077  36.4246140  55.8452911
  11.3802023  36.2821465  55.5663109   9.9210567  35.4181404  56.8378143
   8.8723421  35.1219254  56.8142700  10.7375736  34.1022339  56.6401520
  11.8015976  34.3137627  56.5342827  10.6562967  33.4609947  57.5178223
  10.2936020  33.3764305  55.3455544  10.5092220  33.9994469  54.4775352
  11.1934690  32.1633263  55.1194305  12.2262306  32.5100670  55.1552620
  10.9807653  31.3724575  55.8387260  11.0008936  31.6949673  54.1542091
   8.7866488  32.8881760  55.3391953   8.0221691  33.6407166  55.5324821
   8.5231543  32.6532669  54.3079376   8.5651665  32.0527992  56.0034180
  10.1160088  36.0971184  58.1950722   9.1733007  36.2229347  58.9930954
  11.3106318  36.6431694  58.4584122  12.0654230  36.4246750  57.8238640
  11.7473068  37.2028580  59.7223396  11.5970440  36.5147133  60.5541878
  13.1769562  37.5077515  59.6140175  13.7671976  36.7088280  59.1651955
  13.1645975  38.3419991  58.9126015  13.8093328  37.8761482  60.8059769
  14.1343927  37.0566978  61.1860275  11.0067005  38.5854149  60.0151749
  10.6845379  38.7780266  61.1694946  10.6339827  39.3831825  58.9658203
  11.2094259  39.1933250  58.1577835   9.8855000  40.6541443  59.1242485
  10.4200764  41.2249107  59.8835640   9.8997526  41.4442596  57.7868462
  10.8999138  41.7660942  57.4966736   9.5000372  40.7928734  57.0096550
   9.0210075  42.7544136  57.8261948   7.9848433  42.4652290  58.0017967
   9.5829859  43.6680412  58.8751564  10.6704969  43.7411385  58.8667259
   9.0938921  44.6421242  58.8824043   9.3319359  43.2396774  59.8455048
   9.2431202  43.4066505  56.4596519   9.2289762  42.6802063  55.6471329
   8.4682140  44.1633682  56.3371735  10.2245941  43.8807831  56.4565773
   8.4482832  40.2816925  59.5973892   7.7877111  41.1359329  60.1783867
   7.9822993  39.0584831  59.4489059   8.5288506  38.3409233  58.9944992
   6.6081557  38.5838280  59.9703293   5.9270816  39.4279785  60.0782776
   6.0128479  37.5184517  59.0282059   6.5083060  36.5476990  59.0443535
   4.5206623  37.3026428  59.3973427   4.4968510  36.5401459  60.1758804
   3.9982946  38.2420959  59.5780716   4.0782290  36.7714691  58.5545959
   6.0014310  38.0200195  57.6824265   5.5069413  38.8422165  57.6496773
   6.7345643  37.9723930  61.3344688   5.9558005  38.3524742  62.1942024
   7.8320427  37.3254738  61.6043816   8.6137142  37.2752647  60.9667511
   8.1147919  37.0076294  62.9683800   7.1754189  36.5831985  63.3226929
   9.3474703  36.0864449  62.9444313   9.0315228  35.2576027  62.3109512
  10.2045231  36.5787582  62.4848785   9.8574686  35.5004044  64.3021240
  10.0803623  36.3972931  64.8800583   9.1191645  34.8846130  64.8157425
  11.1488924  34.7206993  64.1853027  11.1752539  34.1207352  63.2756615
  12.0169277  35.3591194  64.3497238  11.2162209  33.6695633  65.3427505
  11.2635918  34.3203812  66.2158432  10.2557049  33.1586571  65.4097443
  12.3838654  32.7521935  65.1738663  12.5002460  32.1142845  65.9482193
  12.3766270  32.2328415  64.3076553  13.2254810  33.3010445  65.2765732
   8.4370003  38.2480736  63.9194641   8.2407732  38.1957016  65.0963135
   8.8629923  39.2981796  63.3104095   9.1677303  39.0990715  62.3682899
   9.1618185  40.6299744  63.8758659   9.5608482  40.4324112  64.8707733
  10.2436495  41.3323898  63.0332260  10.0145760  41.3779907  61.9685440
  10.3679342  42.3594437  63.3764572  11.6469631  40.7443047  63.0571747
  12.1141968  40.2654343  64.0868149  12.4676456  40.9241791  62.0879898
  12.1149654  41.4911156  61.3301620  13.3586559  40.4488525  62.0717125
   8.0403223  41.5987282  64.1129150   8.1571379  42.5730133  64.8712769
   6.8880515  41.4495354  63.5006065   6.8088369  40.5168190  63.1213150
   5.8442602  42.4683609  63.4372559   5.9685707  43.1911888  64.2435913
   6.0318165  43.4999886  62.2812386   5.3469310  44.3467484  62.3262367
   7.4621329  44.0664673  62.1216583   7.7881894  44.3724213  63.1157341
   8.1645403  43.2895660  61.8197517   7.5770307  44.7768631  61.3029785
   5.9122243  42.8761597  61.0015182   6.7022824  42.3323288  60.9608231
   4.3826604  42.0414238  63.5115128   3.5115821  42.8540688  63.5482712
   4.1369824  40.7513924  63.3864975   4.8983331  40.1010933  63.2539940
   2.8361850  40.2625732  63.0895119   2.1330252  41.0926399  63.0212440
   2.9173093  39.4322128  61.7739105   3.6073146  39.8481827  61.0397682
   3.4498405  38.4936409  61.9274902   1.5918589  39.1949463  61.1011925
   1.7977650  38.5822296  60.2235374   1.0320921  38.4929466  61.7192230
   0.9295978  40.4682121  60.5167351   0.3203890  41.2162590  61.2686043
   1.1039875  40.7551689  59.3099022   2.3132877  39.4096260  64.1508408
   3.0833333  38.7633858  64.8838043   0.9886659  39.3913765  64.2760468
   0.3883759  40.0687828  63.8278618   0.2569734  38.6068726  65.2891006
   0.8937714  37.7428970  65.4792099   0.3382122  39.3882484  66.6417999
   1.3725225  39.3134613  66.9775238   0.0951044  40.4434853  66.5174255
  -0.5144149  38.8265381  67.8251114  -1.5898637  38.8454895  67.6485977
  -0.1012143  37.4378204  68.2500839   0.9836896  37.3346939  68.2714844
  -0.4948410  37.1739349  69.2316818  -0.5444481  36.7926178  67.4915619
  -0.3379018  39.8380814  68.9527435  -0.9170700  39.4298744  69.7810135
   0.6873326  39.9346313  69.3100662  -0.7363533  40.7898750  68.6014252
  -1.1285866  38.2259483  64.8447952  -1.6407158  37.0471878  64.8441391
  -1.8236169  39.1694870  64.4921112  40.9386940  31.8260708  38.4594879
  40.7337303  31.0679836  37.7066116  41.9728317  32.1134262  38.6370087
  40.0354729  32.2372818  39.3449249  40.3833160  33.2219353  40.3641624
  39.6060410  33.6580925  41.2986259  41.5195999  33.5661430  40.4159851
  38.7090759  31.8544464  39.2877235  37.5996628  32.2756233  38.4489365
  36.6884079  31.9168434  38.9429817  37.7795792  31.6304531  37.0373764
  38.2572975  30.6561527  36.9595795  37.1340485  32.1595154  36.0041199
  36.4815636  33.4672318  36.1093063  35.9059029  33.7351570  35.2254372
  36.5496559  34.2327652  37.1912308  36.1483536  35.2427254  37.1416512
  37.5085220  33.8428421  38.2980499  38.4982605  34.1958466  37.9834175
  37.1019936  34.5644417  39.5139656  37.2017250  34.0692673  40.3455811
  37.1718826  31.4981537  34.6665916  37.8237228  30.5014267  34.6105309
  36.6916428  31.8451691  33.6257896  46.1584244  31.1571693  62.5352898
  47.0632706  30.6566772  62.1972160  46.2556229  32.2102280  62.7905350
  44.9288483  30.7640018  62.1649437  43.7093201  31.6058292  62.5196800
  43.7417336  32.7808533  62.9413033  42.6093559  31.0665894  62.3448982
  44.6426544  29.6368046  61.4089432  44.8682175  29.6607723  60.0055313
  44.7181244  28.6307545  59.6595154  46.3453560  30.0929680  59.6813049
  47.0943527  29.3218403  59.8483086  46.7098732  31.4014435  59.4411888
  45.6737022  32.3704948  59.3262177  45.9606972  33.4197311  59.3598022
  44.3529053  32.0391655  59.2889252  43.6092186  32.8328438  59.3119812
  43.7975426  30.6086216  59.3378983  42.9053574  30.6783428  59.9721985
  43.5041695  30.1619263  58.0287514  42.5394402  30.0692921  57.9424629
  48.1767235  31.7578506  59.4159851  49.0521812  30.8914928  59.4805794
  48.5236969  32.9403229  59.3597450  19.8728046  33.4409790  55.1831589
  19.5231533  34.3241081  54.6527252  19.4078789  33.2000275  56.1367340
  20.9083595  32.7126389  54.6458206  21.5699730  33.0828896  53.3077583
  21.2384586  34.0802994  52.8085022  22.4337196  32.3966408  52.8177338
  21.4218159  31.6038342  55.3618393  21.9214497  31.7220364  56.7283020
  22.6051617  30.8720036  56.8430786  20.8059883  31.6135311  57.6732674
  19.9718285  31.0554199  57.2534828  20.7609043  32.1878128  58.8775139
  21.8327007  33.0135422  59.3131714  21.8289642  33.2660065  60.3717766
  22.7595367  33.4669762  58.4232063  23.5549927  34.1893349  58.5934601
  22.7438259  33.0382118  56.9748459  22.2260761  33.7900124  56.3666382
  24.1123619  32.9216042  56.6171303  24.3794670  33.8516808  56.5154343
  19.5352821  32.0861588  59.7784920  19.4544048  32.6626701  60.8800201
  18.6033192  31.3890495  59.3613739  44.4857483  32.1007729  85.5554123
  75.7054062  20.4836559  82.6973648   7.9397645  44.5426826  68.5722656
  26.0329704  49.8382950  29.4477673  30.1479416  35.7995796   1.7779087
   8.3290882  68.7099228  10.9393845  26.5564156  58.4064331  45.8967209
  69.5203705  64.6544037   4.2737770  51.8320541  69.4963455   5.1533551
  76.0071259  39.9872627  71.0257339  75.6915359  40.6238747  70.3843613
  75.4724655  40.1458626  71.8036880   3.5404150   1.6957914  53.3801346
   3.3391831   2.6258805  53.4834366   4.3260422   1.5604295  53.9099464
  70.8834915  28.7710876  33.4809341  70.4981842  27.9986172  33.8945312
  71.8171310  28.7104168  33.6830788  25.5315170  54.6491013  71.8077393
  24.9661350  55.3451080  71.4728622  26.4207897  54.9660873  71.6498032
  19.9593544  40.4819298  84.4531555  20.3710423  41.3408394  84.3581619
  20.0379429  40.0815735  83.5872650  77.2098312  23.1670685  48.2267838
  77.3370590  23.5085487  47.3416672  78.0767441  23.2167320  48.6295700
  19.3411846  13.4132547   7.8657613  18.8352757  14.2187061   7.7583570
  20.2544212  13.6989813   7.8414145  44.1774292  47.6005363  20.7288380
  43.3218536  47.6532097  21.1548061  44.7410278  47.1753540  21.3752193
  14.0521736   0.9648860   2.7797837  13.9460526   1.2048985   3.7003076
  14.3452311   0.0539225   2.8020337  39.7493362   6.2464037  69.4294662
  39.1130486   5.5331020  69.3787537  39.2191849   7.0428295  69.3998260
  77.6765747  42.5869408  80.8361511  77.4412460  43.4926262  81.0375977
  76.8489456  42.1083298  80.8830414  74.8687286  60.6937866   0.1168560
  75.3804016  59.8947449  -0.0094441  75.4746933  61.4027824  -0.0984669
  11.2706881   2.3842678   1.9169692  12.2235041   2.3042092   1.9612769
  11.0720577   3.1677349   2.4297631  71.7221527  29.1652889  87.5353394
  72.1580276  29.7553749  88.1501923  72.0223465  29.4532795  86.6732635
  85.1528625  39.3278694   6.2361083  84.6074448  40.0489693   6.5503902
  85.5056152  39.6399422   5.4027963  45.3048401  30.6602287  83.5332565
  45.1362076  30.7097263  82.5923309  46.2590485  30.6777325  83.6068192
  38.3878365  26.7276859  26.9672432  38.8760757  25.9616814  26.6654320
  37.4997673  26.5909386  26.6372986  69.5049438  31.8383484  48.4561729
  68.8394241  32.1398735  47.8377914  69.2051697  32.1600342  49.3064003
  34.4926033  17.5648384  81.9222641  34.1057396  17.6190681  81.0484085
  35.2880516  18.0942230  81.8653183  14.9884062  44.1852379  81.8580551
  14.6961346  44.2083740  82.7692490  15.4397249  43.3454590  81.7725372
  71.9071655  41.1071892  24.1852379  71.7837067  40.5170975  23.4417458
  71.4429092  41.9064140  23.9363632   5.5760188  15.3044090  57.2442322
   4.7099299  15.5313253  57.5828056   6.0547614  14.9819965  58.0078316
  17.6069775  60.9913902  53.8037224  17.6452446  60.8623924  52.8560257
  16.6750793  61.1005630  53.9931450  59.0121956  55.9912758  12.3665609
  59.1096420  56.0510292  13.3169117  59.4152794  56.7930756  12.0335808
  20.9525452   3.6226525  22.2850170  21.5144825   4.2267671  22.7703037
  21.0845413   2.7766495  22.7129040  45.2017517  65.5513763  69.5028992
  45.8412437  65.2081223  70.1269684  45.4670296  65.1820984  68.6605911
   1.5398190  58.0671005   9.7733736   1.2575384  58.0056915  10.6859407
   0.7977646  58.4665718   9.3194914  73.7333145  61.2224083  27.2699852
  74.5400314  60.9600716  27.7134132  73.3119431  60.3968086  27.0311260
  20.0092678   1.6853541  19.9569244  20.4314651   1.8338656  19.1107998
  20.3429508   2.3859379  20.5173435  52.1858406  64.0453415  69.5266571
  51.5533981  64.3869629  70.1587601  51.6518250  63.7504730  68.7890244
   3.7124465  56.6316833   0.4222776   3.2202642  57.3682289   0.0596674
   3.8756025  56.8777122   1.3328166  43.9320564  50.0045776  83.0173950
  44.3449402  50.5873528  83.6546783  43.0170593  50.2847137  82.9942932
  66.0874786  40.1749725  57.7091675  65.1487579  40.2840767  57.8612251
  66.4708710  40.1504135  58.5858879  20.0599499  25.6833191  13.6783161
  20.9143925  25.5806656  14.0973883  20.2125206  26.3140697  12.9746771
   6.5990677  24.2718563  77.1655273   7.1973915  24.9931068  77.3605652
   5.7596369  24.6975098  76.9911499  27.8325939  29.0245686  11.9116697
  28.2436981  29.6945019  12.4579439  28.2581978  28.2080173  12.1730881
   5.8784337  45.2362404  86.2275848   5.8149009  45.3780518  87.1720886
   5.6734800  44.3086205  86.1103439  11.7507486  20.7195473  30.6984634
  11.7528124  19.8973618  30.2083225  11.4626226  20.4736233  31.5775166
  11.5174942  69.4391556  27.7401352  12.1370850  68.7605591  28.0081787
  11.7971239  70.2206421  28.2169151  15.4274597   3.8559182  20.6096535
  15.1566048   2.9379652  20.6248741  16.3419170   3.8405297  20.8920784
  71.3674011  54.3028374  79.2426682  72.0012283  54.0461235  78.5728912
  70.5148926  54.1130486  78.8509521  33.6780586  47.9086456   9.7016630
  34.4859276  48.0281792   9.2023726  33.6743813  48.6323433  10.3281469
  26.1187992  58.9630394  43.6892166  25.9050846  58.3326149  43.0013771
  26.1795635  59.8028374  43.2339363   7.1356020   9.6106558  53.9216232
   7.7935953   9.9165840  53.2973747   7.4501743   8.7501450  54.1987457
  67.1708832  40.2127953  28.5039349  66.3846588  40.0218773  29.0154457
  67.8952942  40.0462341  29.1070251  19.4708576  51.3109703  12.7251720
  20.0201206  50.5294571  12.6636925  20.0907364  52.0306816  12.8434658
  22.1696510  32.0990715   4.2031646  21.5534325  32.1674309   3.4738946
  22.7139568  32.8831444   4.1311011  64.3222961  31.6101265   8.6286888
  64.5349655  30.8104439   9.1098442  65.1459503  32.0967636   8.5969496
  32.9733887  20.1637039   0.6175073  32.3278961  20.7774906   0.2670197
  32.4547958  19.5216827   1.1023812  31.6736832   5.2397799  29.1466198
  32.4142227   5.6749229  29.5690937  31.6066494   5.6596246  28.2890244
  23.9394207  32.3051338  77.0229568  23.9246902  32.4245720  77.9725647
  24.5792332  32.9450836  76.7109604  14.5940323  12.8461809  16.3467045
  14.0213184  13.3136845  16.9547100  14.1186934  12.8539581  15.5159073
  84.5617065   3.6699240  66.2108612  84.8090820   3.6483467  67.1352921
  83.9078445   4.3666782  66.1540909  67.4713745  39.7382774  74.0198212
  67.3335724  39.2622910  73.2008667  66.8313751  39.3637772  74.6251144
  47.3289223  55.0595894  50.1854134  47.0656090  55.7193871  50.8269463
  47.5245132  54.2819328  50.7081261  16.1894741  28.5654087  16.1668396
  16.7478123  27.8732891  16.5210457  15.8977957  29.0549526  16.9359322
  29.4704380  50.9352570  81.9597626  28.8516712  50.3781433  82.4319763
  28.9201241  51.4860535  81.4029770  27.6823330  59.4627151  11.4272289
  27.5358486  59.0930290  12.2979212  28.6100731  59.6982574  11.4200115
  41.7169685  63.9811897  51.0751305  40.9437485  64.3300858  50.6316948
  42.4075432  64.0130615  50.4130669  28.0049896   1.3711386  64.3072891
  28.4245529   2.2161946  64.1457977  27.6251717   1.1271228  63.4632339
  50.1105080  12.4176741  12.0075359  49.8125610  11.6104136  11.5882635
  50.8407059  12.1438875  12.5625858  79.3060760   2.4595342  14.3969965
  79.0847397   3.2175941  14.9379091  80.2390900   2.3162718  14.5557098
  53.7053490  14.6719408  34.8124924  53.6397514  15.2019768  34.0181427
  52.8142204  14.3574305  34.9648323  26.0778637  65.4578629  78.5544357
  26.8189621  65.3654251  79.1531448  25.3081245  65.2920227  79.0987015
  60.7594452  48.4919167   3.6736236  61.6660881  48.5368919   3.3699660
  60.7063866  49.1490974   4.3675451  61.8633881  49.4971581  12.0432129
  61.2807083  49.9175301  12.6756697  61.3325844  49.4066811  11.2518282
  74.6621399  21.8734646  74.4023132  75.0306931  22.7220821  74.1568527
  73.9213028  22.0889244  74.9688492  51.7984123   5.9610925  13.9689074
  51.3795471   5.1016331  13.9229298  51.0868950   6.5629120  14.1875086
  61.0887413  69.5672150  16.4055920  60.5010147  69.9254532  17.0707760
  60.5172920  69.3655167  15.6646490   8.3745413  15.5752840  24.9810429
   8.9960680  16.1413345  24.5233078   8.9202013  14.9090738  25.3989544
  67.1372147  15.5483236  16.5005817  67.8525085  15.9226027  17.0148792
  67.2950974  15.8590508  15.6090918  66.0770645  48.2678261  26.7047596
  66.4373245  47.5818634  27.2668076  66.5367355  48.1611061  25.8719673
  83.2038727  69.9046021  83.7790451  83.2079849  69.7934875  84.7297668
  83.9778442  69.4280624  83.4788589  59.8573570  66.0138474  22.6393108
  59.6183052  66.5601959  21.8905869  59.5361900  66.4970245  23.4006367
  47.4023972  11.7882099  71.9336014  47.1504478  12.1948490  72.7626953
  46.5860672  11.7310619  71.4370422  67.6799393  42.1914635  31.9711475
  68.2572937  41.7590485  31.3419323  66.8070450  42.1175156  31.5853748
  82.2751617   4.2218261  88.8841629  81.8844223   4.2203193  88.0103531
  81.6730270   3.7021327  89.4166870  40.0803070  68.1287231  36.8728065
  39.7230453  67.7972031  37.6966362  40.3422737  67.3435059  36.3921432
  40.4159851  34.6724396   7.7022538  40.0525360  35.5520439   7.6001039
  39.8978081  34.1287727   7.1088324   5.2649226  43.6591530  30.8828506
   5.0975289  42.8782806  30.3551731   4.4282451  43.8437042  31.3096352
  35.6536293   2.3633027   9.2530556  35.4370079   2.1066799  10.1494093
  34.8470993   2.7510741   8.9133863  57.5347672   1.2656783  75.2377090
  57.3760529   2.1076844  74.8110123  57.9416199   0.7264243  74.5595398
  68.0031052  33.3720284  78.3693848  68.8989716  33.4702873  78.6918640
  67.7970200  32.4482880  78.5124359  68.0210800  51.0756264  24.1463928
  67.7949295  50.1492081  24.2291031  67.5725174  51.3615494  23.3506107
  78.8896561  40.5149765  87.5126419  79.6612473  40.4299927  88.0726852
  78.5814514  39.6168709  87.3916168  56.2645607   1.8613523  68.8437195
  56.3342133   2.7438891  68.4796982  57.1600952   1.6341112  69.0939484
  77.8389130  55.0370026   3.9404395  78.3291168  54.9085693   4.7524953
  77.9986420  55.9512749   3.7062938   5.2113171  36.1628304  42.8974495
   5.0962181  35.5321655  43.6082573   6.0852060  36.5267372  43.0392990
  10.1890659  46.0656662  83.2776489   9.3647823  46.1950455  83.7467422
  10.6178665  45.3460846  83.7408600  56.5561104  20.9453182  10.8157272
  56.1897507  20.9567928   9.9314861  56.5734100  20.0188770  11.0558109
  12.8885651  18.6598167  56.0161896  12.9070654  17.7339840  55.7738571
  12.0212965  18.9610081  55.7453384  26.4764748  41.2816544  73.3424911
  27.2225018  41.8543587  73.5205002  26.3353901  40.8099747  74.1633682
  10.7607069  17.0774612  84.6499405  10.1721945  16.9029846  83.9154663
  10.7090855  18.0245895  84.7784500  10.1435204  32.2807770  87.6262665
  10.0642843  31.3574600  87.3866043   9.7733393  32.3321075  88.5074997
  66.9726486  60.2640839  36.9379654  66.5040359  60.3806458  36.1114960
  66.3444748  59.8221626  37.5092163  12.0927114  38.1662598  88.0202942
  11.4559546  37.5026283  87.7550278  12.7959166  37.6697044  88.4388199
  68.8122253  12.2361898   3.4105406  67.9126358  12.3280668   3.0966485
  68.7851181  11.4805031   3.9974267  84.6982880  39.1170044   9.6071882
  85.2018433  39.8533211   9.2600536  84.4443741  39.3942909  10.4874573
  84.9171600  53.5460701  75.7013855  84.7067871  52.7717896  76.2233734
  85.5988998  53.2502327  75.0981064   6.9138398  67.0934067  22.7905598
   6.8341455  67.6150055  23.5891953   6.3301215  66.3480911  22.9320183
  64.5196457  26.1801090  43.6545525  64.2918396  26.9849873  43.1892471
  63.8611374  25.5455055  43.3719177  38.8593140   6.5495634  27.1326885
  39.1238785   6.5222483  26.2131824  39.6177177   6.2133770  27.6102161
  15.9084110  24.6894360  60.6545677  15.3208818  24.1079559  60.1719475
  15.9224501  25.4965115  60.1401138  66.1045914  13.2813110   5.2263012
  65.7123032  12.8061695   4.4937820  66.3270874  14.1388559   4.8638873
  43.1809502  13.6005173  74.5207443  43.6013374  13.2287216  75.2961578
  43.9083443  13.8724747  73.9611282  86.2594528  25.5835342  67.8963013
  86.1004791  26.4547157  67.5329819  85.3898849  25.1886902  67.9610214
  36.1918335  65.6914520  87.1604309  36.0030518  64.8364944  87.5472717
  35.3325996  66.0973511  87.0455399   9.6748753  26.7413254  19.2983875
   9.1360197  27.3015060  19.8570156   9.0464773  26.1779613  18.8467598
   6.5290380  18.4175014   2.6485705   5.8263378  18.9835434   2.3291335
   6.2154183  18.1012917   3.4958520   1.4265938   2.4174578  77.3017044
   1.5045291   3.3296962  77.5809555   1.7933241   1.9126149  78.0275650
  13.2232323  31.3866692  41.2990456  12.9528074  31.6886158  40.4319038
  13.6859989  30.5653591  41.1331253  22.5409889   9.0267897  80.2133789
  21.9526768   9.5244961  80.7811890  23.2337818   8.7185888  80.7975693
  83.8688660  17.9798546  28.7135506  83.5798950  18.3526077  29.5464878
  84.7402878  17.6291599  28.8975658  18.4879131  55.9585571  88.6219788
  18.3401566  56.7824631  89.0862808  17.7765179  55.3883781  88.9136047
  68.7637482   1.9517223  57.2941132  67.8533478   1.6847466  57.4210854
  68.7185364   2.6582804  56.6499367  28.1825733  59.5385513  63.2309341
  28.0346909  60.1538925  63.9490700  29.0573616  59.7537689  62.9074211
  61.6264877  71.5778275  29.6777058  61.8737717  71.2449799  28.8149796
  62.3238678  71.2760239  30.2597752  24.2333374  41.2785873  10.9356699
  25.0113983  41.5601044  11.4169216  23.5123577  41.7568550  11.3451586
  18.8582554  63.3771782  32.4828568  18.7304096  63.1799355  31.5549660
  19.0084438  64.3221817  32.5083580  18.0913467  17.4501781   5.7302399
  17.3209763  17.0264053   5.3518491  17.7610035  18.2761326   6.0836582
   6.6095343   5.0053210  22.3244705   7.2545638   5.2167878  21.6495991
   6.4639931   5.8321977  22.7841721  48.2902794   9.7274542  76.2653198
  48.4437332  10.4478912  75.6540451  49.1170731   9.6347389  76.7386551
  34.9381027  29.1291008  12.1718426  35.0148964  29.4594822  11.2767544
  35.8133926  28.8044224  12.3832321  50.7193184  63.3119812  65.6866302
  51.6187325  63.2787170  65.3607788  50.3219032  64.0461273  65.2183151
  72.7125320  41.2905312  42.9852448  72.2432175  40.6985245  43.5730400
  73.6371994  41.0939560  43.1355095  21.7839127  36.6688614  59.4462395
  21.1512146  36.3642273  60.0967178  22.6243668  36.6535492  59.9040985
   7.0115180  33.1146126  39.7783318   7.7140846  33.7637329  39.8140755
   7.4537768  32.2949028  39.5576172  27.9830456  32.4981880  26.7793674
  28.2041245  33.4201851  26.9107838  27.6312332  32.4606628  25.8899555
  23.2221203   0.8985087  57.9723244  22.7137165   1.5501766  57.4895325
  22.6030426   0.1879868  58.1400528  11.7660866   6.6442552  28.6258106
  12.0639372   5.9933634  29.2613087  11.9569511   7.4866281  29.0383759
  67.6488800  15.3547926  59.4685440  67.8793869  16.1102600  60.0092506
  66.6974716  15.2852306  59.5473289  15.0756407  45.1591988  20.4978390
  15.5998344  45.7999382  20.0173168  14.2738152  45.0709343  19.9825554
  55.9786148  18.5318146  38.0500565  55.6373024  18.4348888  38.9390678
  55.3753510  18.0261478  37.5054398  21.7157650  40.2343254  73.9415741
  22.3638153  40.7395210  73.4506149  22.1251030  39.3783607  74.0680695
  85.3410950   1.3017530  60.8591766  85.9033813   2.0682001  60.7467842
  85.8579483   0.5730649  60.5155029  22.9113503  50.9752960  48.2332878
  21.9837742  50.7445335  48.2841148  23.0828476  51.0731392  47.2966728
  78.9459534  70.8925705  12.7393484  78.5543518  70.8571625  11.8666372
  78.6865616  71.7471619  13.0837669  75.9958191  14.6218214  12.1094818
  75.1671524  14.1631632  12.2479973  76.0013962  14.8294001  11.1750774
  30.7108898  17.7899017  21.4745827  31.1256294  17.5609665  20.6428318
  31.1140766  18.6219711  21.7222385  68.5039978   9.2108097  74.6450729
  68.9857559   9.3189707  75.4651031  68.9711533   8.5148563  74.1828461
  60.8997955  11.7422771  61.2280464  60.1903305  12.3264599  60.9604263
  61.5571060  11.8319979  60.5380287  84.1257858  62.7527657  42.6408730
  83.8700333  62.7780151  43.5629272  84.7203217  62.0052681  42.5776100
  61.5352364  30.6837864  67.7289505  62.3377953  30.1745167  67.6159058
  61.3698959  30.6641750  68.6715546  28.2472878  39.5593643  77.1131134
  28.2495975  38.6287689  76.8890305  28.7719765  39.9721947  76.4271851
  78.4765091  14.6425447   6.8330631  77.9831696  14.0846281   6.2317500
  78.1002960  14.4584751   7.6937704  81.1234055   2.7089136   4.1751637
  80.9143982   2.0590098   3.5042138  81.8792343   3.1803031   3.8248119
  34.8487892  59.6218719  61.2007027  34.2633438  60.1678314  61.7255058
  35.5928154  59.4461136  61.7766953  65.7926254  14.7431507  11.7226896
  64.9643707  14.3248081  11.4877357  66.1827393  14.9897814  10.8841066
   5.0539575  38.9539948  41.9049759   4.3437266  39.5956955  41.9096031
   4.7047071  38.2066803  42.3905449  19.7275314  56.8578148  33.4698982
  19.7278366  57.1832695  34.3700676  20.4621868  56.2451172  33.4364815
  80.5234222  32.4366417   2.1513233  81.1368484  32.9024200   2.7196486
  80.8682098  31.5448093   2.1066949  66.3553391  68.1547928  60.8825912
  65.4574203  68.2194290  61.2078552  66.3046799  68.4608612  59.9770584
  71.0586929   1.4281018  48.6361961  70.5549240   1.6834784  47.8633881
  71.6751404   0.7706367  48.3137512  38.3784904  13.8474360  61.8844223
  39.0900497  13.2500544  62.1147499  38.4735069  14.5793791  62.4939003
  71.9863968  13.5950737  18.6064568  72.8404541  13.2528744  18.3424110
  71.6420593  12.9384775  19.2118855  -0.0181569  45.4960899  26.0248566
  -0.1700966  44.7858505  25.4013958   0.5985646  46.0774574  25.5799961
  52.6961365  55.8487129  42.9685783  53.0820541  56.3916931  42.2812119
  51.8980751  56.3131104  43.2208939  36.3788643  17.2225494   4.8399801
  36.5711174  16.8577785   5.7038155  35.9543495  18.0607185   5.0229940
  59.8401947  44.3453903  34.1191101  59.5637512  43.4328613  34.0348473
  60.5435677  44.3236275  34.7679787   9.1152754   7.4518757  77.0131989
   8.7400150   6.6032414  77.2482147   9.9278984   7.2360048  76.5557327
  12.3608379  23.7651424  50.9477921  11.9692774  24.0602150  51.7698860
  12.1696377  24.4671955  50.3258629  83.7636032  57.8860474  68.5914078
  83.1113968  58.4882202  68.9495316  83.5191650  57.0305901  68.9445038
  61.4552689  69.2694092  42.6679611  61.6805573  69.7465668  43.4665833
  62.0329628  68.5062103  42.6739197  15.5982351  16.2220650  60.4984627
  15.5247355  17.0257702  59.9837914  15.2337074  15.5412855  59.9328728
  32.9470520  66.8038559  63.4472847  32.8056297  65.9766617  63.9076920
  32.0658760  67.1333160  63.2705879  36.7971497  58.0053940  86.8384628
  36.9782600  57.8899269  85.9056778  36.8302040  58.9524574  86.9734268
  23.0527554  23.4512424  11.4835291  22.7481937  23.4092216  12.3900108
  23.7203426  24.1372070  11.4867115  30.9670258  29.9974308  15.9733315
  31.6744919  30.6340714  15.8712864  31.2718315  29.4093666  16.6643486
  54.0287971  10.7208576  20.9313297  54.6760750  11.3084335  20.5414371
  53.2314186  11.2472696  20.9888897  76.1380005  62.1642876  78.6032410
  75.4387894  62.8072548  78.7212753  76.1853180  61.7052269  79.4418411
  20.9633808  14.3998785   2.5692825  20.3208790  15.0981236   2.4432819
  21.5935650  14.7636404   3.1911964  22.8221073  28.9578190  55.0731049
  23.0571632  29.8679657  54.8925171  23.6565266  28.4888687  55.0652618
  41.2237244  11.1175508  44.6983986  41.4908676  10.3602238  45.2192879
  40.3235779  10.9231625  44.4372940  18.1306057  37.8731155  56.6544533
  18.1675472  37.9514351  55.7011795  17.6116714  37.0839767  56.8100090
  18.7285194   1.3345072  13.5479736  18.3877087   0.4409086  13.5084591
  18.7852440   1.5280547  14.4836836  10.7313795  42.6512337  70.7456436
  11.4723272  42.4880028  70.1620483  11.1325369  42.8645477  71.5881424
  74.5426941  48.4488373  43.3073616  73.6379471  48.3218002  43.0218239
  74.9951935  48.7772064  42.5304108  73.8352814  30.3875713  21.3117867
  73.2127762  29.6735363  21.4491539  73.9535828  30.7725658  22.1801281
  45.8284988  17.2347469  87.1933441  46.5458069  16.7405834  86.7964783
  45.3563614  16.5900974  87.7203598   2.6080739  50.0624313   4.8613844
   2.3987494  50.4813995   5.6961789   3.5545437  50.1716881   4.7692461
  28.5531559  35.2438850  26.4853058  29.1634998  35.8798828  26.1121845
  28.5057201  35.4734039  27.4133701  63.3047447  12.2594137  87.3485565
  63.8721809  12.6428499  88.0173111  63.8681717  11.6425781  86.8813400
  46.8185883   5.5544014  61.1434174  47.5354156   4.9809365  61.4145737
  47.2436790   6.3855510  60.9319458  11.3786449  15.2433977  88.0508194
  11.0660400  16.1440907  87.9655914  11.5504484  15.1370239  88.9864502
   7.2225571  49.9180870  77.5320129   8.0217047  49.6124840  77.9611969
   7.0113621  49.2299347  76.9010849  12.9403410  70.5898895  15.3254175
  12.0247335  70.3150406  15.3739243  13.3105021  70.0655670  14.6152744
  77.9589615  61.7738457  15.2301865  77.2539291  62.0834923  15.7987652
  77.5333939  61.6097527  14.3886404  72.2884674  51.3501930  49.5425110
  72.9529343  50.6916199  49.3400154  72.6082764  51.7764969  50.3376312
  55.8003235  50.1765480  63.0177650  55.4624748  50.1274338  63.9120102
  55.0209351  50.1275787  62.4642448  23.5475693  67.0781555  41.6942902
  24.4234295  67.4615784  41.6486359  23.4711571  66.7619705  42.5945244
  22.9649353  17.7844810  32.1733932  22.5899181  17.0690784  31.6597843
  23.4110088  18.3338509  31.5288429  85.9541473   0.5918213  28.6759624
  86.8719254   0.6775153  28.4179268  85.7886047   1.3552258  29.2291718
  77.9581528  20.4451313  31.9715214  78.7229156  20.6027622  31.4178715
  77.8063736  19.5022125  31.9074993  78.0834427  60.6215172  87.4357758
  78.7784958  61.1115303  86.9964218  77.7663116  61.2143555  88.1170959
  21.2156105  53.1477356  34.4115105  21.3881454  53.7585678  33.6950302
  21.9854565  52.5792809  34.4322472  31.3461304  16.4454727  28.0394192
  31.2316875  17.3811321  27.8730602  30.5376682  16.1794395  28.4774246
  86.1457443  52.0599480   1.4814827  86.6549377  51.4061394   1.0024378
  85.6185837  51.5496254   2.0962219   3.8441863  51.1760979  55.3319054
   4.0745034  51.1859932  56.2609291   4.1151228  50.3100891  55.0271835
  35.0042953   0.4230016  38.0660286  35.4052315   0.6810993  38.8960075
  35.7285080   0.0685236  37.5501900  71.3204651  70.8578568  14.2800627
  70.7238159  71.5964737  14.4012346  72.1609650  71.1716843  14.6136818
  22.6756248  17.3099136  20.0672379  22.3978481  16.9720821  20.9186745
  23.2360477  16.6221333  19.7079144  37.0747070   7.1419401  60.0959167
  37.4447823   7.9921646  59.8584442  37.4615898   6.5292177  59.4705162
  29.6683636   3.3479409  71.1467514  29.1203823   3.2910941  71.9295120
  30.4183540   3.8775756  71.4173660  41.2665939  12.2300673  64.5290070
  40.7841911  12.6764441  65.2248993  41.0238037  11.3088684  64.6221542
  18.5613251  56.2973747   7.8152165  18.2131767  56.8823509   7.1422930
  19.4886665  56.5267868   7.8755641  24.6572475  44.5968399  77.9454727
  23.8254032  44.6902847  78.4097290  25.1561127  43.9716759  78.4713364
  73.8172989  43.7587090  64.7461700  74.6997070  44.1123619  64.8580933
  73.3503876  44.4320374  64.2513504  59.0101852  42.5447273  37.6696053
  59.0050468  42.1366920  36.8037453  59.0115395  43.4851532  37.4911957
  33.3693275  21.5609341  45.0942459  33.0733528  21.4886093  44.1868324
  32.8818855  22.3055973  45.4465332  70.6519165  25.1336346  24.1819687
  69.9158173  24.5470009  24.3559132  70.4915009  25.4635754  23.2978668
  16.9805889  21.5914841  48.7208061  16.4513016  22.2887135  49.1080513
  17.4221821  21.1840439  49.4659386  13.1839781  58.9173851  12.8287439
  12.4239244  59.3446198  12.4337473  12.9386654  58.7918625  13.7454214
  63.9703255  23.1285362  57.6199493  63.7008514  23.6178532  56.8426552
  63.2246132  23.1964970  58.2162056  27.2918949  52.6924477  88.0568542
  27.2846107  53.4532318  87.4760056  26.4131336  52.6720009  88.4357910
  50.9960022  59.7166824  22.3821507  51.7975044  60.2319527  22.4733753
  51.1001854  59.2572060  21.5489292  36.9520531   2.6496284  26.7640438
  36.9551811   3.5303247  26.3890820  36.6561279   2.7742794  27.6657753
  64.9074860  41.6203651  11.0669069  64.2370300  41.9042702  10.4455166
  65.0127945  42.3630295  11.6615419  84.0943909   5.5348840  28.4152012
  84.3257446   4.6385255  28.1717911  83.2967453   5.4432549  28.9363537
  25.7060280  61.5749397  42.9031792  24.8163357  61.5833702  43.2561760
  25.6042099  61.8453445  41.9906311  18.7042789  22.1441383  16.7089882
  18.8085938  21.9385185  17.6380043  19.3485947  21.5908756  16.2674103
  59.5727921  42.0092773  78.1809692  59.0068474  42.7801628  78.2218781
  59.9675064  41.9554710  79.0513382  51.9060211   8.6732931  39.5865288
  51.0264091   8.3203154  39.7203903  52.3019333   8.0904779  38.9385986
  24.0899754  65.8664627  70.6067886  23.7136574  66.7465363  70.5979080
  23.9607754  65.5597687  71.5042725  75.1810303  10.3716831  63.6351357
  75.5446014   9.7384415  64.2540436  75.5080719  10.0873365  62.7816582
  29.8440533   8.8899956  49.0779686  29.2501030   9.4929581  49.5250587
  29.7282677   9.0852242  48.1480713  74.6065674  56.3503304  66.5460205
  74.7799911  56.1095581  67.4560699  75.1951294  55.7947769  66.0349579
  68.6241684   8.4848433  68.5405350  68.7620621   8.3110933  69.4716797
  69.5067368   8.5477915  68.1753693  41.9831734   9.7326660  73.5496368
  42.4519691  10.3285618  74.1339111  42.3332176   8.8668261  73.7594604
  74.5199509  55.7680855  71.7404556  74.9397583  55.8375206  72.5978775
  73.7329636  55.2472687  71.9005661  29.3550587  54.6131439   7.7205114
  29.7534809  55.2374001   7.1140518  29.9186478  53.8408623   7.6738539
  76.6044693  37.3191528  12.8932180  77.1343842  36.8798904  13.5584030
  75.7304306  37.3721275  13.2798424   9.6289158  46.0054817  67.6624908
   9.3593264  46.8358498  68.0549698  10.3339090  46.2429733  67.0601501
  65.3858795  32.7997246   5.4933949  64.7530975  33.2653313   6.0402336
  66.2384338  33.0394135   5.8566117  73.5747375  18.1425171  27.7483463
  73.4213791  18.1326218  28.6931305  73.1540909  17.3441830  27.4290466
  67.1221695   1.6783040  20.6441727  67.0647888   1.6228051  21.5980377
  66.7420502   0.8567132  20.3331547  58.8270683  47.9280891  55.1832848
  58.3094330  47.5916557  54.4517784  58.7764549  47.2414780  55.8482933
   1.0514973   7.5845056  10.3238411   1.3423272   7.1468806  11.1239252
   1.7561710   8.1983891  10.1169243  42.0841293  56.2314835  66.9424438
  41.9251671  55.8067551  66.0994873  41.2763138  56.7114487  67.1249161
  40.6798706  67.0967255  19.1460648  41.4131241  66.5348358  19.3967743
  41.0747948  67.7764206  18.5999088  42.7989998   9.9803047  77.2715759
  42.5663872   9.0889368  77.0115967  41.9596748  10.4338875  77.3492203
  38.0434647  53.3292046  24.3921738  38.4895973  53.1412163  25.2179203
  38.3706284  54.1908989  24.1339474  56.8438148  55.1174660  68.4894028
  57.0521507  55.4580765  69.3593521  56.3070602  55.8002892  68.0870667
  54.2937279  20.2799816  19.9106865  54.7129326  20.9158192  20.4905243
  53.5621071  20.7579288  19.5201359  72.4584122   9.1324224  11.8439484
  72.0822144   9.1022005  12.7236042  72.9052200   9.9779749  11.8034544
  18.9045525   9.8491583  38.5758324  18.6286430  10.7396231  38.7930374
  19.6556568   9.9663105  37.9941521   9.4665718  70.1446381  72.7700348
   9.7092905  70.9244080  72.2707596   9.1598816  70.4843750  73.6107254
  57.8219337   5.4556937  61.9876328  56.9469986   5.7036133  62.2863846
  58.1096344   6.1937637  61.4503136  46.0877571  25.9612637  21.4990673
  45.3429680  25.3672447  21.5921135  46.2425308  26.2917633  22.3839664
  10.0951118  35.6160736  47.6370811   9.7697763  36.5065384  47.7692108
  11.0476856  35.7088623  47.6220932  74.9363708  58.4928360  17.9881554
  75.3754044  57.6582489  18.1523247  75.6228485  59.0593834  17.6360130
  23.8037605  37.7012787   2.7139752  23.4605923  38.4049301   2.1632090
  23.0670052  37.0995598   2.8205414  26.3943958   2.6459486  49.8136482
  27.0537910   2.5275080  49.1299820  25.9516087   3.4619389  49.5805588
  78.5744934  58.8295097  79.8001251  78.9173279  59.6625481  79.4764786
  78.0330200  59.0693130  80.5521393  65.5525513  47.3990669  84.2521591
  66.3291016  47.3549805  84.8100662  65.7082062  48.1536713  83.6842041
  27.5912628  28.6750641  84.3343430  27.1095009  28.5497131  85.1519165
  28.0059299  27.8284416  84.1684723  56.7516556   9.6802340  16.8349457
  56.4120293   9.0219316  17.4411831  55.9702263  10.0806255  16.4537811
  70.3286591  11.8014240  10.1244564  70.5303650  12.5215492   9.5269899
  69.8558884  11.1677685   9.5848274  46.3507347   4.9978743  14.0206327
  46.1926308   4.6641812  14.9037428  47.0530624   4.4451442  13.6779118
  17.4470139  68.1376724   5.1273975  17.6760464  68.1792755   4.1989336
  18.2878704  68.0610504   5.5783105  56.3715248  40.5237999   3.0476022
  57.0323753  40.1838684   3.6508842  56.5449638  40.0708733   2.2223723
  30.4839706   6.7645497  34.2799606  30.5318069   5.8161426  34.1596794
  29.6102810   6.9165220  34.6402397  50.2786026   4.9893045  27.1884251
  50.8498344   4.4388490  27.7240791  50.4984550   5.8845983  27.4460011
  75.2161255  38.4190636  26.3858433  74.3993759  38.0778885  26.0214939
  75.9014282  37.9000359  25.9648819  29.2154140  16.2338371   0.7993719
  28.7087822  16.2181416  -0.0126066  29.8725643  15.5473270   0.6849627
  53.1696968  42.0845909  22.7906322  52.8186913  42.3023071  23.6541309
  53.1232719  41.1295090  22.7470646  70.9845428  69.2195129   1.7340897
  71.2606735  68.4304962   2.2003784  70.6045303  68.8946915   0.9178089
  58.3224754   9.9255371  47.4361687  57.3768349  10.0738268  47.4380531
  58.4491348   9.1948891  46.8309059  18.2997284  27.3493080  17.2812271
  18.4277802  26.5166779  17.7357197  19.1434250  27.7952003  17.3559628
  52.6393204  47.5514679  26.4520397  52.0850639  47.8363876  27.1785736
  52.5355835  46.6001511  26.4304199  67.1263580  33.3278236  23.0585842
  67.0861816  33.0590439  22.1407738  66.7946930  34.2257271  23.0599442
  85.3406525  33.4631882   2.8184335  85.9706192  32.9780846   2.2854724
  84.5586548  33.5231323   2.2696974  25.9997864  52.1518326  30.1677418
  25.4588814  52.8124847  30.6003971  26.8636189  52.2497559  30.5682850
  50.9880638  45.3624077  76.7897797  50.0390167  45.3254089  76.6707382
  51.1859970  44.6248512  77.3669052  81.7735672  49.9425583  65.7288666
  81.2854385  50.6316986  66.1794739  81.1323471  49.5375214  65.1449051
  73.8884735  52.7405243  21.8068867  74.1679459  53.3045349  21.0857620
  74.1804581  51.8649635  21.5531654  22.7591000  62.6544037  36.6249008
  23.0779152  62.6654816  37.5273781  22.2342567  63.4510345  36.5464973
  86.4321976  29.7465286   2.6262851  85.5353775  29.9646778   2.3725767
  86.3477707  28.9400482   3.1349051  56.1834488  11.0030499  32.2736015
  56.8489532  10.9659977  31.5866051  55.5386314  11.6314859  31.9487801
  45.6962891  70.4726334  79.0957184  45.4803619  70.8160019  78.2287064
  44.8515053  70.2285843  79.4738846  84.9439163  41.1947098  56.3368874
  85.0802078  41.4888611  57.2375145  85.3661041  41.8649673  55.7995338
   0.7339485  52.0884895  10.7269630   0.2777756  52.7032738  11.3015738
   0.6613643  52.4766769   9.8550272   6.6135788  10.7553940  87.0346298
   7.3837519  11.3199406  86.9686584   6.7537498  10.2517662  87.8364639
  59.8172340  12.3914680  58.2351189  60.0459366  12.7989159  57.3997078
  58.9116287  12.6588421  58.3920326  69.2938156  29.0930672  62.7313805
  70.0676727  29.5683060  63.0338974  69.4535522  28.9437370  61.7994919
  13.5121288  53.1005936  81.8605347  14.1248350  52.4960175  81.4418335
  13.9189034  53.9612732  81.7605743  24.7619896  59.2803497  32.6417847
  23.8494835  59.0926361  32.4219475  24.7133141  59.7943382  33.4478111
  56.3746567  54.0507622  74.2050705  56.0648651  53.7223778  73.3610153
  55.6550865  54.5917473  74.5303116  54.5626602  22.3068714   3.5227995
  53.8780899  22.6918697   4.0699482  54.4539528  22.7291145   2.6706696
  58.3051224  23.6527252  78.9705963  59.1913834  23.7731247  78.6296082
  58.0852165  22.7472210  78.7516479  80.8088150  38.5086136   5.4098487
  81.0167618  39.3002319   4.9135284  81.4762497  38.4732857   6.0950580
  63.0526505  36.0202332  16.3934402  63.7658272  36.4983711  16.8165226
  63.4540863  35.6281624  15.6179647  14.0560751  18.6105995  43.7785454
  13.5116177  17.8484364  43.9757843  13.5145264  19.1488743  43.2012939
  49.3023529  61.1659393  20.8149891  49.9910698  61.1921501  21.4792290
  48.7517014  60.4256783  21.0699959  47.6918335  23.4559689  14.2190189
  47.6405525  22.8358784  14.9464054  48.5237808  23.2544270  13.7906742
  24.7129841  35.9191360  72.5494080  25.3013363  36.0564156  71.8069611
  25.2269287  36.1798553  73.3136826  59.8416786  20.9840240  85.5531616
  59.1120834  21.0056400  84.9339218  60.4882889  20.4107113  85.1415329
  40.2803841  25.1120262  15.2256947  39.9918137  25.2697277  16.1246338
  39.8023224  24.3282890  14.9546881  41.1314621  61.1397171  15.5953255
  41.4302864  61.3535156  16.4791946  41.1353493  61.9773140  15.1320229
   5.3937440  21.7191677   8.2331829   5.7195635  21.0452614   8.8297768
   5.8275170  22.5228481   8.5198336  76.0375748  60.5962105  22.6554489
  75.9883881  59.7744064  22.1671352  76.9570694  60.6679306  22.9116192
  82.8916931  60.2934151  66.3756714  83.8274765  60.4854965  66.3152313
  82.7229462  60.2174873  67.3148193   3.2315149  25.7327003  71.9715347
   3.2405267  24.8045158  72.2052536   3.2096031  25.7385292  71.0146027
  13.7708569   6.3265510  83.6359177  13.1459112   5.6873798  83.2936707
  13.8121128   7.0055075  82.9624557  82.5116653  54.1870918  17.6885185
  82.2326202  53.7043648  16.9104824  83.3738556  54.5337029  17.4589043
  85.3576584   8.5130816  22.3963432  85.9343491   7.8243432  22.7269573
  85.6383820   8.6464157  21.4909992  71.8396149  36.2795296  27.3834553
  71.4034500  37.1080322  27.5823841  72.2879715  36.4382935  26.5527897
   3.0133269  33.7398529  49.9931717   2.6696117  33.7368736  49.0998192
   3.3270533  32.8462563  50.1320724  20.6708469  60.0701561   7.3239751
  20.7476864  59.8203888   8.2448139  19.8192482  60.5029945   7.2634702
  79.4365005  40.6400108  70.1147308  78.8527908  40.0959053  70.6433716
  78.9575043  40.7819519  69.2982407  70.5535278  68.4558792  13.2143106
  71.1641769  67.7216110  13.2790985  71.0429459  69.2050934  13.5539837
   3.9122586  11.5372477  47.7242050   4.4189157  11.9743528  47.0397568
   3.4918482  12.2510281  48.2037926  84.9100037   6.9597564  25.3809032
  85.5549393   6.6880550  24.7278614  84.7500458   6.1725931  25.9014988
  46.7637939  26.1703320  12.9361668  46.7721405  25.3004322  12.5368729
  46.1799164  26.0824623  13.6895561  58.6063614  44.0319366  23.5054874
  59.3321075  43.9354858  24.1221085  58.9998703  44.4404182  22.7344322
  29.1304474  57.8063812  31.0129128  29.3456707  58.4353447  31.7016163
  28.3232918  58.1435966  30.6243000   8.2395344  63.5922508  46.5052681
   8.4415112  64.5187988  46.6354599   8.2502375  63.4759789  45.5552139
   3.3458705  71.5118408  60.0740662   3.0622118  72.0674591  60.8000603
   3.0862508  70.6277847  60.3334236   7.7023973  40.4605103  14.3154764
   8.3279648  41.1036873  13.9819765   7.4210305  40.8150558  15.1588993
  11.1926060   3.8021588  32.9751320  11.9411173   3.4817963  33.4784508
  10.4377832   3.3543167  33.3571167  69.1779709  -0.0110094  67.8362274
  69.5978851   0.7178252  67.3793869  68.2430801   0.1915679  67.8019257
  26.4696045   2.9910343  14.6023188  25.6512337   3.4872711  14.6181660
  26.1940956   2.0768399  14.5346785  51.0976295  33.7457314   4.5716186
  50.5438995  33.9074020   5.3354740  51.9918709  33.8397751   4.8998289
  71.4753952  70.3027649  58.8430710  70.7713318  69.6846008  58.6470833
  72.1965027  70.0325775  58.2745323  16.5847034  21.9418736  35.7018280
  16.3320312  21.4422417  34.9254532  17.3577023  22.4354935  35.4278831
   5.0064812  62.5333977  86.1956482   4.6471772  61.6527138  86.0882645
   5.4489002  62.7143402  85.3663406  51.3662567  63.2450066  32.8938828
  51.3631058  62.7062340  32.1027107  52.2071190  63.7017097  32.8693008
  50.6111641  14.7319155  74.7325134  49.8035927  14.8467398  75.2333832
  51.3082924  14.7872715  75.3861084  42.7437401   8.4921684  62.7560196
  42.2247353   9.1010103  62.2304955  43.6063805   8.9026537  62.8158913
   0.8810990  36.1119385  27.2003498   0.8974464  35.2070618  27.5120564
  -0.0346160  36.2695618  26.9704533   9.0680799   4.3476791  73.7827530
   9.8775358   4.0374870  74.1887054   8.4078379   4.2642426  74.4707565
  75.6366272  32.6007385  70.6726685  75.8894501  32.0850563  71.4384232
  76.3398209  33.2425194  70.5733032  20.2917557  69.9153519  20.8857536
  20.1619987  70.8511810  21.0394192  21.0500278  69.8711548  20.3032608
  23.0711784  24.4262962  88.5364838  23.8759689  24.1859894  88.9956131
  23.1414795  23.9917850  87.6864929  26.6585407  69.2892990  86.4754639
  27.5977650  69.2122879  86.3076553  26.4221363  68.4633636  86.8975601
  61.2665138   7.4038982  34.7198677  60.8659439   6.5919952  34.4090843
  62.1721153   7.3567677  34.4134483  67.5706482   5.7945056  74.0748291
  66.8214264   6.2156157  73.6534576  67.9426880   5.2321658  73.3954239
  27.4010201  49.9006195  24.6004677  26.5077457  50.1502724  24.3638954
  27.9508152  50.3258476  23.9423370  71.6721649  56.9204750  72.5617905
  70.7351303  57.0306511  72.7231979  71.8491669  57.4668236  71.7960205
  79.0466919  17.6999836  72.4148102  78.8342514  18.5597610  72.7779694
  79.0369415  17.8313847  71.4667206  77.0330963  31.0239143  24.9458580
  77.7874680  31.5904217  24.7839146  77.4109726  30.2140446  25.2887154
  71.5813141  46.0937996  78.6237946  71.5916138  46.8750877  79.1767120
  72.3978424  45.6407318  78.8341446  82.4704361  11.5451765   9.2811413
  82.2996902  11.5607071   8.3394213  81.9687805  10.7962742   9.6031961
  59.4804726   7.5782161  61.5382538  60.0658302   7.9241543  60.8645172
  59.9220657   6.7915759  61.8582916  82.9071045  11.4797125   2.3452973
  82.9724655  10.8442526   1.6324507  83.1387558  10.9835796   3.1304235
  25.1329365  30.7109528  84.1387634  25.1605110  31.5348911  84.6251831
  26.0182877  30.6093235  83.7893982  41.2892532  46.8954735  19.0917625
  41.0191040  46.9862671  20.0055504  41.9859848  46.2394333  19.1120338
  58.8122444  54.9212494  73.0026321  59.5000153  54.2657204  73.1187515
  58.0649414  54.5730820  73.4889908  60.8463707  55.9636574  83.0247650
  60.9566994  56.3262978  82.1458206  60.4146957  55.1210365  82.8837585
   3.4219637  37.4332581  26.9844017   2.5759153  36.9893379  26.9263496
   4.0601983  36.7664719  26.7308502  41.0536652  65.9706268  14.3534775
  41.2772903  65.8895950  13.4262991  40.3764229  66.6466064  14.3783255
  78.5595779   9.7606392  23.1491718  79.0769348   9.9190855  23.9387703
  78.2622528  10.6295376  22.8792763  67.8303833  68.3032684   1.6870604
  67.6413727  68.6898880   0.8320574  68.4078140  68.9362793   2.1137922
  56.6439095  70.1751175   5.7589841  56.6717987  70.6317596   6.5997739
  57.5032806  69.7604599   5.6830101  33.6070137  38.5691986  12.4023609
  33.9225731  38.2859802  11.5441990  32.9315033  39.2185669  12.2068090
   7.2537708  31.4721985  32.2990227   6.5233140  31.1061764  31.8003311
   7.8809228  31.7542000  31.6331482  36.5217743   6.4552107  77.3789368
  35.9494057   7.1813169  77.6267166  36.5415916   5.8912520  78.1521072
  85.2558060  26.2611713  53.7630348  86.1524811  26.5335388  53.9580383
  85.1949387  25.3712482  54.1102562  21.1707172  60.1342239  68.6309814
  21.7792511  59.8423843  67.9521942  20.5161705  59.4376183  68.6814270
  56.7663803  45.9804840  54.6925392  57.0854607  45.3507118  54.0461578
  56.4881363  45.4426689  55.4338646  19.5366364  70.0672684  69.6799927
  19.6381760  69.1187515  69.7589493  18.9675674  70.1847382  68.9193420
  15.5390730  64.8641815  84.1085815  14.8070307  64.7934570  83.4959335
  16.2181892  64.3016739  83.7362747  17.7707253  16.8217449  53.9107704
  17.2474689  16.1784210  53.4326820  17.8248196  16.4729061  54.8004990
  26.7582245  24.7142220  13.3277416  26.7657948  23.7575817  13.3595886
  27.0734463  24.9850750  14.1900101   1.3825068  14.7297258   6.8273306
   2.2175496  14.7006397   7.2943311   0.8141764  14.1340017   7.3155365
  67.6972733   9.3740225  10.6554441  67.3975449   9.0101709  11.4885149
  68.5794296   9.0199366  10.5429831  62.6160240  58.7454300  46.2152214
  62.4517860  57.8048439  46.1477280  61.8588066  59.0872765  46.6906128
  58.5302200   8.2540808  77.8582611  59.2802162   8.0270386  77.3085403
  57.7729187   8.1620817  77.2801056  35.5079956  64.1740875  56.4121017
  36.0935898  64.8604660  56.7317772  36.0868454  63.4371910  56.2167740
  49.5747604  70.1159592  75.4052429  49.2504005  70.8145905  75.9735184
  50.3745956  69.8108215  75.8334808   1.4862787  49.7767410  76.5609055
   1.3168576  50.6266594  76.9673080   2.4388194  49.7379990  76.4748993
  55.5300789  69.7887726  75.8406143  54.9369049  69.0408936  75.9116974
  55.2021179  70.4166260  76.4844131   5.3654890  30.6299419  25.7096806
   5.6869645  29.8713837  25.2223682   6.1002855  31.2433796  25.7099895
  42.3043175  11.1702213  52.7940865  42.0092468  11.4639034  53.6560135
  41.5763168  11.3775940  52.2082176  74.7904358  20.5226421  22.8409824
  74.4220581  21.0101547  22.1041908  74.2176895  19.7614727  22.9348602
  33.4876938   1.6010412  48.7581100  33.5459328   2.5397599  48.5802116
  32.7025871   1.5077783  49.2976837  61.1902924  43.1372147  21.9001617
  60.7162971  42.7717667  21.1531639  61.5446091  42.3736229  22.3558140
  76.3856277  56.8361320  77.0795364  77.2734375  57.1525536  77.2465744
  76.1688309  56.3126259  77.8510056  49.6109276  15.6889009  78.9562988
  50.2798729  16.3664532  79.0545959  49.0636253  15.7776861  79.7365646
  65.4974365   7.6493301  14.8804369  64.7961578   7.6373262  15.5318174
  65.0448303   7.5793266  14.0399122   6.2580862  57.3371658  54.6084785
   5.9705105  58.0244064  54.0074539   6.9377518  56.8662567  54.1262665
  82.7585678  21.7496548   6.7407312  83.2889099  22.5102539   6.5031233
  83.3554535  21.0060081   6.6573877  14.4448061  61.7119522  54.8861427
  13.5730009  61.9448395  54.5668411  14.4285746  61.9408569  55.8154259
   9.0359983  36.6816063  26.5001392   9.2058172  37.4935722  26.9777412
   9.7192078  36.0810699  26.7981567  49.1805305   7.9216766   7.2856736
  49.3510361   6.9876695   7.4072881  49.9699631   8.2557945   6.8597698
  43.6173172  71.2445221   2.2382934  44.3480148  71.7550964   1.8895420
  42.9582787  71.2646942   1.5443969  77.5313187  35.2385483   3.5912161
  76.7048798  35.6902542   3.4203601  78.1802216  35.9398880   3.6484931
  78.8190079  26.3728809  16.4101944  78.7961044  26.0152760  17.2977886
  79.6621246  26.8226833  16.3548775  73.5238953  63.5158768  56.3977737
  73.3551788  64.0758972  57.1554947  73.3538361  62.6283264  56.7133179
  53.4225464  30.6156502   2.6038256  54.2155075  31.0468540   2.2852275
  52.7484703  30.8530788   1.9670504   5.8237901  16.8812866  40.2878532
   5.9928832  16.1172771  39.7365570   4.8700352  16.9180965  40.3601608
  30.0466213  12.7164660  74.7076187  29.1781578  13.0537748  74.4880142
  30.5151577  13.4728804  75.0605240  71.6738586   7.8696785  55.8714638
  71.5210190   7.3391514  55.0895348  71.1667328   7.4362206  56.5578842
  70.3064346   3.9421332  14.2373009  69.5993805   3.3039749  14.3325014
  70.8124619   3.6288919  13.4876013  74.1009216  44.9191513  79.5350952
  73.6796112  44.1420555  79.9023209  74.4776230  44.6190300  78.7078934
  80.4937057  45.4788513  69.4038544  80.5674591  46.4328117  69.3764191
  80.2880173  45.2807083  70.3174515  43.2113838  46.6217804  77.7142944
  42.7024841  46.4897842  78.5141830  44.0044708  47.0711365  78.0064011
  64.8891296  32.6053085  76.7241135  64.9677887  33.2526360  77.4248428
  65.4486771  31.8806915  77.0035248  48.3698959   8.1649084  35.8246956
  48.1141129   7.9389811  34.9304008  47.7374191   7.7063460  36.3778000
  40.7598915  11.5123653  47.9139557  40.8776512  10.5844584  48.1173134
  39.8115959  11.6419611  47.9270439  10.6769257   1.3908244  51.6160583
  11.3546867   0.9416690  52.1211624   9.8744841   1.2578721  52.1206779
  -0.0620931  64.5949097  21.2315865   0.3548722  64.5101089  20.3741589
  -0.1567733  63.6943932  21.5419827  27.7262363  63.3378258  21.1302242
  27.9122543  62.9844437  20.2603092  28.4582043  63.9276466  21.3106880
  62.6097984  23.5786057  21.5127335  62.3030853  22.7536011  21.1365299
  62.8929291  24.0952511  20.7583160  56.1538696   6.7109599  69.9428864
  56.9632072   7.1853666  70.1329956  55.6403656   6.7812524  70.7476196
  13.8452015  66.9713211  57.7194672  13.5248518  66.1327972  58.0518684
  13.5500059  67.6134262  58.3650627  84.5671463  52.3517342   4.9405055
  83.7124176  52.1868248   4.5424194  85.1272202  51.6524277   4.6035757
   8.7429800  67.3043365  59.2890930   7.8423028  67.5810623  59.1204567
   8.6773491  66.7247162  60.0480156  61.3246193  49.4136124  24.4323158
  61.3584633  49.0671234  25.3239613  60.5238152  49.9374504  24.4091530
  75.1347809  19.7695122  72.6865616  75.1948547  20.6546249  73.0459976
  75.8369064  19.7264500  72.0374146  24.9621086   6.5218892  34.3445969
  25.5186939   7.2691092  34.5639267  25.2058754   6.2970610  33.4466782
  26.1899090  65.9837494  22.0890636  25.8814793  65.5555801  22.8876705
  27.1194153  65.7602539  22.0411415  79.9599304  26.8950958  71.3102112
  79.7683563  27.2050304  70.4250717  80.2227783  27.6818771  71.7878265
  31.5294781  11.2038164   9.6867981  32.4612427  11.3986149   9.7873077
  31.3010330  11.5621529   8.8291035  27.1826859  60.8745232  32.5792503
  27.2923565  61.3781166  31.7726517  26.4259453  60.3132820  32.4101868
   9.6678343  26.2932949  88.5556793   9.7661753  25.4962273  89.0764923
  10.0769405  26.9775543  89.0854416   2.1757812  52.8968430  60.1394768
   2.0307283  53.7881813  59.8221359   3.1221554  52.8406792  60.2715912
  62.7086868  40.5956345  29.8336430  62.1302338  40.0926514  29.2603779
  62.1430511  40.8868141  30.5488377   9.6563721  12.5539055  25.3100815
   9.3406076  11.9960537  24.5992184  10.6032352  12.4140987  25.3217106
  35.5783501  71.4715652   5.0512466  35.9500961  72.0209045   5.7413650
  36.0046616  70.6221924   5.1655116  46.1118774  64.2813950   3.8706710
  45.9572983  63.8000488   3.0578704  46.6584053  65.0226669   3.6098073
  12.7594242  58.4735947  56.5464935  13.5787945  58.1716805  56.9385567
  12.3933840  57.6949120  56.1270905  13.1494770  52.8160400  18.2102661
  13.3070183  51.9722443  17.7866859  13.6420279  53.4446259  17.6825275
  63.1938133  52.6805840  82.0045013  63.3045959  52.0133781  82.6818466
  63.9325943  53.2758141  82.1315231   4.5524993  27.1007099  27.3731594
   5.2651238  27.3216152  27.9728260   4.4713945  26.1491432  27.4377651
  25.9835987  13.1173172  11.2658129  26.5546474  13.0393095  12.0300446
  26.1313553  12.3101254  10.7730246  60.2297401  53.7633057  38.6005707
  60.9118195  54.1440353  38.0473595  59.6232491  53.3524475  37.9844589
  63.2592926  25.8999252  14.2412577  63.7354088  26.7296276  14.2075214
  62.8959694  25.7963371  13.3617706  42.0499077  31.9907436  85.2871857
  41.5306778  31.3661861  84.7806702  41.4568367  32.7261734  85.4409409
  80.8824921   7.1182313  50.5706863  81.5295868   7.2772923  51.2578583
  81.3869553   7.1380143  49.7574425  28.6633625  62.4623756  48.8143806
  28.0870285  62.9201393  49.4263611  28.3547535  62.7302094  47.9487839
  81.8698044  20.8777447  14.5462465  81.3184586  21.6533108  14.4425526
  82.7392502  21.1626053  14.2649136  84.7734680   6.3043618  54.8041687
  84.6472397   6.5648770  55.7165451  84.6602631   5.3538899  54.8086243
  66.4549713  70.0862045  66.9299393  66.6598816  70.7989349  66.3247452
  65.9225006  69.4801636  66.4147491  77.2329865  17.4082413  55.0116882
  76.6999512  17.3033314  55.7997818  76.8533249  18.1647320  54.5646896
   8.3001204  53.4747467  43.3903503   8.3328724  52.8236084  44.0911903
   8.5769777  52.9983292  42.6076584   0.2227742  54.2188263  79.6184464
  -0.1808551  53.4592628  79.1984711   1.1627109  54.0417023  79.5813293
   6.7535224  26.1015778  20.6525021   6.8681998  27.0436954  20.7769928
   5.9493136  26.0239468  20.1392250  27.4217072  13.0520334  73.8618546
  26.8540077  13.0535002  74.6325378  26.9830418  13.6327868  73.2401428
   2.2672458  42.7589417  86.2205124   2.0888746  43.1943398  85.3869400
   2.1338601  41.8287735  86.0382309  69.7427368  49.1948891  42.6952209
  69.5776520  50.0620613  43.0653419  70.6119232  49.2645073  42.3003693
  47.6474724  13.6761379  45.6099892  48.4767838  13.5477781  46.0704193
  47.4861298  12.8415117  45.1699905  15.4889784  12.5006332  51.5078049
  15.4506321  12.9752550  50.6774445  15.8646431  11.6501064  51.2804031
  40.3456345  49.2754288  87.5616379  39.9979820  49.2394447  86.6705322
  41.2723808  49.0557175  87.4662323  10.1130667  41.6086845  86.7575989
   9.1802797  41.6423874  86.9697418  10.3663912  42.5248833  86.6452026
  49.6070213  16.2034931  23.1045151  50.3848343  16.2155590  22.5467587
  48.8869705  16.4311047  22.5163383  35.8452415  16.3683739  45.2142334
  35.5134163  17.1292496  45.6908798  36.2551918  16.7362518  44.4313927
  78.6941376  38.1359520  51.9981766  78.4470901  37.2118492  52.0333366
  78.1025543  38.5175171  51.3495789  56.9354401  35.3066292  87.5926666
  56.4383850  36.0777245  87.3195724  56.2792664  34.6141815  87.6712875
  64.7281876   0.3419900  22.2741089  64.6814194   1.2909752  22.3901787
  63.9441109   0.0084264  22.7102261   4.7348638  29.5535469  56.1618156
   4.7785521  30.3778610  56.6464081   3.7989995  29.3635750  56.0962372
  58.6902351  20.6689472   6.7352529  58.6636887  21.3677158   7.3888950
  58.3555183  19.8986378   7.1944065  36.5690498   2.1373873  72.8449326
  36.1200142   1.4258274  73.3013077  35.8741493   2.7588286  72.6277771
  57.3669739  22.5207081  30.6727295  57.3599014  22.5996799  31.6266403
  58.2546043  22.7727184  30.4181099  14.2660522  50.3565979  17.8463440
  14.2470865  49.4853668  17.4503326  14.9547110  50.8209915  17.3706112
  80.6091919  24.6980190  55.5770645  80.3618851  25.2117958  54.8082314
  79.8660049  24.1127434  55.7232056  74.5976639  30.3162003  41.7781296
  75.5388412  30.4236450  41.6407356  74.1934967  30.8139057  41.0673714
   2.8736453  33.3226852  82.7906189   2.1212575  32.9547119  82.3272171
   3.1519470  32.6268234  83.3860626  66.9395752  56.8401871  35.2343063
  67.1096191  56.0688782  34.6935654  67.7947006  57.0718994  35.5966682
  16.7957077   6.3633080  88.8984985  16.2609158   7.1300611  88.6927872
  17.0227966   5.9937654  88.0452118  12.1435795  46.2252884  29.6299744
  11.7030802  45.8086777  30.3706684  11.8600130  45.7203751  28.8678188
  57.5984993   8.9962082  55.0653191  57.8718872   9.7079744  55.6440086
  56.7439423   8.7278738  55.4028969  32.0912514  28.0024300  29.9277687
  31.3653889  27.3855743  30.0218277  32.8768044  27.4659386  30.0341282
  79.8587265  46.1325111  65.3000870  80.0040665  47.0117531  64.9507370
  79.4361420  46.2779388  66.1465530  10.4686346  16.3590527  37.8543015
  10.4062700  16.5870533  38.7818565   9.8420296  16.9395561  37.4223137
  41.6694489   4.3229675  30.2332325  41.3106232   3.6814582  30.8463745
  41.6870346   3.8665266  29.3920517  51.6267395  67.8341446  55.3161774
  51.5879669  68.6794281  54.8687134  52.5602226  67.6856766  55.4671860
  30.5601597  48.8768501   4.1708994  31.0256577  48.0954857   4.4692388
  29.6342659  48.6415825   4.2309332  72.8058548  61.3006744  80.6770935
  72.0719299  61.3042908  81.2915649  72.6324005  60.5560341  80.1012039
  72.5933380  34.4122887  16.1279564  72.7460556  34.5294876  15.1903133
  72.5599442  35.3024483  16.4782906  60.6526031  29.0222569  37.6342392
  61.2163544  28.6773834  36.9417915  61.2355766  29.5560398  38.1740990
  58.8573380  61.8687019  53.3771477  58.4431725  61.0474510  53.6421776
  59.7436714  61.6171188  53.1176224  11.9551802  42.6381073  54.9186440
  11.7714891  42.1347504  55.7118149  11.2648840  42.3817825  54.3070679
  72.4548264  31.0341320  13.3582726  72.8249054  31.8618088  13.0513144
  71.9154587  30.7279167  12.6291990  47.1804390  68.8944550  12.2132196
  48.0222626  69.0612030  11.7892427  47.0801353  67.9430847  12.1806412
  81.6079254  65.2392426  61.2122116  82.3614273  64.9558334  60.6943817
  81.0007553  64.5001450  61.1759415  56.9468994  65.3417816  34.8248978
  57.4014740  66.1768494  34.9355812  56.9493484  64.9501419  35.6983032
   3.0738852  36.1124725  13.7907410   3.6057270  36.2523384  13.0072775
   3.2355480  35.1999168  14.0301971  76.4576187  26.6389656  63.0578766
  75.6223602  27.1064186  63.0499840  76.3702393  26.0044041  63.7691650
  32.5327225  40.9276085  16.8859901  32.8626900  40.6621475  16.0275707
  31.5910759  41.0403099  16.7562542  27.7220612   8.0498962  25.5186386
  27.1855316   7.2699003  25.6599731  27.1624565   8.6365519  25.0098076
  81.3454437  49.8000031  31.2117996  81.7117004  50.6138229  31.5578938
  82.1087494  49.2903519  30.9400272  29.8365784   1.2106668  69.2455902
  29.1500721   0.6223432  69.5599365  29.6891117   2.0273168  69.7226334
  58.8722076  10.6680403  18.4618053  58.3117409  10.6144209  17.6877022
  59.1784897   9.7714987  18.5983143  37.1027908  33.0771523  41.8250198
  37.9863739  33.4388885  41.7567673  37.1881790  32.1760521  41.5136375
  59.0565796  69.2845764  47.4175568  58.2348442  69.6702652  47.7212563
  59.1772575  68.5122604  47.9700012  29.4654942  22.8004169  83.0937195
  28.9050274  23.4120045  83.5712891  29.1004314  22.7818069  82.2090683
  -0.1337613  15.4689875  39.7428398  -0.1397421  14.6980581  39.1755104
   0.7829157  15.7437429  39.7639236  42.1109848  58.9399071  59.6793442
  41.2923279  59.3988571  59.8674927  42.0511589  58.1275635  60.1820908
  56.8425446  46.1982956  64.0048981  56.4913864  46.7847252  64.6749954
  56.1750107  46.1914940  63.3189087  34.1742477  71.4557114   1.9235183
  33.7790985  70.5967102   2.0725601  34.6875076  71.6236191   2.7138345
  74.8304749  19.5627060  42.6838226  75.3642731  19.4624233  43.4720116
  74.1149750  20.1397171  42.9509354   2.8563695  37.5871925   8.1694670
   3.4042714  37.1431313   7.5222855   2.3899412  38.2569084   7.6693096
  58.5447006  14.9674826  45.5762253  58.7119408  14.1572428  46.0576553
  57.5924072  14.9996433  45.4849472  42.8802605  12.8761234  34.6774101
  42.5008202  13.7413139  34.8313599  42.5161705  12.6011925  33.8359337
  21.3439217  53.8078918  80.2009354  21.7421169  53.6944542  79.3379135
  20.4227104  53.9920044  80.0173416  17.9139194  33.6336784  28.3042507
  17.7503242  34.2416000  27.5832100  18.3352413  34.1682167  28.9772949
  49.5698318  40.1260338   4.3634439  49.9331322  40.4410095   5.1911125
  48.6254959  40.0884476   4.5152626  43.5191040  12.1382923  68.2608261
  44.1073952  11.6837006  67.6579208  42.8127708  11.5130548  68.4233017
  72.5355911  18.7352676   5.2609372  72.3504562  18.3305607   4.4134889
  73.2846298  19.3075314   5.0945415  30.7079258  66.9691620  20.4099064
  31.4383755  66.5466919  19.9580269  31.1233063  67.5916443  21.0067368
  21.6677933  34.1219215  80.7173309  21.0204201  33.4210663  80.6402740
  21.2521400  34.8784523  80.3036575  63.8293610  69.3716736   1.5355296
  63.2534599  69.3700027   0.7709621  64.7121964  69.3115234   1.1705327
  44.8453751  27.9647903   8.1597013  44.3191452  27.2430134   8.5037231
  45.7190704  27.8182106   8.5221977  76.2847214  48.9288940  25.4196358
  75.7814484  48.4183998  26.0539398  77.1043777  49.1306877  25.8709488
  46.1000900   2.9075866  16.3833656  46.2741203   2.2160835  15.7447977
  46.9612236   3.2791860  16.5746708  75.5504913   9.5017834  25.8042564
  76.3476105   8.9724321  25.7792873  75.8466187  10.3675413  26.0853329
  38.4221268   4.7492352  85.0262375  39.0132294   4.9386873  84.2975845
  37.9461479   3.9656971  84.7510300  25.5717564  16.3526573  65.5934525
  25.1938972  16.4432907  66.4682312  26.5041599  16.5313587  65.7156067
  85.0674362  26.7203426  74.5352249  85.2134476  26.4373608  75.4379044
  85.9018631  26.5577660  74.0953064  16.8220100  37.4913902  11.8287668
  16.5881271  38.3722000  11.5360107  16.0410576  37.1745872  12.2826185
  81.6697006  43.8818130  67.5977249  81.0399246  44.3113976  68.1765823
  81.6797791  44.4249153  66.8095856  75.3078384  57.1059227  47.9792480
  75.2561646  56.7343712  48.8598785  74.3964615  57.2597771  47.7303467
  56.8690414  18.4782314   7.9179072  56.2528877  18.4525166   8.6499758
  56.3396606  18.7517300   7.1687846  21.4964314  55.2762489  27.6210842
  21.7514687  55.0742531  28.5212994  20.5768852  55.5343246  27.6848316
  49.1077766  22.4891205  38.0910912  49.8395462  22.8578072  38.5858841
  48.3343887  22.9296322  38.4432945  78.9804916  15.3165369  38.5166168
  79.6816559  15.2726164  39.1667519  79.1445160  14.5727777  37.9368362
  11.0897179  25.8174839  40.6869164  11.1136847  26.6076393  41.2266502
  11.8803453  25.8701630  40.1499214  49.8028145  59.5949669  68.5648346
  49.0598869  59.4376678  69.1475449  49.4856033  59.3405838  67.6982956
  62.4816933  36.8026543  42.4406319  63.3097267  37.0391426  42.0227013
  62.3027191  37.5246086  43.0431137  86.6135483  62.2671928  22.5066376
  87.2261200  61.7140541  22.0218391  86.3334274  61.7250786  23.2441158
  85.7146988  13.9612083  68.4948120  84.9132690  13.4402962  68.5456848
  86.2364349  13.6717310  69.2432938  16.2469158  36.4801064  20.3190079
  17.0862198  36.0312538  20.4206505  15.7145834  36.1604385  21.0474758
  65.3718872  15.8963766  68.9884567  66.0027695  16.4762955  68.5619354
  64.9753799  16.4356499  69.6726990  18.1865101  13.1159296  11.5162630
  18.3911762  13.9885073  11.1801805  18.1413479  12.5632696  10.7360334
  29.8560963  15.5001879  44.0494576  29.7523079  15.2744846  44.9738579
  28.9639549  15.5057507  43.7026405  67.2602005  23.5538387  36.8571892
  66.6934357  23.9032822  36.1695137  67.3515549  24.2739143  37.4811897
  14.3962088  20.9971447  84.5144577  13.7907400  20.9852962  83.7731705
  14.9027948  20.1901684  84.4228592  67.5891037  63.2966881   3.6566486
  67.0769958  63.4188881   4.4560537  66.9346924  63.1613388   2.9713306
  35.4249420  12.6475048  43.8879013  34.7422371  13.2375450  43.5685310
  35.9516983  12.4493446  43.1136322  81.2538757  64.6068344  52.2584381
  80.9918594  63.8481140  52.7798958  81.0397568  65.3606949  52.8080635
  75.8532562  13.3032217  35.9474030  75.5057526  13.3741398  36.8364754
  75.2913284  12.6558323  35.5215416  39.6151733  62.1605377  83.2600479
  38.9601822  62.3875923  83.9200974  39.4096870  62.7248421  82.5146790
  27.6087437  12.0680885   1.5705566  27.8260174  12.9264011   1.9343219
  27.6130981  12.2015867   0.6227217  38.1366386  43.9283104   9.4208288
  38.5722618  44.7700462   9.5547867  37.9802971  43.8869972   8.4773874
  62.6697426   6.5337501   1.0753369  62.5247192   6.2016115   0.1894003
  62.2025375   7.3688917   1.0974984  78.5374908  50.5757866  74.3864212
  78.1118240  50.0504379  75.0639572  77.9682388  51.3381424  74.2815323
  28.2683601  41.8055763  83.4901962  28.3175373  41.4623985  82.5979843
  29.1719837  42.0326080  83.7096329  54.1581039   1.4466392   5.8854218
  54.3984795   0.9270312   5.1183109  54.0908813   0.8083547   6.5955667
  70.9645996   8.1162834  47.6098099  70.5688400   7.4681926  48.1925468
  70.5303879   8.9387436  47.8361969  62.6396217   9.5823746  68.7447662
  62.1482201   8.7738266  68.8896942  63.1455078   9.4158993  67.9494019
  76.4862976  28.9705811  22.6625919  75.8290405  28.9072113  23.3555775
  76.7721481  29.8837910  22.6863823  51.9229202  51.6518173   5.6917253
  52.6000557  52.3281784   5.7077932  52.2812500  50.9675446   5.1263924
  43.2544518  24.0461655  15.0712461  42.3002739  24.0121136  15.1391926
  43.4755287  23.3498688  14.4527588  61.8609047  45.6565361   7.7003951
  62.0685425  45.5637779   8.6301880  61.3151207  44.8961868   7.4998498
  55.9385605  15.2398815  78.4715500  56.2903671  15.1054277  77.5915604
  55.5489883  14.3973036  78.7050705  47.8914032  12.9289246  10.1552868
  48.6108131  12.7592268  10.7634649  47.8344574  12.1346960   9.6240721
  47.2590904  28.1309223   1.0242202  46.7054749  28.7727680   1.4689407
  47.0970421  28.2794590   0.0926034  16.4172115  22.5534439  84.5901260
  15.6154060  22.0306282  84.5918198  17.0211563  22.0675488  85.1517181
  13.3596373  18.0812492  78.1280518  13.2128906  18.1268806  79.0728302
  13.0534868  17.2089176  77.8799744  16.0891972  61.3084221  14.9323740
  16.9206429  60.9361343  14.6385508  15.5659885  60.5503044  15.1926565
   4.4849377  18.5136681  47.2785683   3.8197346  17.9927464  47.7284317
   5.2560277  17.9470959  47.2530746  59.8180275   3.2263141  54.6951981
  59.8340492   3.4522510  53.7651863  59.5743408   2.3008175  54.7126770
  11.3015881   8.4345026  24.7950649  11.9542770   7.7534270  24.6326923
  11.7361174   9.2483501  24.5399780  49.9263687  10.4700689  36.5551300
  49.4884224  11.0269213  37.1988297  49.3268776   9.7349195  36.4270668
  46.6500282   9.3755178  56.9916420  45.8693466   8.9091740  56.6928215
  46.9312973   9.8837624  56.2308502  64.3733368  37.0765305  69.1790161
  64.7786179  36.3957596  68.6418610  64.4676361  36.7604294  70.0775757
  12.9330702  70.8564911   7.9247556  13.5950937  71.3427658   7.4333344
  12.1536312  70.8854370   7.3698955  63.9362602   0.6865608  11.0339622
  63.8898773   1.1887368  11.8475342  64.6724091   0.0885645  11.1632490
  66.3221130  58.6644325  33.3453827  66.5760040  57.9868088  33.9719582
  65.7508621  59.2491798  33.8433533  55.9226723  31.5849361  58.8495102
  55.4719963  32.3751450  58.5516930  56.5889626  31.4230862  58.1816063
  28.6746807  17.9879532  34.0707436  28.1314964  18.2706776  34.8064423
  28.0984802  17.4303207  33.5479889  14.6479273  58.9439659  85.3258514
  14.8959789  58.8669205  86.2471390  15.1723576  59.6740150  84.9968567
  79.2692261  26.9340134  33.8239098  78.3725128  26.7730465  34.1175423
  79.7740173  27.0212269  34.6324997  52.3015442  64.0399933  73.0687485
  52.8273163  63.2567329  73.2309418  51.4869957  63.7077789  72.6914215
  76.3626022   5.8993974   3.8393965  76.9712067   5.2494049   3.4881949
  75.5098114   5.4652114   3.8179438  68.1966782  50.9056625  62.9078445
  69.0539856  50.6108856  62.6006622  67.6581650  50.9410591  62.1172905
   2.3563867  37.0898094  31.7891407   2.0831342  37.7110252  31.1141167
   2.9181848  36.4668808  31.3280849  42.4348145  31.1397934   2.2705510
  42.7788658  30.7122726   1.4862769  42.9106178  30.7318020   2.9940052
   4.4393735  54.3911552  15.3086300   5.0879092  55.0949440  15.2909288
   4.8197799  53.7293892  15.8862009   6.0056705  70.5181961   7.5634365
   5.2383428  70.0927582   7.9461155   6.3700833  69.8637619   6.9674892
   5.1342645  60.0688248  55.8992729   5.9974322  60.2077217  56.2889900
   4.7289348  60.9359665  55.8996849  54.1710167  11.5893335  64.2703476
  54.0508041  12.0923262  63.4648819  54.8808174  10.9797306  64.0683670
  11.0254326   8.3147383  61.2437553  11.9408569   8.0367231  61.2743759
  10.5316563   7.5444899  61.5250626   2.5182736  43.3801155  15.4512100
   1.6795306  43.4650612  15.9045601   2.7840123  42.4738312  15.6069660
  29.3384323  20.4089661  84.6147461  29.4415512  21.1542721  84.0230331
  28.4598827  20.0766430  84.4305038  60.0734329  66.9252548  48.7465591
  61.0223846  66.8027191  48.7732124  59.8410339  67.1900482  49.6365623
  43.8338089  25.6935291   2.1685731  43.9663315  24.8668137   1.7046663
  44.4057884  25.6331825   2.9337072  82.2931595  36.3521080  26.5482368
  81.9807358  36.8519554  27.3024082  81.5588303  35.7833061  26.3170280
  84.1371841  46.8257751  82.0457001  84.6088715  46.2144547  81.4799957
  84.8174438  47.3996773  82.3979950  82.3367310  61.2218971  17.0386257
  81.8037338  61.8572044  16.5605812  83.1295395  61.7036247  17.2744675
   0.6807266  23.8626080  28.5417042   0.6216581  23.9844723  27.5941334
   1.5776436  24.1155891  28.7602730  33.2223587  16.7692852  19.4717140
  33.8101082  16.9811001  20.1969166  32.9314842  15.8754311  19.6523972
  48.0458527  46.2390442  26.3704052  47.7250328  46.4733353  27.2412739
  48.3622437  47.0638275  26.0018120  15.4936934  66.7480469  73.9032288
  14.7427540  66.9598465  74.4577179  15.1403008  66.7414856  73.0136795
  29.2266521  69.3586197  47.0553246  28.6009483  69.9384460  47.4895325
  29.3698044  68.6488571  47.6814041  79.7473450  33.9067421  71.3422546
  79.6719666  32.9850540  71.5893250  78.9822083  34.0702438  70.7908325
  44.3918915   9.6969929  38.4768143  45.0193214   9.5480270  39.1841850
  44.8420067  10.2940607  37.8792038  28.6128941  61.4034157  65.4468536
  28.0186634  61.0368004  66.1016159  29.3845253  61.6703072  65.9464417
  75.7255783   5.4667792  88.1910400  75.5755768   5.8207231  87.3144302
  76.5200043   5.9063921  88.4941330  68.8797455  50.1561050  49.9578209
  69.3862915  50.3850975  50.7370529  69.3838120  49.4570198  49.5413704
  53.8167496   9.7941418  10.5670433  53.0222778  10.1631231  10.1811705
  53.5053406   9.0695467  11.1094627  29.4480629   3.3960526  28.7803173
  30.2898178   3.8153071  28.9589386  29.1831264   3.7439220  27.9288330
  17.9968128  55.6450996  31.6326332  17.7779942  54.8429108  32.1068115
  18.5757790  56.1236687  32.2259331  14.3130989  34.1407013  16.6854877
  14.7712793  33.9497185  15.8670568  14.5946436  33.4492798  17.2845707
  28.0781059   8.2127962  70.6250763  27.8126812   7.6646004  71.3634949
  27.4813442   7.9675226  69.9179993  39.4602890  69.9126511  73.7102127
  39.2893486  69.9981613  72.7722931  39.6372528  68.9805908  73.8374176
  86.2156448  22.4534245  11.4953823  87.0226440  22.8441544  11.8305187
  86.5057373  21.8663197  10.7972536  65.1045532  43.7029800  76.5713577
  65.7581024  43.0182724  76.7137604  64.8101883  43.9397545  77.4508667
  63.9062996  25.6470299   2.9577315  64.6475906  26.2507401   3.0051532
  63.7533379  25.3838120   3.8652287  53.2424469   7.2088628  37.1894264
  52.9941063   6.2845564  37.2041588  53.9107323   7.2664604  36.5065613
  76.5173492  30.0864487  31.5013561  76.7735291  30.9753056  31.7473984
  77.3212509  29.5736542  31.5850620  76.6522064  69.0035553  32.8440285
  77.2848511  68.4351501  33.2832375  76.7187347  68.7662506  31.9191017
  34.6132469  68.3905563  14.1421671  34.5150032  69.3411026  14.0870991
  35.1314049  68.2488174  14.9344130  57.2645607  37.8771172  34.9523506
  56.4548111  37.3843498  34.8192368  56.9984016  38.7948647  34.8963852
  72.0275650  18.8813419  29.9558411  71.8904800  18.6976700  30.8851967
  71.1986847  19.2589035  29.6615047  78.1307297  31.7888393   0.9133391
  77.8742599  31.2567253   1.6665401  78.8813400  32.2958717   1.2227472
  79.2393188  30.3435154  14.2807398  79.4319839  31.0537739  13.6686583
  79.0846558  30.7831821  15.1168060  51.0361633  20.2838020   2.9705927
  50.6614265  21.1645679   2.9781175  50.9743233  19.9894314   3.8793025
  57.6730576  33.1429253   8.5808420  57.3893585  34.0246201   8.3392668
  58.6287003  33.1792068   8.5399990  50.2803345  36.3548737   9.2574368
  50.5414391  35.4948997   9.5868359  50.6809540  36.9760513   9.8656054
  77.1489563  59.8426399  38.8120232  76.3359680  60.2690239  38.5409660
  77.8297424  60.2755394  38.2968903  61.7319794  37.4413528  73.3357162
  62.0138664  38.2627106  73.7383804  62.4757652  37.1709099  72.7973175
   1.5890148  31.9958363  44.8497047   1.7814902  32.1696854  45.7710953
   1.2834342  32.8354378  44.5063057  77.9566956  28.9934330   9.4957342
  77.3168106  29.1951561  10.1784372  78.6998520  28.6174850   9.9675541
  47.8453827   8.8827114  17.2739601  47.6199341   8.4235516  16.4649010
  47.0018425   9.0729208  17.6844349  13.5688124  13.5334539  74.1392746
  13.4300842  14.4795341  74.1830673  14.4618473  13.4072371  74.4598846
  72.1344452  33.9334869   8.6066084  72.0935669  32.9782906   8.6531496
  73.0108566  34.1514511   8.9238062  50.9940147  51.3242149  77.4367599
  51.0324478  51.4500198  78.3848724  50.9238930  52.2097931  77.0802841
   8.1909428  30.0478420  88.2604980   8.4566240  29.8120708  89.1493530
   7.6475053  30.8279018  88.3719177  73.1215057  30.0215302  45.5721245
  72.2083817  29.8450775  45.7986107  73.1156158  30.9168816  45.2336884
  58.6104355  50.1402435  68.5295258  58.7590294  49.3142204  68.9897842
  59.4850769  50.4316521  68.2720108  84.6060791  31.1398144  85.4198990
  85.0452957  31.9083729  85.0556946  83.6783142  31.3752251  85.4273148
   5.5174956  69.9304504  85.3693542   4.5675025  70.0466309  85.3536148
   5.6448536  69.0444946  85.7086105   2.5152278  27.8873692  69.3340225
   3.2888613  27.4200058  69.0189133   2.7701235  28.8098850  69.3191299
  55.5036736  55.8801804  29.4253979  56.2590599  56.2010956  28.9328156
  55.6971664  56.1066284  30.3350773  36.4293404  58.9886055  51.1166420
  35.8337975  58.5896645  50.4822845  36.3083000  59.9308205  50.9991379
  36.3649101  46.2020607  11.6403570  35.8529739  46.6471519  12.3156729
  36.1462746  46.6637306  10.8308544  75.9095764  15.4043531  82.7929916
  75.2797012  14.7525072  82.4854431  76.2533417  15.0392075  83.6082993
  47.6745529  20.2618332   4.4530978  48.1164742  19.4318733   4.6322708
  47.5067978  20.2453270   3.5108576   6.6263280  31.2309914  73.1520462
   6.2474756  32.0436592  73.4871216   7.2005844  31.5105515  72.4390945
  60.2392502  52.9685364  31.8580933  59.6802750  52.4843941  31.2503185
  60.8848152  52.3263321  32.1531448  25.1278248  60.0014534   0.6356655
  25.6533089  60.2469444   1.3971332  24.5161667  60.7289314   0.5221580
  59.4811020  52.5250969  18.8475704  58.6276398  52.2073288  18.5528545
  59.6920280  51.9782143  19.6043167   4.7929358  26.8394737  63.2186737
   4.2967439  27.4350739  62.6571732   4.7920103  27.2630272  64.0770645
  14.5871592  31.6291847   1.9323002  14.4416895  31.2778206   2.8107159
  15.1884031  31.0074577   1.5221870  12.1675749  40.2283936  85.9823761
  12.3009863  39.5998840  86.6918869  11.4803400  40.8114052  86.3049240
  75.7285690  31.3761997  79.6509857  76.1101990  32.0833549  80.1710968
  76.3822556  30.6775875  79.6804047   3.1661751  24.3935871  14.1445093
   4.0945778  24.5158367  13.9461279   3.0374055  24.8475761  14.9773026
  39.4627647  13.8254013  34.6567345  38.8974762  14.2542248  35.2992210
  39.3349724  12.8895750  34.8120766  56.5026970  34.7318802  22.4311848
  55.8193207  34.2253876  22.8701553  56.7901421  34.1717796  21.7101460
   5.7601395  29.7948132  10.7637997   5.8717365  29.2494164   9.9851332
   6.3315749  29.3955650  11.4197674  22.8869953  55.6846123  35.3943214
  22.7417679  55.7472687  34.4502792  22.0750008  55.3114548  35.7373199
  12.4976053  70.2090225  66.9516144  12.2313948  70.0381393  67.8550339
  12.2405767  71.1174850  66.7939453   9.8948917   2.4489803  34.7436142
   9.5401669   1.7858697  35.3358040  10.2316771   3.1322134  35.3232727
  57.1130409  27.9852657  71.8079758  57.4419365  27.7140198  72.6649933
  57.2935143  28.9244671  71.7684631  82.2598114  33.3964653   6.6534781
  82.6523209  33.5629959   7.5104709  81.4290009  33.8713951   6.6741886
  83.4766846  37.9585114  79.8208618  82.9231644  37.4888878  80.4448013
  84.0229340  37.2786674  79.4263306  11.1672230  45.6188278  32.0547180
  10.5756330  45.5377960  32.8028412  12.0418396  45.5098610  32.4280853
  74.7630615  60.3706703   6.6474147  75.6954727  60.5870972   6.6458144
  74.7216568  59.4870644   6.2816830  66.4584961   0.7918349  42.2101936
  66.5172577   0.2405441  41.4298973  65.7107697   0.4421054  42.6947861
  84.2391357  26.0973587  26.5241318  85.0238876  26.6205959  26.6873093
  84.5535660  25.1934700  26.5053844  53.9375648  54.0046082   7.0163345
  54.2236176  54.3406105   6.1669192  54.6971436  53.5303040   7.3544197
  52.1478539   2.5696936  75.9960327  52.7632904   2.8415363  75.3151703
  52.2032661   1.6141136  76.0013123  14.4617872  50.4115906  83.4922028
  13.8450298  49.6834564  83.4169617  14.8087254  50.5240288  82.6072083
  75.1331940  32.2019577  59.1937981  74.8860321  32.3807259  58.2865028
  75.5077820  33.0253792  59.5066833  23.0115147  47.3388557  77.5851517
  22.2920437  46.7453461  77.8004150  23.7711010  46.7660446  77.4795609
  57.0063896  40.5138512  59.8966484  56.1100464  40.7036095  60.1737556
  56.9460983  40.4072113  58.9473190  48.4199257  53.0040283  37.4190674
  49.2029953  52.4966202  37.2056007  48.1638069  52.6950150  38.2880592
  34.5221939   5.8511629  15.7350864  35.3933716   5.8096256  15.3406830
  34.6085510   5.3696465  16.5578365  18.4745522  17.7780857  43.2578926
  18.0107498  18.1456852  44.0102158  17.7888222  17.6142445  42.6104622
   3.4470859  14.9443512  89.0310364   3.2502153  15.0606356  88.1015472
   2.6143146  15.1062622  89.4743271  64.4467850  50.3091278  33.2277756
  63.5668144  49.9798241  33.4106483  64.8523560  49.6254463  32.6945572
  64.6817322   1.5644988  83.7232132  64.6033173   2.0586066  84.5392685
  63.7778893   1.4166615  83.4449310  38.1418457   1.4787705  75.1916351
  37.9503403   1.6797745  74.2755814  38.4352188   0.5677030  75.1806641
  58.0464821  43.3314896  63.8534508  57.9245605  44.2808914  63.8537064
  58.2137871  43.1117439  62.9369621  32.9005089  52.9030647  14.3251753
  32.0637894  52.7565651  13.8839636  32.9788170  52.1726227  14.9388180
  53.6019096  54.8433380  33.2500305  53.6591911  55.1827393  34.1432037
  53.7722893  53.9056129  33.3387489  72.4841537  15.1156178  84.1481476
  71.6433029  14.9202995  84.5617371  72.7718353  15.9289637  84.5627975
  58.8985481  19.9368973  74.0897827  59.1806030  20.8508606  74.0530167
  57.9737358  19.9615746  73.8441391   9.1377077  67.9271545  86.7809753
   9.9860144  68.2767792  87.0536880   9.2834949  67.6140213  85.8882675
  55.7718925  49.7023926  15.9606285  55.2155571  50.0847893  16.6392269
  55.3829765  49.9978905  15.1374273  74.6041641   0.6586327  73.9582367
  74.3072586   0.7599649  73.0539093  73.8785095   0.9901654  74.4871445
  35.2157745  54.7414360  12.1961517  35.6466217  54.4404030  12.9961414
  35.5207100  55.6418266  12.0841560   0.5258783  35.3133316  63.9705467
  -0.2271005  35.8982086  64.0552597   0.3727840  34.8429451  63.1510773
  51.3366776  47.8119698   1.7468678  50.5797386  47.2279472   1.7000451
  50.9594002  48.6912193   1.7754393  12.1890221  69.2418671  37.6859665
  12.0207272  68.6108856  36.9861298  11.3200912  69.4723816  38.0146866
  85.9967422  45.6205902  59.1228714  85.1589355  45.8323441  59.5345421
  86.4308472  45.0400887  59.7480164  74.7123032  38.2558060  58.5238113
  74.5134811  39.1910591  58.4790230  75.3356094  38.1091080  57.8123322
  13.6057262  43.7902870  36.0628014  14.0039873  44.1890030  36.8365250
  13.2134619  44.5243950  35.5901031   9.7167559  21.9521923  29.2990494
   8.9047976  22.1556873  29.7633171  10.2314796  21.4457760  29.9274082
  82.9273987  61.3797722  26.1023502  82.0982208  61.3443794  25.6254425
  82.6943588  61.1606522  27.0045204  53.7967453  18.4173641  67.6248245
  54.5517845  17.8332558  67.5543518  53.7638588  18.8690948  66.7815628
   7.6533933  18.7349491  74.2169495   6.8879251  19.3006268  74.3184357
   8.3453617  19.1779232  74.7080536   7.3762345  59.4802589  22.7927608
   7.0128522  59.5863457  21.9135952   6.9107876  58.7263260  23.1549397
  82.5404129  59.3446083  46.6239738  83.2898941  59.8885498  46.8661461
  82.9047012  58.4649010  46.5257835  68.9572372  28.4537106  77.9746170
  69.5953293  27.8501320  77.5941544  68.1181564  28.0013866  77.8875198
  13.7697582  52.6572342  74.8665466  14.6018085  53.1225815  74.7806702
  13.5540886  52.3855553  73.9744110  19.8340816   2.2840583  33.3719330
  19.3740482   1.8889945  32.6313057  19.8217201   3.2233617  33.1881180
  38.0508385  10.5345640  86.0723953  37.3105507  10.6941624  86.6578369
  38.2268333  11.3856764  85.6713181   1.2434505  49.2541351  55.5183372
   1.6545012  49.7245979  56.2435532   0.3403965  49.1156464  55.8039017
  80.0081177  46.0203514  85.9692535  80.0497589  45.9174309  86.9199905
  79.1438675  46.3984299  85.8068924  37.2309608  61.0772018  69.9086838
  37.7607689  61.1504021  70.7025223  36.3522606  61.3406334  70.1820450
  21.0406513  14.8787804  28.7568626  21.3667068  15.4060869  28.0275707
  20.8147392  14.0368433  28.3614674  77.7078018  42.9894028  48.7412338
  77.4947891  43.9160538  48.8515778  78.0435638  42.7174683  49.5953712
  23.2325974   8.1858215  46.2585754  22.7574863   7.8319206  45.5067406
  24.1124840   8.3611250  45.9249611   8.6840191  31.8820114  64.5174179
   7.8382764  32.0411186  64.0983353   8.4943943  31.2432499  65.2046280
  38.7851753  36.2169762  84.1166077  39.3179932  35.4226494  84.1537399
  38.9275017  36.5598221  83.2343140  50.1585007  71.3384323  88.1528091
  50.6833763  70.8701096  87.5036469  49.8928223  72.1442795  87.7098007
  32.0991554  25.5025578  15.7231674  32.3538055  26.3736057  15.4187679
  31.2566929  25.6373081  16.1571407  14.3674231   9.6137533  38.1119423
  13.7205544  10.2725477  38.3644943  13.8750629   8.7934017  38.0830002
  65.0696335  49.0026169   4.7006092  64.5691376  48.8242493   3.9044161
  64.4090347  49.0601234   5.3909278  10.2569189  48.2014389   8.9236059
  10.4535532  47.4049377   8.4305010  10.9100361  48.2174034   9.6231880
  56.2337685  65.7580643  46.8238106  56.9884415  65.2748566  47.1602821
  55.6528282  65.8509750  47.5788651  61.8040504  68.1877213   5.3867040
  62.6635132  67.9928360   5.0131087  61.9133072  69.0409088   5.8066578
  26.7216740  36.5076294  86.1512299  26.4510612  37.3879433  85.8903732
  25.9396839  36.1246033  86.5487442   9.9104748  71.0930328  32.1880035
   9.8076334  71.6712646  31.4321575   9.5928221  70.2427597  31.8840771
  16.7698212  68.4246216  78.0603333  17.1436386  68.6291733  77.2032166
  16.4480667  67.5273285  77.9733429  74.2735443  40.0029335  22.0620308
  74.6883850  40.7886124  21.7058640  73.7791290  39.6392212  21.3275280
  34.3827629  11.5207996   8.6655560  35.1291008  11.4996777   8.0665836
  34.3553925  12.4236336   8.9823732  60.4566612  11.6895952  22.5440845
  60.7086143  11.9813805  23.4202194  61.0212784  10.9363041  22.3709145
  53.1859856  71.1648560   7.8046265  52.3749123  71.4479599   8.2268200
  53.7906876  71.0064468   8.5295191  36.8942032  21.1269779  47.7281876
  37.3583069  21.8820572  47.3666687  36.5205078  21.4462910  48.5495415
  11.1682320   7.8037562   7.6283574  12.0377531   8.1704922   7.7885714
  10.9190702   7.4051137   8.4621639  26.3300552  28.0625477  25.5248089
  25.8724232  28.0257492  26.3647213  25.6318016  28.1415863  24.8748665
  22.9964867  11.0196772  45.6487961  23.0529709  10.2087002  46.1541252
  22.8470173  11.7006464  46.3046722   8.2306538  46.3558006  77.9907379
   7.7351480  46.7383270  77.2665939   7.6423225  45.6988220  78.3628616
  74.7562485  15.3542271  89.3160858  75.5365829  14.8006811  89.2860870
  74.4888535  15.4410295  88.4011002   1.3004947  31.4112434  50.2563095
   0.4113831  31.2970562  50.5919800   1.8424515  31.5027885  51.0399780
  50.7832947  22.0893307  58.7870789  50.2411652  21.3306541  58.5708923
  51.5623016  21.9908543  58.2396469   7.4970927  13.7819786  16.8461380
   7.0965223  14.1997795  17.6085148   6.8906865  13.9625053  16.1278667
   1.3595316  44.1648331   4.2518620   1.1562617  44.5524979   3.4006100
   1.3507708  44.9040413   4.8599138  72.8929214  32.7614098  57.2655525
  73.2503128  33.5809555  56.9237213  72.7705612  32.2120819  56.4912834
  70.7657700   3.6766925  27.0141640  71.4199219   3.7628157  26.3206921
  70.1979980   2.9641364  26.7206879  38.5465927  38.1437035  17.5489216
  38.5170746  37.6986771  16.7019787  37.6330795  38.3568077  17.7394753
  76.7012558   7.5173426  11.9822073  76.7579575   6.9408088  12.7441959
  76.2392731   8.2922716  12.3020353  44.1463470  39.2387352  24.6533413
  44.6888847  39.2570229  25.4417248  43.4092255  39.8146095  24.8564491
  62.0234032  70.4970856   6.4768701  62.1287193  70.5447083   7.4270658
  62.5779305  71.2002945   6.1388865   5.9379120  70.1057281   1.4644706
   6.5944619  69.4102936   1.5037707   5.2869091  69.7855072   0.8400635
  14.8572979  25.5458508  30.0311680  15.6497040  25.9128857  30.4230995
  14.3794899  26.3063202  29.7000828  79.5927277  12.9880323  11.9649200
  79.7781372  13.5190420  11.1903982  80.1012878  13.3986654  12.6641922
  66.1884384   4.6948690  25.1422272  66.8528595   5.3569613  24.9514217
  66.0388870   4.7702742  26.0846596   3.9263289  54.7725220  62.6980362
   4.0534000  54.7131577  63.6449051   3.6944575  53.8829727  62.4312592
  65.3426743  59.6891403  85.4446335  65.3239746  60.3285255  84.7325439
  65.2372742  60.2124023  86.2391891  81.4011917  56.3595467  52.0634727
  81.6756516  57.2501526  52.2819290  80.5963593  56.4741020  51.5581474
  16.1525841  41.4783058  32.2554092  15.5966320  41.0494194  32.9059525
  17.0388966  41.1854706  32.4673767  27.4419327  12.5282354  14.3464556
  27.9254856  13.3043680  14.6293478  27.9555836  12.1781387  13.6185627
  27.3826523  70.5961990  48.7695999  27.8416100  71.4066315  48.5487213
  26.8964062  70.8059921  49.5669594  11.1943007  58.0648041  37.7803116
  11.0995274  58.8803902  37.2883034  12.0504980  58.1376114  38.2020416
  54.8746605  12.3822536   2.7980356  55.0151062  12.4217701   1.8520200
  55.7535667  12.4373522   3.1731625  14.4362688  36.7028885  13.1590176
  14.5286818  35.8164253  13.5081177  14.0064316  37.1927834  13.8600702
  66.4355392  68.4682846  41.7644272  66.1801071  69.1069107  42.4301109
  65.9400024  68.7225418  40.9859543  46.1874008  21.3614826  10.4155216
  46.6962395  20.8495483  11.0441990  46.0493431  22.2038879  10.8485651
   8.0088749  17.2520885  42.1218185   8.0935440  16.3350754  42.3828735
   7.2156305  17.2765045  41.5866547   4.5208926  18.4899921  70.6960297
   4.8704619  17.8307934  71.2956085   5.2639766  18.7272339  70.1412582
   3.6587176  70.3579865  18.8711052   3.1017647  69.6718063  19.2387772
   4.4331436  69.8934708  18.5537395  20.2005043  17.5594368   0.8647009
  20.0036831  16.8255157   0.2825899  20.7618465  18.1340942   0.3442229
  63.8779716  70.1728897  30.6893139  64.7506332  69.8405914  30.4789238
  63.8954239  70.3088608  31.6366463  72.1300354  62.5109825  84.2584686
  73.0490570  62.3708153  84.0304718  72.0581741  63.4558907  84.3934326
   0.8594033  18.7671947   2.6704695   0.1506043  18.5486832   3.2755222
   1.4532644  18.0179100   2.7166486   6.1057205  40.5703316  39.6015472
   5.7172127  40.1102715  40.3456154   7.0389295  40.3636551  39.6529045
  14.8833256  35.4723320  61.2895775  15.7949667  35.2683907  61.0808907
  14.7540092  35.1181412  62.1693840   4.0250630   5.8066874  35.5015793
   3.2635164   5.9582820  34.9418488   4.2007365   4.8694367  35.4183159
  55.1108170   5.1306362  32.4771156  54.4599228   5.7188044  32.8600311
  55.9465446   5.4358816  32.8301315  67.0768433   3.1839471   3.1780322
  66.4361572   2.5808933   3.5549653  66.5869217   3.9931452   3.0317080
  54.0954208  19.1909962  63.4100914  53.8771362  19.4924641  64.2919617
  54.5670090  18.3694706  63.5476875  84.9146957  20.4902782  74.1609573
  84.1768417  20.1759262  73.6384811  84.7904282  21.4383621  74.2048264
   3.0105906  31.2668285   8.0932941   2.7257926  32.1063919   7.7323866
   3.7511921  31.0090294   7.5444036  35.7793655  56.4884300  70.7506180
  35.4577065  56.3407669  69.8612595  35.0286369  56.2949295  71.3120422
  64.8845596  39.2565308  25.0438118  64.7289963  40.1550560  25.3348198
  65.1506653  38.7907066  25.8365421  33.7651901  19.7287292  24.9507542
  33.2902908  20.5582924  25.0010433  33.9184837  19.4847870  25.8635654
  48.1175117   0.9036007  49.4016953  48.6311073   1.6263531  49.0410271
  47.5192680   0.6591571  48.6955948  85.4899673  36.3480492   9.9305582
  86.1996002  36.1093025  10.5269289  85.4530563  37.3036118   9.9725981
  44.4929352   1.3714055  68.4854736  45.2984047   1.3470324  69.0020523
  43.8936157   1.9105467  69.0015869  16.3910255  57.1073151  27.4404068
  16.7480259  57.9679565  27.6596813  15.4980278  57.2863808  27.1459217
  73.5772476  13.6239128  28.4069958  73.8644333  13.4519053  29.3037510
  73.1205826  12.8247423  28.1442947  20.4245815  48.5818901  12.2787552
  19.8038597  47.9033546  12.5443153  21.2761860  48.2536545  12.5673084
  11.9497604  44.2015381   0.1659828  11.6639633  43.5673752   0.8235441
  12.7528334  44.5762634   0.5277643   3.9198279  26.4310112  31.8598919
   3.1248305  26.4081402  32.3925171   4.5250993  26.9816723  32.3565331
  29.3340225  26.4464741  16.5863190  29.1701050  26.8501472  17.4386158
  28.4943638  26.0588493  16.3394299  37.9619446  22.8553448  72.5494232
  37.8614502  21.9034882  72.5393600  37.2632980  23.1638622  73.1264343
  57.3230476  18.3800201   0.4558561  57.7908211  17.6056156   0.7684482
  57.6008644  19.0816040   1.0447795  14.7865858  53.8078423  32.4544640
  15.6972837  53.5903206  32.2556076  14.7690020  53.9192123  33.4050026
  75.3530045  68.8335724  45.8018646  76.1476212  68.6315460  45.3078957
  74.8108978  69.3317566  45.1901817  67.6231155  11.5506935  20.0309277
  67.3619919  10.7748365  19.5348492  67.0924530  12.2585125  19.6653824
   3.9490895  61.9215546  40.6238441   3.3290269  62.3771706  40.0544853
   4.5332856  61.4608345  40.0216103   7.1794190  58.3460922  79.3117752
   7.8770738  57.9036942  79.7952957   6.4419842  58.3679543  79.9216461
  63.9353523  24.7812099  36.8896942  64.2377472  24.6390018  37.7866707
  64.7338333  24.9611931  36.3934441  68.7927933  15.6412725  88.6436386
  68.8605804  14.8527632  88.1052246  68.4704819  15.3274069  89.4885254
  63.5631371  45.7083359  87.5388947  63.2113991  46.5397568  87.2206955
  63.1471939  45.5830612  88.3918533   3.0166616  21.6188889  70.7115250
   2.4767168  21.4817505  69.9331360   3.2594683  20.7368298  70.9930344
  49.5779457  65.5107117  64.4316635  50.2379074  66.1005859  64.0673447
  48.7963066  65.6697617  63.9025345  57.8167343  52.5950966  46.6575966
  58.7361298  52.5658493  46.9223366  57.6384201  51.7196121  46.3141441
   0.4859896  64.6323013  72.5660019   1.3614854  64.7640457  72.2021561
   0.6398270  64.2280579  73.4199066  78.5798187  46.9230270  33.7717667
  79.1637268  47.4145584  34.3494148  77.7018661  47.2233391  34.0068092
  18.3718166  29.2638683  22.7724800  18.1296539  29.1593666  21.8523331
  17.6695976  29.7964401  23.1459599  63.9902039  65.5582275   4.2426839
  64.1333466  66.5045395   4.2274728  64.2763214  65.2588120   3.3797126
  10.4364338  37.4024124  15.0452490  10.4066925  36.5341988  15.4471836
  10.0638857  37.2753105  14.1727324  11.4307175  71.4526443  75.6877823
  10.5048466  71.6055298  75.4990387  11.4391260  70.6525345  76.2131195
  45.5653763  13.5554762  13.6328688  45.0281677  13.7198944  12.8578796
  44.9327621  13.4033527  14.3349323  61.4580498  50.0107422  28.1040096
  62.2904282  49.7401161  27.7165356  61.2214813  50.8082581  27.6304741
  70.1195221  37.7325401  80.8070755  69.4932251  38.4532928  80.8741837
  70.3374023  37.6904793  79.8759537  51.3377953  56.1653595  52.5233574
  52.2822342  56.2851753  52.4238129  51.1395416  55.3848076  52.0059967
  81.8949814  16.9596901  63.0653267  81.1047287  16.9027023  63.6024323
  81.8409424  17.8205509  62.6503143  46.8469620  19.6669617  19.4569321
  46.8243942  20.2546253  18.7017002  47.6645164  19.1793346  19.3566322
  37.4146385  69.3348541   3.6557930  37.4755745  70.1008835   3.0850782
  38.2579460  68.8933792   3.5549817  57.4060173  51.3191071  10.0650444
  57.7646980  52.1197014  10.4479628  56.7453880  51.0280762  10.6936159
  82.2580643  55.0199547   3.4872510  82.5874176  55.7561226   2.9716778
  82.6754684  54.2505417   3.0999436  74.8773727  26.5085220  65.5651855
  75.6459274  25.9550018  65.7036133  74.2980881  25.9808865  65.0154037
  54.2182388  59.5378113  33.2438164  54.1372719  59.1274033  32.3828621
  54.9639740  60.1315804  33.1569290  75.9303818  30.1730919  36.1471519
  75.5492172  29.9862747  35.2892227  75.3485794  29.7349625  36.7682686
  82.6975327   0.8090056  46.9385834  81.7415848   0.7602597  46.9417114
  82.9669724   0.2762179  47.6867638   6.9122210  41.2859039  82.9831390
   6.8058653  41.8253517  83.7666626   7.8591957  41.1806145  82.8915710
  51.1412239  12.2105446   7.3720050  50.6407890  12.8727303   6.8952351
  52.0537415  12.4815207   7.2714195  52.2515411  69.7915497  72.9628601
  51.9613266  68.9510269  72.6085510  53.0500031  69.5840073  73.4482651
  24.1643276  10.7921515  43.0993538  23.7605190  10.7193222  43.9641495
  24.6517773   9.9752512  42.9930649   9.8457727  59.9345970  31.2859859
  10.5200062  59.8927460  30.6078339   9.0392036  60.1322479  30.8099461
  71.9256744  57.7934723  14.1571617  71.1457901  57.2541351  14.2880535
  72.5900345  57.3941956  14.7188005   8.5451536  37.9699402  83.3550720
   8.3053942  38.1374092  84.2665024   7.7131987  37.7877846  82.9181519
  47.9868355   2.5051768  30.8989677  47.9690857   3.2371414  30.2824097
  47.0646935   2.3067355  31.0617695  60.9920731  18.9436588  31.9501991
  61.4147530  18.0932674  32.0702324  61.5999680  19.5707054  32.3419952
  45.7339935  33.0189934  18.3687782  45.8603783  33.8785210  17.9669456
  45.6284332  32.4216309  17.6283436  44.1141663  68.6924438  18.3380299
  44.1353760  69.4153671  18.9650593  44.1734085  67.9047165  18.8785915
  64.2293625  16.0820675  30.9925175  64.6697540  16.6072598  30.3243408
  64.9395065  15.7446747  31.5384941  24.3719368  33.5735970  14.6130161
  24.6600037  34.4856300  14.6510038  25.0226974  33.0952797  15.1267843
  13.9137831  11.5405388   2.2403426  13.3674126  12.1543159   2.7312489
  13.3486366  11.2295618   1.5331411  58.7551270  51.6420479  72.3887634
  59.6821442  51.8563576  72.2841339  58.3415108  51.9719810  71.5910873
  67.5583496  35.5684242  60.1351242  66.8534317  36.1098709  60.4903107
  68.0019608  36.1360207  59.5048294  16.3577003  18.6200047  59.2604408
  16.1248417  18.5949535  58.3323364  17.1866894  18.1442757  59.3123131
  66.2239990  37.4227142   8.0598917  65.9261932  36.5198174   8.1708794
  65.7292023  37.9198952   8.7112131  72.5772934  49.2577324  88.0055618
  72.1865082  49.7336769  87.2727585  71.9276505  48.5924797  88.2327881
  38.1600342   4.0590239  69.5815201  38.5456848   3.2080991  69.3731155
  37.8265343   4.3822856  68.7445602   5.1993990  15.5514622   2.4246123
   6.1127076  15.2664690   2.4542441   4.8258748  15.0813751   1.6791397
  43.9987297  61.2180672  84.9251022  44.5574760  60.5776672  84.4847336
  44.5811043  61.9536057  85.1149902  18.2128410  52.7867851  47.7129288
  17.8965187  53.4927597  47.1492119  19.0395775  52.5144882  47.3146935
   7.7545214  24.2865276   6.2051492   6.8811712  24.4178314   5.8360276
   8.2036009  25.1192780   6.0599399   2.3257515   0.7829024  68.5202560
   2.8808818   0.2757114  69.1125565   2.9204350   1.4158634  68.1178360
  71.7030182   8.4901438  83.3177185  72.6509323   8.3876648  83.4024506
  71.5242767   8.3107519  82.3946228  74.2465134  44.7486458  43.7656059
  74.7067719  45.3880081  44.3093071  74.6883011  43.9188309  43.9457779
  18.1090755  19.1112041  17.6542072  18.5206337  18.9335957  18.4999657
  18.8427887  19.2440643  17.0540028  78.5370636  13.0723667  66.5449524
  78.1518936  13.9287739  66.7305374  78.1638641  12.8198271  65.7004471
  66.9766769  14.2666931  71.6374893  66.8549576  13.3646402  71.3413162
  66.1958237  14.4553080  72.1579971  81.7975769  21.9691792  85.7592773
  81.9067001  21.1096210  86.1660767  81.6246872  21.7777042  84.8375015
  79.0255585  64.4146652  68.0099030  78.9307327  64.3008652  67.0642319
  78.8996048  65.3528366  68.1520615  82.4743576  67.3319473  42.1928520
  81.7926483  67.5077057  41.5443001  82.0264053  66.8465958  42.8856735
  17.8363037  64.7437820   7.4717050  17.7576962  65.2352219   8.2893496
  18.7480755  64.8644180   7.2064633  22.6868572  16.6782722  27.0404510
  23.5877075  16.4215221  27.2373734  22.7331791  17.6234818  26.8966961
  72.6860123  19.9087276  67.4587708  73.4479675  19.3414745  67.5765762
  72.4997711  20.2447853  68.3354797  81.8469772  63.9927254  71.2764130
  82.6562347  64.1376648  71.7666473  81.9269104  64.5595398  70.5092316
  31.9573860   6.4426141  54.1039314  31.2696857   6.0782475  54.6611938
  31.6121063   6.3634858  53.2146912  42.0009956   6.7660766  19.1678238
  42.9299393   6.5572076  19.2661705  41.9544945   7.2761402  18.3591805
  32.9247093   8.5723372  57.9409981  32.0194511   8.7535877  57.6882324
  32.8871613   7.7170744  58.3691902  40.6857491  53.5794678  23.6103878
  40.8458176  53.4017525  24.5372238  40.1031532  52.8742599  23.3284283
  86.2759476  50.5741348   8.1641893  86.0016861  49.6585236   8.1125965
  85.4848480  51.0729790   7.9603682   6.8267941  50.2442017  59.2865982
   7.4231386  50.5595818  58.6075249   6.8906040  49.2904053  59.2372742
  21.6724873  43.9729729  26.8311863  22.4306202  43.5530319  27.2375317
  21.9019852  44.0361099  25.9040527  16.5397682   1.1174834  62.4727936
  17.3230343   0.9719669  63.0034065  16.7497196   0.7280029  61.6239967
  84.1997452  51.8541260  59.9677048  83.6306610  52.1425934  60.6812668
  83.5970612  51.5609894  59.2842712  61.0985489  56.1806564  73.6692429
  60.3183479  55.6288834  73.6138687  60.9001770  56.9326477  73.1112213
  42.4010773   7.2740588  76.6899033  42.6747093   7.1337619  75.7834396
  41.9125748   6.4830651  76.9177780  37.2937737   6.7531595  15.9547453
  37.7988052   6.3332505  15.2584333  37.9257050   7.3147092  16.4036942
  32.1323204   4.6509247  71.8047562  31.9507046   5.1028156  72.6287918
  32.9788628   4.9976344  71.5229874  37.3702240  68.6982651   8.5384932
  37.1068687  67.9993668   9.1371641  37.7585487  68.2410431   7.7925854
  10.4403019  17.4566689  31.2988186  10.4870806  18.2509594  31.8309307
   9.5657511  17.1062489  31.4679279  20.6933937  58.0117989  85.5906982
  21.3847771  58.3933296  85.0497208  20.8849773  57.0739975  85.5979385
   6.6199741  65.3200531  66.4894943   7.1464305  66.1065521  66.3463364
   6.8002210  65.0730133  67.3965302  23.8433895  41.3703079  72.4587173
  23.7921143  42.3144188  72.3095322  24.7497921  41.2190399  72.7266464
  83.6245956   1.2908481  64.8651505  83.7828445   2.0295687  65.4529266
  83.6280060   1.6767436  63.9891891  83.1634445  24.6405163  76.4375534
  82.3502045  25.0948048  76.2173233  83.7139359  25.3145485  76.8361359
  81.7993469  36.8097839  82.3855820  81.8823776  36.3750801  83.2343292
  81.4702377  37.6838150  82.5953140  67.7049561   6.6763906   7.4684672
  67.6793747   5.8747039   6.9460921  68.4528198   7.1637082   7.1228390
  31.4872246   1.5786577   0.0536715  31.2654324   1.4693532   0.9783833
  32.3504066   1.1745659  -0.0349848  55.6519279  65.9671860  77.6390305
  56.2401009  66.6364899  77.2892838  55.7461395  65.2279434  77.0383072
  74.2888489  62.5378532  16.6669388  73.7657013  62.0625648  17.3124199
  73.6696625  62.7554932  15.9701796  19.0584679  59.1161880  70.7054672
  18.9202766  59.7797546  71.3813477  19.9749355  58.8589516  70.8061981
  43.9704628  69.9445724  21.0731716  43.0535393  69.6723404  21.1101742
  44.2250595  70.0537338  21.9894123  26.0384369  47.7705460   6.1717501
  26.5645351  47.6709862   5.3783145  26.6097794  48.2383194   6.7808385
  39.2512321  59.2279587  82.4629669  39.6419907  60.0911522  82.5987549
  39.6674614  58.6705132  83.1204147  40.7897110  43.7394905  17.4671783
  40.7569580  43.4858932  16.5447655  40.1596107  44.4562531  17.5410366
  72.9908676  60.8208427  67.4815140  72.6030731  59.9463425  67.5146332
  73.2009735  60.9548340  66.5573196  53.3822937  56.2223282  13.3267174
  53.9862175  56.0705566  12.5997553  52.9316978  55.3857841  13.4424047
  46.6946259  71.1813889  60.6664734  47.0441856  70.6949615  61.4130859
  45.8323898  70.7955933  60.5117493  67.6805038  64.3219223  86.4115677
  66.8275375  64.4747238  86.0049591  67.6812668  64.8852158  87.1854782
  83.4510345  42.2151527  54.1012230  83.3891602  41.5992203  54.8313141
  84.1288681  41.8472595  53.5342789   1.5274962  69.8781586  43.2687950
   1.4371080  69.0301666  42.8340797   1.0358598  70.4847565  42.7151146
  80.4826736  31.1879730  55.8602562  81.2808762  30.6659374  55.9414062
  80.0229416  31.0530186  56.6889114  72.3027954  27.1722546  51.6155815
  72.4171677  27.3043022  52.5567055  71.4726257  26.7019806  51.5388527
  42.0922089  17.9446621  17.0924034  42.9736671  18.0117378  17.4595051
  42.0852318  17.1018848  16.6386299  20.8923969  53.2415047  83.1813049
  20.9993591  53.2140198  82.2304993  21.6684074  52.7970085  83.5225754
  15.7400770  50.8370399  76.4075775  15.6298876  50.4169197  75.5545883
  15.6980753  51.7747269  76.2199402   2.8991718  69.6893692  16.0888252
   1.9489087  69.6509476  15.9804039   3.0274975  70.1624756  16.9109745
  63.8229103  67.5394821  28.6530209  63.7103195  68.4689865  28.4540882
  64.0683212  67.1435928  27.8167915  76.3686905  37.7256622  39.2879753
  77.1386337  37.3544579  39.7188263  75.6502991  37.5625954  39.8991623
  64.9241943  54.1487579  65.2801895  64.0389481  53.9454880  64.9781265
  64.8036194  54.4784393  66.1706924  45.0915337  68.6167603  75.5372467
  46.0186768  68.4206467  75.6720810  44.9981995  68.6915970  74.5875549
  63.8583221   8.8596802  47.5627632  63.8695564   8.0010443  47.9856682
  63.9443398   8.6678696  46.6289291  35.9846649  56.5527458  41.3751221
  35.5676918  56.0988922  40.6427422  36.8511963  56.1518478  41.4432411
  28.7255955  60.3251228  40.4601326  28.7522373  61.1965485  40.0649910
  29.4222355  59.8401375  40.0177383  32.1513290  14.8529911   2.9768617
  32.9931870  14.9967098   3.4091234  31.5166702  15.3062687   3.5318217
  83.7829132  44.8270416  69.4184494  84.2050247  43.9686165  69.3844070
  82.9785843  44.7187271  68.9109497  58.6157913  19.7622814  19.9007015
  59.2989120  19.5214252  20.5264549  58.3005142  20.6129627  20.2059422
   7.5424438  66.9052200  55.4428902   7.1322713  66.0927582  55.1464272
   8.3896637  66.9221191  54.9977341  85.9020157  10.8670979   9.1381779
  85.3469315  10.2193527   9.5723858  86.2366562  10.4150610   8.3636379
  15.8096962  53.8433723  14.1119051  16.1034603  53.1102676  13.5710812
  14.8754959  53.6832047  14.2454939  11.9484549  48.7978745  77.7201996
  11.1075277  48.9836807  78.1379852  11.8016958  48.9847260  76.7929535
  26.8623028  69.2338181   3.9879127  26.4368668  68.9427414   3.1813707
  27.1498184  70.1268845   3.7981987  29.1759911  13.8961802  23.1790047
  28.7837906  13.8982897  24.0521622  28.4732456  13.5980616  22.6015053
  51.2439880  42.3188324  10.9250231  50.6825829  42.8203964  10.3338509
  51.9496231  41.9930267  10.3663044  76.8843155  48.8052750  53.5896301
  76.0793762  49.0395699  53.1276665  76.7404556  47.9045143  53.8797379
   4.6785235  16.2460690  35.0958939   4.5672297  15.4139643  34.6360626
   4.9800124  15.9982634  35.9699249  48.8839111   6.9007812  54.0199966
  47.9656181   7.1640143  53.9593391  48.8533936   5.9523835  54.1458626
  81.4866638  46.7880478  17.1913395  82.0728683  47.2501907  16.5921593
  82.0605240  46.1987457  17.6808701  49.2268333  40.5493011  25.3310375
  48.8229218  40.4622765  26.1944675  48.4940681  40.4967232  24.7174263
  12.9931698  38.1867523  26.3091145  13.4961843  38.8746033  26.7450829
  12.2435055  38.6435165  25.9275379  37.3246155  17.9214859  25.4061108
  37.1704025  18.7276783  24.9136600  37.6336136  17.2959309  24.7508011
  27.1421413   9.3719769  74.3287888  27.5092201   9.7424221  73.5261307
  26.3831806   9.9225273  74.5214157  46.8920898  58.8730392  46.8498116
  47.2154884  57.9981499  47.0647812  46.3348274  58.7406540  46.0828934
  84.5090332  21.9950619   0.4120547  84.7578201  21.8418808   1.3235754
  83.6238251  22.3557110   0.4627575  74.8479233  57.7233086   5.9842443
  75.1983795  56.9027519   5.6376796  73.9944458  57.4852448   6.3463707
  39.5333023  61.7200394  77.1621094  40.4178391  61.7166672  77.5279236
  39.5610619  61.0676193  76.4622498  52.6388054  42.7273331  29.2943554
  53.0249863  43.5712852  29.5285339  52.4612312  42.3038902  30.1342335
   7.7569723  68.9021835  79.1586761   8.2512074  68.1328888  79.4417725
   6.9907718  68.9189911  79.7321625  43.5899467  15.3730898   1.3502295
  44.0929298  16.0960941   1.7250679  44.0216522  15.1880732   0.5161837
  74.8810425  10.1945982  60.8699989  74.0387573  10.6177807  60.7035637
  75.1596985   9.8706026  60.0134888  26.9256115  13.8044634  21.6387901
  27.0837803  14.7454233  21.7150097  26.1556759  13.7359686  21.0742207
  37.3033943  62.1702156  78.5769272  38.0251122  61.9571495  77.9853516
  37.0137138  61.3232918  78.9160995  37.9695435  35.2277756  86.5277710
  38.4173012  34.3868179  86.4353867  38.1653328  35.6939278  85.7149963
  86.3428650  61.8018379  67.1538086  87.2535095  62.0961304  67.1724091
  86.2532349  61.3532867  66.3129730  27.3456059  60.1758919   7.1669278
  27.2388668  59.2342300   7.3015060  27.7112198  60.4957848   7.9916863
  84.2134857  23.9266319  62.3605270  84.6050186  24.7971401  62.4322701
  83.6571198  23.9775639  61.5832901  33.2464256  14.3994465  82.6083527
  33.9908180  13.7976856  82.6077499  32.6181641  14.0026474  83.2117310
  57.2971802   6.1010461  23.4150734  56.4295311   6.4324369  23.1835613
  57.5074654   6.5367951  24.2409878  86.7992477  65.2200546  45.7669373
  86.1719589  65.8097763  46.1852188  86.9827728  65.6270599  44.9202385
  58.3940849  56.8771400  60.0088692  59.0074501  56.2265930  59.6671028
  57.9281197  56.4218025  60.7101364  -0.1112433  22.1150188   8.0902176
   0.6343720  21.9304237   8.6613693   0.2611203  22.6162167   7.3646979
  78.0623779  12.2572956  22.2373657  78.4924622  12.1507568  21.3888912
  77.8160706  13.1818008  22.2666321  49.7210274   1.7940999  62.7732353
  49.9816895   2.5887163  63.2389297  49.7201500   1.1121900  63.4449730
  71.2215576  45.7113380  29.9529037  72.1044693  45.8760605  29.6219120
  70.7124176  46.4688148  29.6643925  70.9518890  13.5833979  54.5272064
  71.3041534  13.8805456  53.6882515  71.3025436  14.2028904  55.1671295
  85.7990646  18.5494041  42.4424362  86.6389771  18.5761986  42.9007530
  85.2627869  19.2061825  42.8866043  85.7548676  15.1329098   2.3559332
  84.9162445  15.0000887   1.9140030  85.8943710  14.3264751   2.8523548
  42.8718414  18.7405872  58.3332787  42.6207504  18.2983208  57.5223618
  43.7667465  19.0411263  58.1749878   1.1264616  49.8108139   2.6654735
   1.7030287  50.0653610   3.3858964   1.6223308  50.0241547   1.8750108
  44.2495766  10.8128176  45.9453049  43.3902092  10.6345034  45.5633049
  44.0575867  11.1456861  46.8219872  46.5160713  55.6230392  15.0327568
  45.9330940  55.4538269  14.2926636  45.9320793  55.6833191  15.7887650
  83.9749603  57.0158539  29.3858986  84.7012634  56.4120903  29.5414104
  83.3011780  56.4779320  28.9700947  24.3890114  46.8484230   1.0037686
  24.0160847  47.5999260   1.4646416  24.4851475  46.1769066   1.6790873
  86.7345810   1.9475139   7.9164767  86.6646881   1.3585985   8.6678257
  86.6837997   1.3705546   7.1543937  24.8571815  45.7670746  55.3953934
  23.9220810  45.8378830  55.5872345  24.9072971  45.7806625  54.4396019
  31.8230724   6.7125335  88.0878372  31.8870773   5.8885365  88.5707092
  30.9598083   7.0574179  88.3160019  52.9744186  71.8126450  82.9157333
  52.1582718  71.5664444  83.3510818  53.4843254  71.0030670  82.8872070
  53.6608047  38.1901703  72.0053711  52.8604774  37.6735611  72.0992661
  53.4859200  38.7701797  71.2642670  35.4600868   6.1421885  20.7747498
  36.3408546   6.4865417  20.9227428  35.5852470   5.4217639  20.1570473
  46.5174561  57.8556366  52.4326782  46.6622467  58.7601852  52.7102737
  47.2499657  57.3689575  52.8105736  70.3837433  55.0266037  87.0158310
  70.0902863  55.4397697  86.2037888  69.6894989  55.2179642  87.6464157
   2.8330309   9.4569025  76.8464355   2.5664382  10.0764980  76.1672745
   3.0421734  10.0055294  77.6024170  65.5362473  25.9846859  21.0923634
  66.1707458  25.7067318  21.7529583  65.7668686  26.8949699  20.9068127
  47.9225502  69.5151596  29.2943077  47.5270233  68.6436768  29.3117027
  47.9616699  69.7788239  30.2136459  55.9365692  20.6669788   5.1384053
  56.4862709  21.3657150   5.4931273  55.4221497  21.0919704   4.4521189
  77.8467331  62.0548706  47.3904305  78.1898651  62.8913689  47.0761681
  78.6209030  61.5009918  47.4909401  44.9362144  26.2513466  15.1690388
  44.5455437  25.4132881  14.9215193  44.2366982  26.7150364  15.6293659
   6.6605778  41.8206100  22.4433422   7.2981000  42.5345917  22.4380093
   7.1338701  41.0741577  22.0758724  59.1998138  63.0504570  61.9803963
  58.6544533  62.4117622  62.4396172  58.6527405  63.8336449  61.9207382
  46.8301888  60.4963341   9.3430357  46.9347115  59.7694626   8.7290649
  46.7540016  60.0768852  10.2000580  27.0551491  39.9996376  17.1561337
  26.8461819  40.9336319  17.1413612  26.2876339  39.5887489  17.5540352
  42.8425636  61.1586380  34.3222313  42.7121849  61.0410233  33.3812752
  42.0012779  61.4848709  34.6416664   3.7086504  57.9900970  24.9074402
   3.9378603  58.8257751  25.3140526   4.4358616  57.4084702  25.1290436
  48.2987366  71.1487732  70.4713440  48.4431458  71.3212357  71.4017334
  47.7708931  71.8881531  70.1697998  70.9588623  46.0429916  18.8006992
  70.8741608  46.5219193  19.6251297  70.5545120  46.6152840  18.1486168
  22.6826572  52.0292740  72.3990860  23.2331867  51.2494926  72.4704437
  23.1315517  52.6886177  72.9282303  50.6175346  39.0126762  73.7572098
  50.7977562  39.8143463  73.2662201  50.5644226  38.3293762  73.0889969
  34.6424789   9.6913481  45.8196793  34.2777748  10.5301895  46.1017609
  34.8351173   9.8143663  44.8901711  79.0219498  20.1847477  73.3926468
  79.3314972  20.6556110  74.1664047  79.3156357  20.7182770  72.6541824
  64.6872177   2.1460271  68.9263687  64.3344574   1.7532582  68.1279144
  65.4529953   1.6120820  69.1378326  23.7780476  55.6189995  23.4913940
  24.6435680  55.2103043  23.4998703  23.3114719  55.2069435  24.2185440
  51.4526100   3.2684014  67.1105957  51.4169502   2.9457736  66.2101059
  51.5496407   2.4795349  67.6439819   0.6042522  21.9883156  52.1922112
   1.0705746  21.3980465  52.7841187   1.0313475  22.8362484  52.3139915
  68.3867798  53.4246483  70.7466202  67.9734573  52.8025169  71.3452454
  69.3208923  53.2221222  70.7981262  26.2834110   1.4097359  77.1016083
  26.8451633   1.2363861  77.8569946  25.5216694   0.8456864  77.2351379
   9.2198458  11.7326403  33.2368355   9.4784546  11.3614330  34.0803719
   9.8564644  11.3803692  32.6148567  66.7559204  30.0335979  59.7397652
  66.4337845  30.8780994  59.4246826  66.5354080  30.0255222  60.6711845
  83.2157211   1.9022245  85.4642563  83.0029297   2.7564936  85.0885239
  84.1358109   1.9746736  85.7180634   0.7082349  35.6104393  19.8158798
  -0.1421092  35.2695084  19.5385475   1.2972909  34.8579216  19.7614975
  27.2017307  47.4737129  71.2348785  26.6837864  46.7106934  71.4913254
  27.8440552  47.1295662  70.6142197  76.6497879  50.4169884   1.5036601
  76.7546387  51.2768593   1.0964043  75.7542419  50.1571808   1.2874932
  81.6409149  13.5624084  13.7620983  82.5779114  13.7428713  13.8376751
  81.4198303  13.1011057  14.5711422  79.6652527  67.5193863  19.0071812
  79.6286316  66.5712738  18.8808250  79.2056656  67.6688309  19.8334236
  56.5294380  42.9031448  82.1465912  56.9186707  42.1584053  82.6049500
  56.2721252  42.5518684  81.2941666  58.7732582  24.1837082  87.1555252
  59.6482201  23.8741760  87.3897629  58.8048706  25.1283264  87.3069534
   6.1209922  17.0725842  55.0728722   5.2473750  17.3880844  55.3041382
   6.2718921  16.3326321  55.6610336  34.6111298  67.7974625  68.4915924
  34.5088768  67.8953552  67.5449142  33.9529495  67.1474762  68.7376404
  19.2196465  29.2567368  12.0048485  19.5177593  29.0896797  12.8989687
  20.0071144  29.5366459  11.5381832   8.7732239  68.1042862  51.3140907
   8.8178673  68.2430191  50.3680496   8.6756697  67.1572189  51.4129372
  19.8353996  30.5266876  77.2449646  19.1389351  29.8747463  77.1665955
  20.5523167  30.1759949  76.7164993  72.6079407   8.3345928  28.9330406
  73.4069214   7.9649081  29.3087959  72.8876343   9.1627464  28.5429573
  38.3912735  43.6065483   3.4832525  39.2470665  43.5442619   3.9074874
  38.1704903  42.7034035   3.2556241   1.8312062  68.5664978  80.8552856
   0.8879786  68.4511261  80.7402115   1.9401828  68.7279434  81.7924576
  69.5010605  32.4124184  31.3368912  69.2449341  31.7871838  32.0149155
  68.7069931  32.5420837  30.8183651  57.6796036  32.0236092  14.5789652
  56.7494125  31.9043655  14.7706919  57.7562675  31.8421154  13.6422606
  40.5630226  34.3542061  31.4489307  41.2415466  33.7554207  31.1370068
  41.0370026  35.0035057  31.9685345  31.0423927  71.0554199  84.5206833
  31.9330158  70.9540710  84.1848984  30.7124271  71.8441162  84.0902023
  46.6403923  56.7498856  22.0421467  47.2700577  56.0576210  22.2434330
  46.0023232  56.3324394  21.4634972  55.2272301  38.4915199  87.7762527
  55.0868835  39.3430099  87.3621292  54.8881111  37.8585587  87.1433258
  46.4799690   4.6556597  87.3460617  47.0797577   4.8957062  86.6397552
  45.8610039   4.0495000  86.9390259  24.3202000  52.9361038  65.6251755
  24.0487385  53.6352730  65.0304413  23.5004330  52.5897598  65.9776764
   2.7690761  26.6128654  82.9805222   2.7639351  27.1188812  83.7930222
   2.4541597  27.2248058  82.3152466  68.3844681  24.5526314   1.8031558
  68.0271912  24.2701130   2.6450408  69.3202896  24.6692142   1.9670998
  43.3823318  10.6727896  31.7878952  44.2381821  11.0804644  31.9203777
  43.4415779  10.2671432  30.9229240  25.9167442   7.5404768  40.5546417
  26.0753288   8.2808065  39.9689865  26.7849560   7.1695676  40.7123337
  31.5338554  46.2069016  21.0174828  30.6069832  46.3445168  21.2129307
  31.6395741  45.2555580  21.0156670  11.7527809  56.2128563  28.2837791
  10.9846611  55.7201614  27.9948578  12.1165609  55.6914291  28.9993286
   1.4633306  32.5503349  86.1379395   0.9659176  31.9269142  86.6672363
   2.0507622  32.9782639  86.7608643  61.9386940  22.3882771  75.1016083
  62.4217072  23.0380096  75.6122742  61.4958611  21.8493977  75.7571564
  38.0720673  53.8099289   7.3642797  38.7991104  54.4143295   7.5137634
  38.4752693  52.9419174   7.3791509  61.8344193   5.7843113  46.0194511
  62.6475639   5.9338422  45.5370941  61.6126137   4.8710699  45.8377228
  25.7491455   3.2706101  41.8009186  26.0026665   3.1472189  40.8861847
  24.7998905   3.1476052  41.8050499  62.9941444   0.6475685  80.2983551
  62.5954437   0.7459207  79.4337158  62.6020508   1.3451023  80.8236542
  16.6447258  64.8746567  68.8481979  17.2271156  65.6171875  69.0085144
  17.1503220  64.2916107  68.2819290  64.6163559  56.8296242   1.7487044
  64.1200333  57.3392982   1.1082914  64.9057693  57.4736824   2.3949690
  67.0975571  44.0843925  59.8772469  67.0453339  44.8555908  60.4418373
  68.0229645  43.8401146  59.8904495  74.3055344  56.5792770  50.4752998
  74.6689911  56.6760254  51.3555145  73.5249634  57.1332893  50.4762573
  83.5505447   9.5367794  57.1356392  82.9723587   8.7739353  57.1352234
  82.9719009  10.2757864  57.3234444  58.3884773  25.6909943  15.0187206
  57.7035370  25.3502274  14.4434271  59.0615921  25.0104446  15.0189381
  78.6187668  49.4108849   2.9299808  77.9359894  49.7651520   2.3602893
  78.2984314  48.5433121   3.1768243  52.7926254  19.8569946  17.1892223
  51.8797417  20.0791988  17.3722687  52.9172668  19.0005207  17.5980587
  81.3747940  68.0714798  83.3234940  81.9565353  68.7120056  83.7328033
  81.5771713  68.1265411  82.3895569   9.4502153  11.9353256  50.4925003
   8.9382248  12.5764446  50.9855156   9.4685907  11.1604710  51.0541916
  52.4244881  49.5443954  31.2501926  52.0053825  48.7470436  31.5739441
  51.7105598  50.1779099  31.1781025   5.6512527  45.3639259  55.2486877
   6.5903416  45.2781677  55.0844040   5.2554688  45.3727608  54.3771896
  82.9382095  31.5508175  14.8671122  83.1236496  30.7290897  14.4125700
  83.6046448  31.6011600  15.5523596  26.5618019  10.7124891  31.0255966
  25.9258938  10.0742512  30.7023239  26.0297718  11.4480448  31.3291302
   4.1109796  24.2554016  66.3959885   5.0159574  24.0141792  66.5936203
   4.1646476  25.1637440  66.0988922  50.2848778  26.4756641  32.4312019
  49.8997116  25.9479923  33.1308022  51.0552788  25.9799500  32.1537514
   0.6787779  34.8434105  50.9404984   1.5533382  34.6364670  50.6110306
   0.6998928  34.5771103  51.8596649  69.9993362  66.6702728  19.7766800
  69.8766785  67.5837250  19.5182495  69.1226883  66.3691635  20.0155487
  28.3228168  24.7622719   3.8146315  29.2485847  24.8147984   4.0521693
  28.1640949  23.8287830   3.6744919  66.6628876  40.5142097  33.6634789
  65.9990921  41.2029152  33.6993752  67.4410095  40.9494553  33.3151741
  20.4570217  66.1935425  38.1463890  19.9112072  66.6499634  38.7867012
  19.8949375  65.4980392  37.8049698   2.5115080  20.9416122  50.1072845
   2.6401026  20.5769367  50.9829025   1.5695109  21.1017647  50.0504990
  83.3920593  29.2509174  49.3169365  82.5215225  29.2199211  48.9201355
  83.6058807  30.1832409  49.3527794  22.5024757  65.6607361  27.5808144
  22.7908554  66.5636597  27.4474239  21.7738018  65.5493469  26.9701920
  17.7655544  65.9897308  89.0242081  18.4600582  65.5156937  89.4815750
  18.2162743  66.7126846  88.5878372  62.2265930  48.4557648  34.2699852
  61.4736481  48.0082474  33.8839378  62.7596664  47.7520447  34.6399155
  37.4358978  18.8360538  31.6824951  37.3846207  17.9261265  31.3898602
  37.5739594  18.7762184  32.6277962  50.4148865   2.6860259  48.7860718
  50.3951149   3.5235124  49.2491646  50.7861023   2.8950222  47.9288940
  19.5506535  69.4529724  59.5298004  18.8986912  68.7866669  59.3125343
  20.1230869  69.0285568  60.1688766   2.6560791  70.6856537   4.9991989
   2.3324933  71.4667435   4.5503964   1.8782452  70.3033218   5.4054332
  15.7398682  49.4663658   3.1134071  15.9008617  48.7506027   2.4985964
  16.5637035  49.9532471   3.1352036  20.6138897  44.0678139   2.1649485
  21.4572239  43.6439705   2.3242555  20.3016987  44.3147392   3.0354626
  62.9379425   5.9483252  64.0836105  63.2525520   6.7812653  63.7322388
  62.1086617   6.1658783  64.5092850  86.0817337  60.3180161  69.9786987
  86.3489380  59.4602547  69.6484299  86.1148529  60.8906631  69.2124023
  17.4689445  62.2922821  86.3337631  16.9349022  63.0762100  86.4621735
  17.1880093  61.6949043  87.0269089   8.9057636  40.6406822  68.8633881
   9.7292004  40.6601868  69.3510361   8.8730612  41.4855652  68.4146805
  58.7639084  60.0536308   8.8368559  59.2075157  60.7822418   9.2711020
  58.1663780  60.4721222   8.2171373  38.4583321  58.5159187  46.8009682
  37.6540909  59.0143623  46.9458122  39.0941544  59.1676712  46.5057030
  12.8628960  23.7876110  20.7597466  11.9080114  23.7342606  20.7994976
  13.0831251  23.4863682  19.8782806  12.5746851  66.2206421  30.9563808
  12.5190325  66.5697327  31.8459167  13.1294022  65.4448242  31.0378151
  36.8397789  61.1022186  12.7481413  37.1556587  60.9094353  13.6309137
  36.1962471  60.4166489  12.5689907  27.3566284   6.6502099  18.8001842
  26.6528339   7.2927947  18.7107983  28.1051788   7.0519357  18.3591423
  30.6857281  60.7350044  23.7280312  30.4753876  61.3639870  24.4182281
  31.6143970  60.5412025  23.8554897  70.1756439  28.8960819  30.6992798
  70.8136673  28.1947060  30.5680332  69.9832993  28.8725700  31.6366615
  16.1642265  47.2384453  19.0855045  15.6709671  47.5335960  18.3201199
  16.2669830  48.0245132  19.6219463  78.8803406  50.8618050  25.7880917
  78.2933350  51.5676460  26.0590935  79.1823959  50.4730263  26.6089745
  11.8770962  56.7992706  53.4226799  12.7826300  56.5859299  53.6478996
  11.8676748  57.7533798  53.3464050  28.1904678  44.1544952  87.3723907
  28.2011948  44.3918266  88.2996445  28.6046829  44.8957748  86.9306183
  86.6985855  70.0534439  88.5820084  86.7269897  70.5185165  89.4181519
  86.5280762  69.1422348  88.8204422  51.2884369  61.6610756  67.9931870
  50.7838402  62.0911026  67.3027573  50.7066879  60.9768219  68.3242340
  49.6633453  52.5293884   4.3238745  48.8862000  51.9901428   4.1772866
  50.3487701  51.9032974   4.5571847  10.0231400  47.2983551  58.4440155
   9.2317171  46.8918648  58.7970695  10.6178007  47.3542290  59.1920052
  53.0635414   3.7902541   4.9329462  52.5800552   4.1551013   5.6741357
  53.4630089   2.9914970   5.2773929  68.8807144  66.3841019  29.4129868
  69.1243134  66.5496597  30.3237457  68.6893082  67.2509155  29.0548897
  68.7571869  63.3141594  49.4297562  68.5367889  63.6011581  50.3159218
  69.2583923  64.0411377  49.0602570  36.5354614  50.3016663  68.9720001
  35.7744370  49.7325096  68.8574066  36.2193451  51.1742935  68.7378540
  47.3306770  30.2014599  10.3540459  46.7301788  29.7446156  10.9430513
  48.1969147  29.8702812  10.5910807  31.4434929  36.1441879  87.7522278
  30.9430904  35.8972511  86.9745026  31.3048935  37.0875282  87.8366623
  19.4825268   1.2492889   4.8890157  19.3030968   1.3599699   3.9553204
  20.1593437   0.5733458   4.9243655  40.8869553  39.7976608  78.2433243
  41.4758835  40.2098541  77.6112671  41.4627190  39.2756462  78.8020935
  25.1725464  64.2898254  27.2005177  24.7748108  65.1589432  27.2521858
  25.3147545  64.1467438  26.2648163  55.3929901  42.9868126  33.4616280
  54.6808929  43.2567749  34.0415154  56.0508804  43.6760254  33.5533028
  59.1519318  55.1383591  47.8727798  59.2812767  54.3844070  48.4481544
  59.4575386  54.8408966  47.0158386  24.0107460  64.6352768  80.1783066
  23.3431168  65.1837921  79.7664337  24.1277256  65.0139389  81.0495987
   4.2467756   5.1725664  13.9793692   3.7768817   5.9696627  14.2244596
   3.8670919   4.4907126  14.5335779  68.8850479  30.2063274  28.2814102
  69.3571091  29.7628880  27.5766068  69.2307663  29.8157310  29.0839977
  22.8929920  66.7091980  22.3015270  23.2599163  67.4969254  22.7028866
  21.9510899  66.7772751  22.4577885  39.6739960  58.6396370  77.0062027
  38.8434105  58.3046188  76.6683884  39.7130852  58.3186226  77.9071198
  34.9895172  49.8068695  78.3785782  35.8042221  50.3087425  78.3537750
  34.6541977  49.9382286  79.2654495  40.5918274  58.7918015   0.9044689
  39.8876953  58.3054695   0.4756209  40.1904030  59.6240578   1.1543525
   1.3275675  52.6251144  54.8781395   1.1021055  52.0583725  54.1404381
   1.9397186  52.1065331  55.4002266   7.6620998  31.0989723  51.6810417
   7.9193516  30.9645271  50.7689133   6.7232866  31.2812843  51.6407394
  62.9852371  59.6248360   4.8628783  62.7602043  60.2996101   4.2223549
  63.9005013  59.4145241   4.6776896  47.9017944  14.3820419  33.0006752
  47.7985916  13.4482765  33.1841507  48.8168831  14.5678015  33.2112465
  43.1197510  13.4835587  79.1669846  43.4022255  14.3970032  79.2123718
  42.3308105  13.4496641  79.7079544  40.3175812  63.5738258   4.8715940
  40.3084221  64.3173828   5.4743118  41.0329666  63.7657776   4.2652836
   7.3011680  62.6332741  17.5116882   8.1592388  62.5965195  17.0890846
   6.8634539  61.8280792  17.2354660  54.0107689  55.9970169  38.7768822
  53.3734932  56.6293068  38.4447441  53.5513420  55.5421791  39.4827728
   8.1583109  64.9206238  20.1216335   7.4463124  64.2873459  20.0308228
   8.0903549  65.2294922  21.0250778  70.0372543  35.8908157  33.7298317
  70.6865082  35.3174820  34.1372566  70.4700241  36.2213631  32.9426346
  15.8525257  31.4349079   8.1289129  16.3037224  31.7375813   8.9169741
  15.1350698  32.0572319   8.0097485  14.1596375  58.9746056  63.6178284
  14.3700027  59.7720451  64.1036987  13.9775620  59.2772026  62.7281570
  16.9156113  49.1663246  -0.0092461  17.0165501  48.5433159   0.7104081
  16.1360607  48.8672981  -0.4773459  85.3820496  52.0694275  72.8933868
  86.0574875  51.6889839  72.3318863  84.9325180  51.3142281  73.2726288
  60.1535034  65.9450150  33.9118958  60.7306709  66.7026138  34.0076027
  59.3215179  66.3137283  33.6151123   7.2368770  15.8976746  87.8632126
   7.3776269  16.6102791  88.4866028   7.1765056  15.1122179  88.4069443
   3.7331698  18.3173027  14.9374495   4.3928003  18.1885815  14.2558699
   3.4735296  17.4312420  15.1898737  78.1391144  11.3351212  49.2180824
  77.8589325  10.5648975  49.7125359  78.8839340  11.0294676  48.7003479
  84.5187073  23.8662777   8.7571135  85.1128006  23.1695633   9.0361757
  83.7479477  23.7615433   9.3149576  84.4611816  20.4957161  52.3537903
  84.3428345  20.3330784  53.2896194  84.6986465  21.4214153  52.2997169
   9.9874077   6.9446754   5.2335496  10.5279169   7.1128297   6.0054345
   9.8825026   7.8029804   4.8230143  15.4198236  25.2745724  76.9937439
  15.6043921  25.2617779  77.9328918  16.2748184  25.1561623  76.5799866
  13.3409815  21.2225037  57.5458107  13.2546921  20.4215240  57.0288773
  14.2776508  21.4189358  57.5285912  73.5850906  26.6475754  75.6586685
  73.1415482  26.1200790  76.3229294  73.7634430  27.4809647  76.0944214
  53.8119926  20.5823021  25.0147705  54.2249413  21.1903896  24.4016361
  52.8761826  20.7713833  24.9459400  15.4176254  61.5797653   6.8990121
  14.8816128  61.1926727   6.2068558  15.3551073  62.5233727   6.7509341
  21.5154190  45.0403442  88.5271530  21.1766739  45.9109993  88.3187180
  20.9492149  44.7254143  89.2317505  86.4444427  40.5061836  73.3599091
  85.5213394  40.2916336  73.2254868  86.6256180  41.1955452  72.7210083
  65.2036743  61.7623558  27.4344597  64.7013626  62.5205879  27.7327766
  65.9125290  61.6786690  28.0722351   3.7896316   8.7912407  47.9451790
   3.6612465   9.7323408  47.8265190   3.3953867   8.6011839  48.7964630
   1.8785632  66.5817261  36.3968163   1.2763776  66.1565170  37.0073891
   2.7339287  66.5200500  36.8219948  18.3144245  52.8387032  83.6057663
  19.1900654  53.2021866  83.4739838  18.0519943  53.1537476  84.4706955
  31.6256065  52.2681999  85.5892944  31.5037575  52.0890121  86.5216446
  31.4654369  53.2079582  85.5030823  63.8277359  13.0587378  35.9507599
  64.3838196  13.8266954  35.8194656  63.9299850  12.8447084  36.8781052
   5.0849314   1.6969557  31.2297668   5.9844356   1.5949438  31.5407619
   5.0156622   1.0891451  30.4935589  61.3960381  35.7639771  55.5205307
  61.0126648  36.4283485  56.0931244  61.6675034  35.0639000  56.1141853
   9.3253794   9.5779715  81.3333359  10.1729755   9.9879084  81.5058594
   9.1122065   9.8367825  80.4367828  40.8678436   7.6718192  32.5708809
  41.2402611   6.7904878  32.5427628  41.1154709   8.0633116  31.7332382
  57.4975243  15.0234432  32.8493881  57.8808746  15.5925703  32.1820297
  57.3044510  14.2080679  32.3866615  52.2076302   5.9588532  22.1879520
  51.8312874   5.4112654  22.8769684  51.6049156   6.6987934  22.1140709
  56.7713623   4.1183968  46.0738754  57.0854416   4.9644470  46.3929138
  56.1382256   4.3399539  45.3910255  44.8637810  11.8534288  55.0510597
  45.1834717  12.3653021  54.3080826  45.5968285  11.8409662  55.6664619
  82.6403885  36.2723808   6.2175717  83.3225784  35.7661896   6.6587300
  82.3650055  36.9198074   6.8665977  28.3233948  18.8085232  22.8575058
  29.1205101  18.2836380  22.7844772  28.2469711  18.9991703  23.7924099
  35.3136368  54.7828255  19.2622166  35.3388824  53.9540138  18.7840233
  34.7271843  55.3380432  18.7483711  10.6115456  28.7587051  71.9625626
  11.4061995  29.2210808  71.6961670   9.9487677  29.4452267  72.0376892
   5.8187470  54.4492073  68.1689911   5.6218729  54.7803001  69.0452652
   6.5846248  54.9509506  67.8898544   6.1762795  39.5071526  72.3883591
   5.3925428  39.5613976  71.8415070   6.8978491  39.4228363  71.7650909
  18.0528164  47.1143456  73.0052032  17.3603592  46.9975281  72.3547516
  18.6782856  46.4144974  72.8174973  49.0310402  12.0750332  38.6290932
  48.0859833  11.9312792  38.6783829  49.3845558  11.6046457  39.3840752
  42.7577934  66.1001205  71.3151245  43.6080246  65.8158188  70.9796982
  42.2985039  66.4393539  70.5468750  63.6140442  36.2145081  83.6303177
  64.5710220  36.2062187  83.6494675  63.3844833  37.1383591  83.5301666
  86.2724152  46.9288139  66.0655670  85.5275574  46.3276443  66.0688019
  86.1506729  47.4652290  66.8489380  66.7032318   7.0810061  27.2731304
  65.8817444   6.8137617  27.6854019  66.4866180   7.8901815  26.8099403
  70.2811508  65.6626205  49.1750793  71.1191635  65.6682205  49.6376114
  70.2659683  66.4916916  48.6968994  83.6258163   2.7104337  19.3169937
  84.2569351   2.0133986  19.1379356  83.0331802   2.3354065  19.9684315
  20.1617393  38.4751396  65.4825363  20.3496208  38.2629356  64.5682602
  20.9438114  38.1961823  65.9587555  69.6556702   5.9967237  30.8281727
  69.0990372   5.9649234  31.6062374  69.8435211   6.9273167  30.7059422
  48.1822128  26.7356415   7.1290555  48.1329155  27.1442509   6.2648559
  48.9372787  27.1496563   7.5470247  56.5240822  26.2332115  27.7395115
  56.6767921  25.9617367  28.6446152  56.8610001  25.5089283  27.2121296
  60.0667648  51.0116081  13.3375072  60.1416664  50.3316002  14.0069933
  59.1376572  51.2417488  13.3327684  84.7430573   7.5860624  71.7782822
  84.4829483   7.3248010  70.8949280  84.4146576   8.4804764  71.8699875
  63.3756714  17.9857311  74.5829697  64.0618439  17.3234215  74.5008469
  63.1330185  17.9657059  75.5086823  59.2365799  49.0180931  50.4518509
  59.5512505  49.1841888  51.3404617  58.4592934  48.4723473  50.5711098
  32.5821648  55.1886215  11.4944677  32.7110023  55.0273094  10.5597963
  33.4285164  54.9835701  11.8918037  11.6932421  41.8380051  20.1538620
  12.0776196  40.9695511  20.0343857  11.7926083  42.0173416  21.0888481
  16.6955223  38.9026222  26.6074886  16.5555668  39.1559753  27.5198803
  17.5587177  39.2549858  26.3907795  19.6897755   8.0921669   9.3217983
  19.9210930   8.9218559   8.9042597  20.3483772   7.9769402  10.0067778
  66.8854752  70.4627686  51.5096779  67.7844696  70.6047287  51.8061562
  66.3434372  70.8730545  52.1835365  63.2300644  27.5779781  29.2431641
  63.0324669  28.0813332  28.4533405  62.4925308  27.7510509  29.8282471
  39.5220451  -0.0082492  21.4508629  38.8239937   0.2315281  20.8413849
  39.8944473   0.8283178  21.7296143  49.6877785  54.2090187  66.6813049
  49.0041008  54.3757286  67.3301697  49.3471603  54.5889740  65.8714600
  60.7236099  11.2427330  67.2946243  61.4173927  11.7611780  66.8870544
  61.1874733  10.5532694  67.7697067  12.7444792  23.1674156  23.9579620
  12.4313469  24.0710449  23.9175320  13.5440483  23.2142296  24.4821072
   4.3090944  71.7506256  77.8865051   4.7885942  71.7656021  78.7148132
   3.7814729  70.9531326  77.9295883  27.6157150  17.7667542   8.4359798
  27.2342110  16.9480820   8.7529411  27.1768074  18.4483624   8.9449024
  50.9734230  65.4751434   8.1246481  50.7381477  65.3025970   9.0362968
  51.7728348  64.9679489   7.9834814  60.6427574  23.8486729  77.7983475
  60.6006813  24.5794144  77.1815109  61.3920174  23.3303204  77.5048370
   1.8699871  66.0490036  22.3908234   1.6279465  65.5138550  23.1466427
   1.2429740  65.8013000  21.7113171  20.2196999  12.0546827  46.9448624
  20.2223434  12.1295481  45.9906006  20.2750034  11.1137133  47.1114426
   6.4545751   7.3301029  87.8367004   6.2012086   7.8395944  87.0669861
   5.9099970   7.6769133  88.5433731  73.4794083  70.4668045  22.3253574
  73.4673462  70.3716202  23.2777367  72.5559921  70.4705734  22.0733147
  10.8684444  21.3019085  58.9199600  11.8056870  21.3250446  58.7269020
  10.6395521  20.3731384  58.8849716  39.8490791  69.9377899  61.0831490
  39.3362694  69.6679688  61.8450241  40.7223320  69.5800018  61.2432976
  15.7062378  54.9779854   4.3335748  16.0029602  55.8654556   4.1321216
  15.0689459  54.7771530   3.6481874  20.9826698  30.7653255   6.3670735
  20.0314026  30.8714447   6.3748288  21.2541485  31.1009254   5.5127292
  17.7538166  62.8937416  49.2245674  17.7763844  63.8492432  49.2768974
  18.2291908  62.6866417  48.4199791  80.6593628  17.4877625  32.5385895
  80.8562851  17.7700005  33.4317818  81.5170212  17.3582134  32.1337662
  62.8214836  28.2590580  19.0776939  62.2800598  28.7320366  18.4457283
  62.6435471  27.3351994  18.9014740  33.7685051  62.6038132  81.4605637
  33.5742798  61.7053185  81.1937027  34.6255722  62.5481911  81.8831406
  41.8251762  13.1313877  21.2414837  41.5537605  12.2901554  21.6087589
  41.8780098  13.7167282  21.9970074  73.9901199  44.8984375  48.4427452
  73.3203278  45.2910995  49.0025902  74.3776169  45.6395226  47.9770508
  10.5907488   4.7984838  57.5866280  11.0334253   3.9752331  57.7928505
   9.9516697   4.9096417  58.2905121  75.9786224  56.2204285  18.8687725
  76.6416550  56.3127937  19.5529423  76.4667206  55.9235764  18.1007404
  38.1049500  15.3239689  43.4398384  38.0047989  14.5731535  42.8546219
  37.6000328  16.0219307  43.0225372  22.1432152  62.8808403  26.1510887
  22.4680843  63.0278435  25.2627869  22.3812428  63.6760139  26.6278229
  57.6099510  69.6550674  78.5911407  57.6279411  68.9307175  77.9656601
  58.4312286  70.1228027  78.4396286  53.3403511  15.4897261  60.3497810
  53.8123741  15.6430960  61.1682587  53.7998085  16.0265961  59.7041016
  59.7358704   8.2559786  80.5940704  59.8281364   7.8337188  79.7400131
  60.2948418   7.7421350  81.1769485  56.8172951  14.4172392  68.6075363
  56.9542618  13.6847343  68.0067749  56.1263008  14.1168394  69.1978912
  24.8287792  27.6773415  28.1142368  24.4920559  27.7750759  29.0049095
  24.0898685  27.3283672  27.6157799   2.5116422  60.4834404  70.2469559
   3.0174172  60.5242767  71.0585938   1.6888932  60.9262390  70.4549103
   2.9510195  54.4171410  71.0439224   3.0900624  54.1862068  70.1254578
   2.0220282  54.6417503  71.0964203  16.8885880  63.8921432  23.8387146
  17.6741390  63.6455650  23.3505135  16.1641979  63.6784897  23.2506332
  72.8768005  51.7710495  61.1274796  72.3221893  52.4818764  60.8059692
  73.6534500  51.8018074  60.5688171  10.2123232  70.7345123  63.2253036
   9.9544544  70.5325165  62.3258972  10.7322826  69.9795074  63.5006943
  16.9124737  18.7321644  24.7776508  16.5269146  19.6047707  24.8559742
  17.6916924  18.7639122  25.3326683  28.7276764  12.0642414  63.6100464
  28.4993610  12.9926643  63.6562691  28.6800098  11.8519926  62.6778946
  21.8893909  61.3049965  33.0833435  21.3730202  62.1106567  33.0609818
  22.6821651  61.5419006  33.5646095  26.8412228  66.7301712  44.3885536
  26.1563892  67.2685928  44.7852097  26.5068817  65.8352356  44.4481049
  70.5017700  23.1429520  16.0649776  70.7968063  23.6652584  16.8108864
  70.3855972  22.2618656  16.4205341  80.9306335  57.0185242  80.8739471
  81.5598755  57.3170357  80.2173004  80.0837173  57.3269844  80.5517426
  73.7221985  15.1588678  61.8961449  74.2535477  14.4885340  61.4665375
  74.3587952  15.7881193  62.2352943  34.2389297  32.8777733  17.8755493
  35.0724144  33.0049095  17.4223690  33.6503181  32.5354118  17.2028255
  72.0582047   7.2740455  26.5074196  72.3311691   7.4745364  27.4026985
  71.9288025   8.1300602  26.0990982  33.3387947  51.0399704  76.0788651
  32.5298004  51.1715164  75.5844421  33.2542953  51.6204453  76.8352661
  72.2786102   8.1795979  34.7378197  72.0305939   8.2482958  35.6597710
  73.2215576   8.0159369  34.7550125  21.8664494  39.3148727  76.9452591
  22.5438995  38.6394424  76.9122925  21.1229935  38.9313278  76.4800720
  55.9067116  10.0697575  75.3446045  55.9001541  11.0038719  75.5534515
  55.8434334  10.0373011  74.3900528  54.8904762  54.7229614  59.2635574
  53.9384880  54.8216400  59.2489357  55.1996002  55.2755089  58.5456657
  76.8103714   9.8419142  77.7048264  76.8193130   8.8865271  77.6466141
  77.4721069  10.1264782  77.0744553  37.2351913   5.9686279  71.5542603
  37.7886238   5.9825854  72.3351288  37.5422211   5.2108016  71.0566025
   8.6366892  48.9013710  46.8374748   8.4337444  48.8299980  45.9047623
   8.5741138  48.0043259  47.1655388  72.9578323   2.3164868  24.6445427
  73.3096466   2.6307020  23.8116417  72.0221176   2.1993845  24.4803772
  19.4921360  40.1527939  19.5623226  18.5912876  39.8301582  19.5870266
  19.7119904  40.3196907  20.4788609  35.5998917   0.0672836  77.7070770
  35.7403564   0.9896948  77.4933929  35.9682236  -0.4096352  76.9633636
  24.1538372   6.5788288  54.4175873  23.4331379   7.1519504  54.1561394
  24.0608387   5.8070650  53.8590508  73.8031540  61.8363037  70.9877777
  74.4331894  61.2007332  70.6481705  73.8044739  61.6926460  71.9341354
   2.3803778  40.0461311  77.0972748   1.5074060  39.6798859  76.9557953
   2.2577484  40.6976967  77.7876740  28.2679691  61.8580170  73.6328888
  28.4657784  62.3665237  72.8464279  27.3307533  61.9911690  73.7747650
  66.9351501  34.7125549  81.0440063  67.1340256  33.7838402  81.1630554
  66.4322815  34.9515381  81.8226242  39.3557625  64.6999969  18.0274734
  38.7633553  65.0301895  18.7029419  40.1567192  65.2118225  18.1403294
  28.1823997  54.9757309  28.8811073  28.5918274  54.1193810  29.0046520
  28.9146900  55.5698624  28.7168102  59.4139061  29.3882694  33.0925865
  58.8000031  29.9952602  33.5060081  59.3602257  28.5941391  33.6242905
   4.4121413   6.7088737  71.9261780   3.5957875   7.2077308  71.8955078
   4.3904538   6.2659678  72.7744675  25.6290913  41.9734306  29.4449844
  26.5151443  41.6875191  29.6672401  25.4082813  42.6154861  30.1197014
  82.2825928  19.7298298  80.3323898  82.5685272  20.2155914  79.5587616
  83.0951462  19.4826221  80.7738342   5.2437730  41.4029274   6.6829138
   5.3720546  42.1821098   7.2238903   5.4333472  40.6704292   7.2692041
   2.3188782  19.0717392  41.4598999   2.0554881  18.5051193  42.1850204
   3.2400756  19.2673817  41.6312218  70.0813675  12.4597826  75.6766434
  69.4347076  12.1163960  75.0600815  69.8974380  12.0014982  76.4966278
  18.7488461  21.2264862  13.0893459  18.8395863  20.6376495  12.3401670
  18.9676189  22.0912628  12.7421665  26.9146862  19.0616055  49.3129234
  26.4873543  19.2671108  48.4814262  26.7354965  19.8203659  49.8682671
  17.2072716   8.0493784  19.3697777  16.9159813   7.1440067  19.2616768
  17.3124828   8.3754654  18.4760056  75.9773254  31.3240967  68.3661880
  76.9024582  31.4948483  68.1895142  75.8043594  31.7741699  69.1930771
  60.1726494  37.3979988  26.3933392  59.6298447  38.1378517  26.6657619
  60.6618690  37.7250328  25.6383915  34.4666138   8.4740162  76.3450394
  34.7922173   7.8166103  75.7302017  33.7163582   8.0559473  76.7676163
  49.9253731  49.6827240  81.1480103  50.0746918  49.2176170  81.9711838
  50.1552238  49.0481377  80.4692612  70.0866165  29.8639202  19.5838127
  69.8250275  29.9826794  20.4968834  70.5724640  30.6600189  19.3683701
  24.8891716  21.0861759   4.8331966  24.3829117  20.2862225   4.9746466
  24.7679920  21.5915890   5.6370029  20.2404728   9.2734423  33.4024773
  21.1485786   9.1639671  33.6845932  20.1963387   8.8251133  32.5579147
  67.3841629  71.8903198  79.4321823  66.8824005  71.3900223  78.7886276
  67.7705917  71.2264023  80.0032578   9.1882248  45.2162132  88.1887131
   8.8717556  45.9507484  88.7145767   9.2724609  44.4943886  88.8116913
   4.2834244   9.2185183  43.8447075   3.9794459   9.3042564  42.9411163
   3.8443887   8.4332724  44.1716156  64.2470016  59.0923615  72.7558289
  64.9602814  59.5926628  72.3593750  64.4745178  59.0455971  73.6844177
  44.4092903  61.7884369  40.2548981  45.0280266  62.3315926  39.7666550
  44.9473152  61.3397980  40.9071884  79.6183243  39.5438232   2.0549881
  80.2227402  39.6342430   1.3182796  80.0273743  40.0416222   2.7628763
  11.1690340  47.9302597  49.7400322  11.7994890  48.3519249  49.1561127
  11.3210011  48.3391914  50.5920372  69.1720123  39.5504608  67.4051285
  69.4094086  39.2684021  66.5217743  68.2544785  39.8137207  67.3340225
  20.7664814  49.4443626  36.5916023  20.7370396  49.0473595  35.7211113
  21.6588039  49.2832718  36.8982620  60.5499916  43.9458389  25.5657425
  60.7614632  44.8126984  25.9122486  61.1248245  43.3494072  26.0453987
  49.3266602  55.3262024  70.2951355  48.9696121  55.8524704  71.0105362
  50.1444664  55.7646790  70.0602722  82.4153214  28.7053623  85.5697556
  82.5829010  27.8014641  85.3030777  83.1908722  28.9544754  86.0724411
  82.8132706  38.4625206  55.6947632  81.9550400  38.7067451  56.0412102
  82.6974945  38.4648285  54.7445946  41.7257042  36.5111847  85.5382385
  41.5094872  36.1711159  86.4064789  41.5193329  37.4445267  85.5883560
  22.6703815  64.6351013  89.0888443  23.2702675  64.0291443  89.5238037
  22.6550789  64.3438797  88.1771469  67.3804550  33.3784637  25.7714252
  68.2000580  33.8547401  25.9042168  67.3050537  33.2918053  24.8211422
  80.1263275  50.4414978  40.7016411  79.8113022  51.1899605  40.1948891
  79.8126373  50.6053162  41.5910187  60.6469421  60.8518906  77.6029587
  60.8234253  60.8395996  76.6622467  59.9445419  60.2128296  77.7232437
  48.9203758   2.4154837  51.5933189  49.5322418   2.9669108  51.1056900
  48.7090416   1.7019006  50.9913483  29.4901047  55.1709213  31.5520134
  30.4368591  55.0393791  31.6028423  29.3864079  56.1113396  31.4067955
  78.5705109  52.3503380  39.5369415  77.8348160  52.3806534  40.1485481
  78.6836548  53.2574959  39.2532234  18.5745659   9.2739744  60.1782150
  18.2160187  10.1607847  60.1429596  19.5231571   9.3999052  60.2015839
  74.1283112  43.9488869  17.1824932  74.5517502  43.2014122  16.7603493
  73.5174255  43.5570602  17.8066120   0.7980385  60.1945686  54.5068932
   1.2293441  60.0452003  53.6655273   0.7919403  59.3353806  54.9287834
  44.6498795  50.8044052  80.6019135  45.4660912  51.1555481  80.9579010
  44.3913498  50.1231537  81.2226257   2.0683768  10.1484509  64.2094040
   1.7887948   9.9787769  65.1090012   3.0238481  10.1015415  64.2426529
   6.5974264  24.6329288  67.5108643   7.3636522  25.1551552  67.7483749
   6.5737867  23.9322224  68.1625443  10.5085640  47.7889900  40.4208717
  10.3582678  48.5397263  40.9953651  11.0996418  48.1195831  39.7444344
  15.5745697  28.6045609  33.0509300  14.9515991  27.9680653  33.4016609
  15.0690737  29.1077461  32.4125671  63.9455261  13.5797911  13.7824230
  64.3725433  13.8365726  14.5997057  64.6181183  13.0968075  13.3022366
   1.3067716  53.8769341   7.1421380   1.5311991  54.3353004   7.9519296
   0.3536876  53.9446182   7.0848551  41.0819397  24.9767323  83.1995544
  41.5519371  25.1189938  82.3779068  40.1631165  24.9059658  82.9407425
  34.6272812  61.4133720  22.1224709  35.3659706  62.0142441  22.2200279
  34.1590996  61.7326355  21.3510361  48.6298332   6.4998541  21.5431919
  49.0863266   6.4899111  22.3844700  48.4147301   5.5821438  21.3765507
  64.9883118  24.6534615  63.7332535  65.7431870  25.2352142  63.8224983
  65.3667603  23.7754993  63.6864204   2.9430640  50.6041870  14.1973982
   2.4039409  51.3928719  14.2570419   2.4731154  50.0385971  13.5846291
  75.4579391  57.7347755  10.3324833  75.3184509  57.2442665   9.5224361
  75.2699432  58.6434746  10.0976324  36.7386169   1.3335036   6.9549675
  36.4566460   1.8211870   7.7288470  37.5889359   1.7113496   6.7304311
   0.5952408  11.7866268  40.2001724  -0.3066145  11.9685669  40.4643440
   0.6700408  12.1676483  39.3252678   9.5247078  44.6464310  10.3004217
  10.0932589  44.7772865  11.0592747  10.0782909  44.8542747   9.5477076
  12.3574696   8.3551407   2.2231400  13.2930498   8.1541986   2.1998100
  12.2734232   9.1634731   1.7174063  40.6176453  16.4864750  88.2722549
  39.9589081  17.1484756  88.4821320  41.4044800  16.9896069  88.0625381
  53.3673706   7.1172690  11.3328772  53.3968239   6.9979091  12.2821493
  52.8352623   6.3873754  11.0160999  22.5579319   2.4753711  74.6023331
  22.4074116   1.8409432  73.9015656  23.5107555   2.5441539  74.6625595
  18.5770264   4.2030430  57.4988785  17.9037876   4.5147767  56.8940582
  18.6500206   4.8968406  58.1542778  48.5980415  37.8711815  59.0093384
  47.9983788  38.4227486  58.5069351  48.4841309  36.9954147  58.6401596
  83.5824509  42.1425667  70.2518082  83.8241653  41.2847023  70.6009140
  82.6393051  42.2054520  70.4026489   6.7992697  30.6550789   4.1183066
   6.2351704  31.1060982   4.7464824   6.2368522  30.5003777   3.3593693
  47.5746994   4.4324131   0.8766352  48.0667686   5.1910443   1.1906075
  47.3724365   4.6390486  -0.0358468  52.7788048  55.3078918  83.7490082
  52.1801720  54.6127052  84.0221024  52.3365898  55.7288742  83.0118179
  69.3064423  27.0042610  64.8860550  69.5115585  27.7662354  65.4278641
  69.3365936  27.3338966  63.9879112  10.1605015  47.5913696  74.0130692
  10.3444061  47.5775986  73.0737991  10.5432806  48.4132385  74.3200455
  62.5477409  56.8070526  14.4865665  62.8336143  57.3996544  13.7913475
  63.0091591  57.1134453  15.2672386  51.9465523  71.5075989  34.1789055
  51.3443604  70.9093781  34.6213226  52.1191902  71.0921936  33.3339996
  41.8176765  27.3451481   2.4767396  42.5183411  26.6930275   2.4707634
  42.2114410  28.1234035   2.0824070  73.4103699  34.1641960  18.8279934
  73.3249817  34.4946289  17.9337044  74.3148727  34.3618126  19.0710049
   5.2110548  68.4647522  52.5275574   5.4870291  68.0058823  51.7341385
   4.3941278  68.0350037  52.7808952  37.2556152  10.6138163  41.5006714
  36.6094589   9.9338264  41.6912689  38.1007767  10.1886063  41.6460381
   0.9986726  58.7401619  76.7974854   1.7851340  58.9579697  77.2977524
   0.3011263  59.2444382  77.2162552  84.8121033  57.9856834  38.9105225
  84.7758484  58.7782097  38.3749733  85.4465332  58.1897240  39.5976143
  78.3673172  70.2266693  47.0223389  78.1104965  69.6591568  47.7491112
  78.0203323  69.7908478  46.2439499  59.8235474  31.8717422  21.1806316
  60.7187004  32.2040863  21.2475967  59.9207382  30.9950352  20.8089180
  14.7587214  48.7634544  41.6984673  15.6945858  48.5627403  41.6882629
  14.4584827  48.5506897  40.8148270  65.7638474   8.2454662  75.1148376
  65.2542801   8.8336630  74.5575256  66.6458511   8.2680731  74.7436295
  75.4423218  66.5160370  36.2653084  75.9028625  66.9666443  36.9731827
  74.5209808  66.5434647  36.5233994  26.8563747  27.7908154  48.7327271
  26.4079819  27.6164589  49.5602417  26.6029358  27.0630150  48.1650047
   6.1332817  67.2603607  57.9435387   6.6127024  67.0688705  57.1374893
   5.4137473  66.6291199  57.9499626  76.2014084  55.3656693  43.6110153
  75.7736740  56.0489464  44.1271667  76.8954163  55.8231430  43.1363602
  36.5384140  53.2286987  76.1870651  36.8701935  54.1260452  76.2174683
  36.3158951  53.0247116  77.0954208  66.7527237  26.9686184  30.4482918
  65.8799362  26.6969700  30.1642551  67.3491974  26.5320187  29.8401546
  24.8825245  15.8724899  18.0436172  23.9501801  15.6562042  18.0299873
  25.1306515  15.9210539  17.1204128  56.7698936  12.1569414  55.3818130
  56.8618851  11.6557188  56.1920891  56.5223503  13.0353994  55.6703758
   8.4298306  43.9306564  70.6906357   8.4205894  44.2593040  71.5895996
   9.2336245  43.4141388  70.6327057  63.1840477   6.0809059  48.1636543
  63.1122246   5.2503061  48.6339531  62.8859100   5.8803606  47.2764549
  72.4513474  18.5088100  72.9821091  73.3291855  18.8861942  72.9254227
  72.5901718  17.5655766  72.8968353  65.8247299  65.7423553  57.2665977
  66.5281677  65.3697815  57.7981949  66.1599808  66.5949554  56.9892731
  61.5058556  19.2278004  64.4048996  60.8692169  18.7927570  64.9720535
  61.0206947  19.4180183  63.6019897   1.4528276   8.4479685  80.1169815
   1.1890708   7.6597033  79.6423187   2.3494353   8.2684002  80.3999634
  43.8499413  55.8757439  33.5692749  44.0426750  56.7367363  33.9404564
  43.1178627  55.5481110  34.0917244  31.0796299  70.3323669  33.2249413
  30.4074631  70.5291519  33.8773994  30.9263496  70.9664078  32.5244179
  66.0812378  17.7578106  42.2418556  65.4085541  18.1562176  41.6895866
  65.8409042  16.8321400  42.2819366  60.2639580   9.2787104  58.3744431
  59.9293594  10.1308622  58.0949593  59.4841003   8.7293015  58.4532318
  11.7288647  36.6268654  78.2133560  12.4205446  37.2747269  78.0788879
  12.0189400  36.1208267  78.9723129  65.4344025  61.6377182  62.4515190
  65.8473206  60.8388214  62.7793732  64.8899994  61.9414062  63.1779022
  42.8792038  31.1609173  13.7320023  42.2592201  31.5619202  13.1228647
  42.4307594  31.1801167  14.5774384  45.0799713   6.4445519  17.4004669
  45.3888397   7.1015334  18.0243301  44.6388893   6.9507809  16.7182560
  45.3425064  35.9437828  25.9871216  44.8235703  35.6125107  26.7200565
  45.5568619  36.8437271  26.2328491  42.8586540  15.8150778  35.2767487
  43.7394371  15.8151951  35.6515160  42.5578232  16.7187977  35.3717384
  81.1214294  63.8421936  81.5254440  81.4107742  63.8130264  80.6134872
  81.6927948  63.2217178  81.9779739  33.3795776  49.0227814   2.7703481
  33.2086906  48.8440132   3.6950488  32.7572174  49.7128601   2.5408139
  37.0493431  26.2860603  33.6679382  36.4819374  25.5253811  33.7930260
  37.8847733  25.9171410  33.3812485  61.5553627  63.8124809  45.1107979
  62.3122711  63.2265434  45.1104279  60.7992783  63.2270241  45.1532936
  37.1497116  66.4170456  25.9164219  38.0555115  66.7219086  25.8633595
  36.7080154  66.8502655  25.1860409  64.3286667  13.0075960  26.4110432
  65.1714249  13.4487104  26.5178776  64.1251068  12.6659098  27.2817001
  42.7069206  11.0953388  83.6467209  43.5679054  10.6847267  83.5671234
  42.7425461  11.5670729  84.4788437  11.5431461  62.1172523  29.0318165
  11.7194090  61.3304367  28.5159836  11.6264029  61.8309631  29.9413986
  75.6617050  61.0434608  57.7632637  76.2395248  60.3421097  57.4624939
  75.3033447  61.4198265  56.9594269   3.4833214  46.7003822  44.9764366
   3.2499976  46.1062927  44.2630997   4.4032164  46.5074883  45.1575890
   6.0510368  63.3842735  83.4113159   6.5746922  62.6077843  83.6090164
   6.4507446  64.0814743  83.9312820  27.4291363  10.1856642   3.6024206
  27.3937588  10.7006474   2.7963355  28.3625317  10.0296936   3.7462232
  39.4605598  50.5629883   6.5505795  38.5645103  50.5104065   6.8830934
  39.5063744  49.8842125   5.8772316  10.3178902  19.6781425  81.9724350
  10.3056307  19.3230572  82.8612518   9.9687471  18.9726391  81.4278259
  23.3108578  14.3454809  22.8036537  23.6665630  15.2334642  22.8381977
  23.3775425  14.0964470  21.8818264  19.5973320  70.7018661  82.2723694
  19.4574738  70.3513718  83.1520462  18.8056622  71.2070236  82.0871582
  50.7607079  31.4109631  11.3339567  50.7940979  31.5470486  12.2808456
  50.5863876  30.4752579  11.2324619  58.3290024  24.7679901  63.9883308
  57.9787712  24.8376045  63.1002312  57.9692078  23.9469547  64.3240051
   2.3292935   8.5520544  72.4353638   3.1011620   8.9632730  72.8243942
   1.5916898   8.9154701  72.9253616  85.9831467  42.5563011  11.6438265
  86.6762619  42.4508820  10.9921284  85.6798096  43.4566612  11.5273504
  57.4744148  63.3233490  39.7794609  57.7251434  62.4756622  40.1466026
  58.1115456  63.4804306  39.0825958  66.5743637  29.9851513  62.9931221
  66.1801453  29.7959576  63.8446083  67.5054626  29.7986221  63.1135063
   2.6905758  21.4617119  16.4218903   1.9531227  21.5962143  17.0171242
   2.7909164  20.5108967  16.3758945  49.5135612  12.7959118  88.5116196
  50.2083588  12.8829937  87.8590088  49.8695602  12.1894484  89.1610031
  82.3443069  33.7537041  11.3409376  82.3294220  33.1235352  10.6205912
  83.2324295  33.6941299  11.6929655   7.3391709  10.6886129   5.3177538
   7.8818479  10.2181768   5.9505444   6.9333830  11.3911304   5.8257265
  30.6514893  62.1985359  67.1246567  30.7634716  61.4141998  67.6617889
  31.5024872  62.3250008  66.7050858  78.0135117  13.1697645   9.1587458
  77.6424255  13.8561592   9.7131720  77.3550262  12.4750795   9.1645346
   8.7833700  64.3564758  24.6295509   8.4848013  63.4473457  24.6058006
   8.3036919  64.7471008  25.3599968  82.0671234  38.1579247  76.1823349
  81.5194626  37.5505295  75.6849747  82.1452026  37.7563629  77.0477142
  70.8306274  21.1721802  33.9920311  70.6276550  21.6602802  34.7900238
  70.6618347  21.7921848  33.2825699  71.4935760  44.3402138  15.4138880
  71.6296005  43.6340714  14.7821512  72.3765030  44.5972328  15.6796083
  70.5856094  19.2532196  87.5101395  69.8709641  18.8291435  87.0350876
  71.0845947  18.5292263  87.8883972  76.1661224  18.8592625  48.7037621
  75.4643250  18.2166100  48.8072510  76.9674301  18.3364372  48.6757584
  11.9440937   0.4266635  47.9394722  11.2082167   0.7688293  47.4318924
  12.1526747  -0.4103241  47.5245285  47.5208168  11.4243946  33.6210022
  47.3545685  10.6175766  33.1335220  46.8543396  11.4307766  34.3080254
  36.7249908  44.5913963  82.2595825  36.3659401  44.7384720  83.1346130
  37.6137199  44.9442558  82.3029404  13.3943806  15.7207985  53.4454231
  13.6395025  15.4397840  54.3269997  13.8000593  16.5821934  53.3471489
   5.4643903  38.6060715  82.3353424   5.8375831  39.4873657  82.3519821
   4.5306168  38.7382545  82.4991302  86.6137238  25.3729992   4.9924464
  86.1210022  26.1435413   4.7100911  86.8747711  24.9438190   4.1776505
  51.1131363  70.0282364  62.5139198  51.6457558  69.7771072  63.2685661
  50.9603691  69.2078857  62.0449600  85.9564056  22.9020214  80.2208710
  85.3502731  23.6400013  80.2858276  86.7814713  23.2941837  79.9350204
  22.9951134  53.6149216  77.9649734  22.3044472  53.9990311  77.4249039
  23.8094006  53.8882980  77.5425568  72.7774124  65.6330414  54.7640343
  73.0048065  65.3008499  55.6324692  73.6010666  65.6131363  54.2767639
   5.2520857  62.9906502  45.6519508   4.8637743  62.9705544  44.7772827
   6.1841187  62.8305092  45.5039597  10.4791594  51.5080147  73.5277252
  10.7552996  52.4244995  73.5221100  10.2649384  51.3280106  74.4431152
  11.6606579  40.5484123  13.7652788  10.9434013  40.6287384  13.1365318
  11.9265919  41.4508209  13.9418287  78.3063889  23.7539196   9.2023811
  78.2074509  23.3001728   8.3653879  77.6811523  24.4773407   9.1580181
  19.6539612  67.3378906  35.2250938  20.1526470  67.9444580  35.7724648
  18.7390137  67.5149307  35.4436340  81.4075241   8.4471521   6.0944924
  81.3027878   8.1983223   7.0128317  80.6383286   8.0811071   5.6579394
  18.5343876  68.6927338  86.7579880  17.6013527  68.9064407  86.7602539
  18.8928928  69.1772842  87.5015640  73.8049088  25.5627556  68.1548004
  74.3931808  25.7691803  67.4284744  72.9460907  25.8669434  67.8613205
  71.0944443   5.3563790  74.3051147  70.6735382   5.7557549  75.0664062
  72.0297394   5.5070548  74.4420395  40.2839432  24.1702518  30.3766499
  40.0360031  24.5718403  31.2094059  39.6491661  23.4646244  30.2526340
   4.8977952  26.4020596   2.9472067   4.3931732  26.5379887   2.1452641
   5.7990222  26.6108437   2.7013810  29.5511131  58.2426643  84.4543381
  30.0067501  59.0376205  84.7312393  28.7917137  58.1874695  85.0344238
  34.4762688   2.8212957  36.3465691  34.5889778   1.9680506  36.7654991
  34.8349342   3.4465749  36.9763451  33.7768631  58.6202698  56.7751694
  33.2377319  59.4111900  56.7790871  33.1952629  57.9355927  56.4447250
  49.1272125  63.6801987  69.6417160  48.4858093  62.9697838  69.6296310
  48.9625473  64.1653366  68.8331604  62.6068840  26.1511364   6.2587428
  61.8554764  26.6443653   6.5878959  63.1060715  26.7880154   5.7474408
  68.9748688  30.6075459  33.3022041  68.2047043  30.0906219  33.0658455
  69.5794144  29.9737816  33.6883392  62.5272903  21.8165455  88.7380447
  62.5805626  22.6506424  89.2046051  61.8233871  21.9425583  88.1017532
  81.4651337  52.5734177  15.3995857  81.0831299  53.1224976  14.7148848
  82.2640686  52.2218361  15.0067387  14.6650476  44.0137749  84.5250854
  14.9557962  44.6404686  85.1876221  14.7584019  43.1593208  84.9463120
  39.4556351   4.4679308  76.3601685  40.2410965   4.3824711  76.9005127
  39.2812538   3.5797133  76.0488892  22.7052422  41.8914948  76.2906876
  22.6328106  41.0407486  76.7233658  22.8713531  41.6796608  75.3721237
  79.0749588  28.0447693   5.3016143  79.2831116  28.9231529   5.6199694
  79.9070663  27.5731239   5.3387527  57.6665115  55.2582054  24.0254078
  57.7959709  56.1125183  23.6135578  57.5301132  54.6573677  23.2928619
  74.5297775  20.5858955  84.8576584  73.5862732  20.7362499  84.7991562
  74.6284561  19.6395683  84.7529678  66.1767578   6.7208900  30.4574165
  66.6716537   7.4268246  30.8733139  66.7833557   6.3476248  29.8179302
   6.3256459  33.7623367  70.5933380   6.3731050  34.4081497  69.8884201
   6.5391665  34.2559471  71.3851624  80.4983978  22.4511852  35.0034943
  81.1043625  22.1234550  34.3389435  79.8079910  21.7894955  35.0452652
  27.4421406  35.5564919  19.1276798  26.7284031  35.5800400  19.7650623
  27.0857239  35.9910011  18.3528233  30.1849499   1.8769811  53.1489944
  30.3405800   2.1120248  54.0637436  29.3890820   1.3455935  53.1703110
   4.6954212  42.4643440  20.6239986   5.1725101  42.9180717  19.9291973
   5.2825656  42.4981575  21.3792133  77.3533859  14.4265308  76.4847031
  77.3140793  14.0998058  77.3835526  78.0481110  13.9124937  76.0731735
  64.6711044  49.6517715  48.9973602  64.1225662  50.2769127  49.4712105
  64.9388199  49.0165520  49.6614799  44.4113197  44.5449753  14.6502962
  45.1057663  43.8990211  14.7796068  43.6898270  44.0472374  14.2656698
  29.5096169  52.0744286   0.8751253  29.8370152  52.9051361   1.2200403
  28.6139755  52.2667160   0.5974870  60.1546326  34.3713951  68.9749527
  59.3663025  34.6984520  68.5415955  60.8213158  34.3672905  68.2881165
   2.7231894  54.8029747  67.9196014   2.8485229  55.7049980  68.2143478
   3.2056024  54.7514076  67.0944595  49.4013214  18.2967453  38.0288162
  49.6527443  17.5738258  37.4540024  49.9443550  19.0309105  37.7418480
   8.0920506  42.4869881  27.7235966   7.4362640  42.6574249  28.3997078
   7.6212864  42.6039581  26.8984108  14.2808208  54.4614525  66.6900482
  14.3556776  55.0990753  65.9800720  13.7207527  54.8890343  67.3379211
   6.4868436  57.6059875  84.1539993   6.9092474  58.3708687  84.5448532
   5.7162700  57.9590607  83.7092667  12.7210093  19.1695156  88.8649521
  12.7027464  19.5958672  89.7217560  12.2187386  19.7530956  88.2962723
  83.0084076  43.0415077  12.1764231  83.4104538  42.7491226  12.9944134
  83.6948013  42.9294701  11.5187435  12.9462309  32.4867096   7.7829804
  13.3276920  32.9140968   7.0161300  13.0740757  33.1136169   8.4949322
  19.6656895  22.9678040   8.2557678  20.3232517  23.0720215   8.9435034
  18.9117584  23.4685173   8.5673885  75.2070770  13.2603912  75.3348160
  74.8004150  14.0682869  75.0215073  75.9711227  13.5537205  75.8312302
  12.3041039   9.3160601  29.2429142  13.0588140   9.9043188  29.2673302
  11.5537500   9.8946409  29.1071014  54.0930214  39.6538200   5.0991488
  53.2687073  39.1804008   4.9868460  54.4242897  39.7724457   4.2089691
  31.7940941  25.9364643  27.4538193  32.1086197  26.8220692  27.6355000
  31.2554893  25.7131443  28.2129402   1.2878079  61.0120239  59.3261642
   1.7747743  61.4944992  58.6581001   1.6199561  61.3520393  60.1570053
   1.0243230  49.1434746  68.4815903   0.8566549  48.2441978  68.7633972
   1.9255626  49.3158035  68.7541733  45.9091873   5.4925652  41.8521919
  44.9748917   5.5413089  41.6498489  46.0646439   4.5678935  42.0446701
  35.2026482   8.8847256  56.5231056  34.7669029   8.9542303  55.6736794
  34.5258636   9.1163521  57.1591415  69.9418335  38.5643387  17.9491119
  69.2633514  38.9264717  18.5189800  69.5910034  38.6662216  17.0643673
  15.4747572  15.3311510  66.3861847  15.1247902  15.1838140  65.5075226
  15.5191479  16.2836666  66.4697037  77.1459351  28.5839539  16.8788109
  77.7763901  29.0846348  17.3965759  77.6344681  27.8152027  16.5845490
  37.4648895  66.1478348  34.2975502  36.7762489  65.5346527  34.5544777
  37.7669449  65.8265305  33.4479904  31.5769100  46.5756721  15.3489838
  31.7781754  45.9027176  14.6987104  30.7431774  46.9464569  15.0597801
   0.7582134   0.9779029  52.5627213   0.9363898   0.5476247  51.7264557
   1.6090149   1.0133907  52.9998817  58.8998642  67.3390045  20.2909470
  59.5336456  68.0063477  20.0278778  58.0834198  67.8217087  20.4199715
  50.7886238   2.3179204  57.7676506  50.4672050   1.7051914  58.4290810
  50.0592155   2.9212320  57.6254768  37.9141388  36.5353889  27.1157036
  38.8274117  36.3827171  27.3583107  37.4115372  35.9852104  27.7164764
   0.6736661  41.6950836  28.2082348   1.3335015  41.2607117  27.6677055
   1.0880460  42.5139732  28.4801559   7.9643536  41.9596596  44.8563461
   8.6362906  41.6429062  44.2526894   7.3959351  41.2031021  45.0004044
  10.4954767  18.9517651  35.4414864   9.6605310  18.5390949  35.6623917
  10.7476072  19.4224529  36.2359123  21.3126564  40.8648224  27.2784939
  21.2199974  41.8174591  27.2900887  22.2516956  40.7141800  27.3868713
  33.5474396   5.8027220  83.9664612  34.3851624   6.0613570  84.3506012
  32.9956169   5.5870442  84.7182693  36.6489792  55.1875687  86.6088409
  36.4635620  56.0721817  86.9239807  37.1292076  54.7735977  87.3259430
  26.4028358  44.7130966  82.7484665  27.3172607  44.9306908  82.9293365
  26.3310051  43.7830162  82.9629974  37.0366249   4.6368985  55.2319107
  36.0941238   4.7437978  55.3603439  37.4339790   5.1520767  55.9340057
  33.3566360   8.7885056  50.9320221  33.5985069   8.6190310  51.8425217
  32.8003006   9.5663595  50.9727974   3.0097568  13.1176214  42.2809677
   2.3324623  12.4956961  42.5468864   3.1825340  13.6345396  43.0678482
  74.6253815  36.0529175  22.3623142  75.2097855  36.7434959  22.6750584
  74.9567566  35.8350487  21.4911327  27.6627674  54.6382141  80.5816422
  27.9161873  53.9083519  80.0165634  27.8413754  54.3272324  81.4691162
  36.8375816  16.8884411  37.7907791  36.9882164  16.5542488  38.6750069
  35.9099655  17.1242657  37.7786560  45.9846802  46.5323105  22.3977528
  46.1629257  46.2237091  23.2861366  46.7674026  46.2953568  21.9003296
  40.0758934  34.3988113  34.5970268  39.8677406  34.1343536  33.7009430
  40.8609161  33.8978386  34.8183746  60.6161804   4.7413859  57.0025177
  60.2856789   5.6190305  56.8108406  60.2320480   4.1871409  56.3231926
  81.8862000  43.7937889  61.0370445  81.4705429  44.0859756  61.8482742
  82.7565460  43.5000267  61.3061829  64.1342468  68.6575317  23.8534489
  64.5050735  68.4591751  24.7133160  64.5373840  68.0186768  23.2655926
  86.0513458  33.8916969  16.0756893  85.8195496  33.0074425  16.3595867
  85.8539886  33.9020081  15.1391125  31.7809772  60.0256386  54.9418945
  32.6230392  60.0781212  54.4897804  31.1327496  59.9960060  54.2382240
  51.7625504  38.1324921  85.0809784  51.1941681  37.4315338  85.4000854
  52.2724838  37.7268600  84.3797913  45.2992821  11.0239420  66.3754272
  46.0773277  10.5859346  66.7204285  45.2451401  10.7339287  65.4648209
  77.6239014  26.7815418  11.2335997  77.2619095  26.5195503  10.3871050
  77.2715683  26.1423798  11.8529272  80.0075684  21.4799423  59.1602097
  79.1862411  21.7633896  58.7585793  79.8407669  21.5219917  60.1018257
  85.8417130  65.3039322  66.0793762  85.6224442  66.1600723  66.4470444
  86.0579987  64.7648163  66.8401642  20.0543652  30.4165134  24.6505680
  19.4254532  30.7606449  25.2848186  19.5137253  30.0750103  23.9383068
  74.9344101  47.9212456   0.4724506  74.4580841  48.3987274  -0.2067766
  74.3081741  47.2720604   0.7927905  68.7472687  71.5973053  59.2993126
  69.0762024  70.7080460  59.1679497  68.8661880  72.0244217  58.4509811
  38.4136848  36.1250496  89.0977783  38.2669373  35.7090187  88.2482986
  37.6991119  36.7563477  89.1819305  71.1661148  63.1161194   3.1741672
  71.8785477  62.9404793   2.5594919  70.7575836  62.2624435   3.3175745
  43.0989342  43.4851952   5.5234332  43.3582077  44.2937660   5.9652777
  42.5044136  43.7712593   4.8299327  79.7739182  11.6062546  85.0100403
  80.2643051  12.4281406  84.9939575  80.4262085  10.9342422  84.8121948
  36.2524147  44.3876724  88.1524429  35.7079849  44.3323784  87.3670959
  37.1327934  44.5656013  87.8215332  36.5481873  53.7039032  55.5736580
  36.0107079  54.0068169  54.8418159  35.9728203  53.7678528  56.3359528
   5.3154969  21.0840435  55.6961250   5.6923413  20.6367092  54.9384232
   4.6177335  21.6278706  55.3306007  35.5274544   0.5891854  28.8074093
  34.7544823   0.4241945  29.3473434  35.2515602   0.3638276  27.9189663
  50.0807533  36.8805542   5.8207932  49.3984985  37.1581154   6.4321208
  49.7545853  36.0582962   5.4550934  48.5900879  71.2580338  65.4092560
  47.9913292  70.6516876  65.8452148  48.4662285  72.0886688  65.8685379
  78.4450684  66.1950607   4.1979480  77.5837021  65.7820511   4.1371226
  78.6181564  66.5193176   3.3141325   4.5762668  46.5105934  57.2850838
   4.9536386  46.1916504  58.1049004   5.0248079  46.0094337  56.6039925
  70.4056854  68.9193802  50.6451492  69.5544968  68.8664932  50.2105217
  70.3740768  68.2386932  51.3173790  52.1008263   9.8543901  54.9586220
  52.8325233  10.4472256  55.1300697  52.0338478   9.8263597  54.0041771
   7.8880348  15.3332376  35.5608482   7.1620021  14.7166090  35.6550674
   8.2091751  15.1908655  34.6704369  12.3472223  39.6493645  40.0963020
  13.1308994  39.3511467  39.6346245  11.7524652  39.9311905  39.4012718
  44.2760773  68.6547623   2.3347526  45.2196960  68.7423401   2.4694517
  43.9264030  69.5273972   2.5149362  73.8188782  22.1470203  38.3226089
  73.4973373  21.6757488  39.0912094  74.7425690  22.3119564  38.5118790
  75.6178665   2.4705210  28.9578228  75.3242340   3.0740612  29.6402855
  76.0268021   1.7490752  29.4358540  41.9394341  36.5063972  25.3167706
  42.2779770  37.2950134  25.7406864  41.4124031  36.0790138  25.9919090
  25.2116680  66.3527832  86.9532471  24.5529461  67.0346756  87.0849533
  25.0189667  65.9980469  86.0853424  -0.1546988  57.5805244  56.5694962
   0.6552264  57.3776741  56.1014099  -0.4868065  56.7289505  56.8536720
  45.3015480  42.8862152  25.1355858  45.6497917  43.7304192  24.8487434
  44.4094391  42.8649864  24.7892818  37.2391510  15.8127289  20.9418144
  36.4327316  16.3269348  20.9807091  37.7293358  16.1908417  20.2117596
  50.2335052  27.4132748   3.7468452  49.4014397  27.4851170   4.2145381
  50.1384315  28.0008831   2.9972403  72.8689270  65.1743851  47.5451202
  73.0703659  64.3386688  47.9661179  72.6175079  64.9383011  46.6522141
  68.0427856   0.9927801   0.4077487  68.3310776   1.7306998   0.9449584
  68.6780243   0.3005745   0.5909097   2.6867042  47.2671623   4.6985469
   3.3991616  47.8570976   4.9447508   1.9148021  47.8311005   4.6498165
  14.9780111   9.5430765  63.9024773  14.6149025  10.1750307  64.5229721
  15.5626917   8.9986067  64.4296722  17.5499001   0.7637113   7.3361835
  17.9120312   0.4743094   6.4987240  17.3961887  -0.0458482   7.8232341
   7.6754527  66.6629257  42.4092979   8.5470314  67.0479050  42.3178062
   7.1982527  66.9640121  41.6360855  55.6375389   6.6175971  13.3627243
  55.6261444   6.2855988  12.4650173  56.5415115   6.8996987  13.5023031
   5.3454838  70.0766449   4.4881678   4.4864612  70.1743164   4.8989868
   5.2140927  70.3683472   3.5860171  61.9557190  26.0545177  53.5227242
  62.8844910  25.8336658  53.4531364  61.7108917  26.3403168  52.6426048
  27.6743221   4.5555797  10.1366720  27.6964340   5.4817748   9.8960371
  27.6902714   4.0903659   9.3002787  19.5153713  64.0601501  41.5283623
  19.4438305  64.9924316  41.3235054  18.9431000  63.9367256  42.2856636
   9.7127905  37.6520500  40.9543114   9.2215500  36.9355011  41.3561440
   9.2662830  38.4448204  41.2515907  71.8752136  39.4588547  44.6641350
  71.0995941  39.5554886  45.2166786  72.4303818  38.8388062  45.1369591
  69.4141083  21.8388672  57.4525528  68.6793137  21.6420918  56.8715248
  69.3415604  21.1948566  58.1569824  65.7358017  31.3921223  36.0558777
  65.0151978  31.6088161  35.4642677  65.6787491  32.0461617  36.7524490
  60.7818642  29.8723011  17.9552212  60.8773193  29.2347832  17.2476234
  60.0000038  30.3730927  17.7225552  35.4617348   7.5565248  64.9247894
  36.2003326   6.9514523  64.9925919  35.2451248   7.5665498  63.9924774
  37.3514061  69.6858215  27.3563061  37.7103386  68.9974976  27.9163170
  36.9103088  70.2815781  27.9618950  57.8258476  59.3943787  70.2479477
  56.9837685  59.0052719  70.0118713  58.4587326  58.9615822  69.6749039
  72.0397263  26.9561405  58.7737427  71.1982498  26.7102013  58.3894882
  72.6704102  26.8409882  58.0629578  78.7237244  43.0676575  87.9361496
  78.3794785  43.3125343  87.0772171  78.8841171  42.1262856  87.8703995
  37.4099770  48.7127113  16.5357780  38.1293983  48.1326218  16.7851086
  36.9367447  48.2298050  15.8582182  37.3526001  13.3702106   5.5552673
  36.7905235  13.0755997   4.8386741  38.1862831  13.5807734   5.1347117
   8.0663509   9.4764071  78.6778641   8.2912350   8.7131033  78.1458588
   8.1638794  10.2200289  78.0830994  67.4525604   4.7068577  40.7880783
  67.6825104   5.2918038  40.0661430  68.2543640   4.6396151  41.3065529
  41.5869789  53.8871307  78.7104416  41.1138611  53.1699486  79.1323929
  41.9171410  53.5093803  77.8952560  32.3379135  10.3253984  39.1117058
  32.5461845  10.6525717  38.2365990  32.4547844  11.0831251  39.6847916
  70.1970749  41.1825066   1.3088955  70.2258301  41.9633293   1.8618145
  70.7939377  41.3783455   0.5866534   5.2964058  29.3307323  59.8310471
   5.8380671  30.0150928  59.4380035   4.4324632  29.7324219  59.9231415
  53.6834259  26.4058495  86.7541580  53.3777199  27.2887745  86.5462723
  52.8877144  25.9235954  86.9788895  84.2948456   4.7421708  14.3797235
  83.8802872   4.7136145  15.2420197  85.0333405   5.3413162  14.4887352
  15.5644588  10.9312830  11.0555258  16.2101250  11.0986948  10.3689976
  15.8441696  10.1058092  11.4512358   7.5899324  70.0725937  52.4103432
   6.7969890  69.5971985  52.1623955   8.2985439  69.4434738  52.2750244
  62.4169121   4.3977127  78.4648895  62.4309578   4.1881986  79.3987732
  62.0698433   5.2888622  78.4245453  41.0960808  21.4525738  25.5948277
  41.3880692  21.9269390  26.3732586  40.3672333  20.9135494  25.9021740
   2.2478075   1.6542968  89.2674713   1.9853930   2.2124970  88.5354996
   2.6667430   0.8991360  88.8546066  26.5228043  57.6073151  25.8930550
  26.6869812  56.8972435  26.5135956  27.3860207  57.8194580  25.5379696
  18.1990108  54.6337204  34.7250366  18.8763008  54.0178757  34.4453125
  18.6434441  55.2140694  35.3430252  39.6695938  16.8245468  14.5289249
  39.2091713  17.5364799  14.0846376  40.4488602  16.6727848  13.9941874
  15.9839039  35.2600288  10.2526588  15.9135227  35.9188385   9.5618258
  16.0369644  35.7671623  11.0627394  17.4121342  12.2892027  31.4358959
  16.7063904  12.8958960  31.6596775  17.1517372  11.4602690  31.8375092
  28.5128613  33.6563416   7.4657845  27.9342308  32.9246597   7.2511792
  28.4300404  33.7570381   8.4140635  77.5595398  43.9421349  85.6896133
  76.8205109  43.3799438  85.4572220  77.1773987  44.8151360  85.7794495
  86.7530594  44.6071739  35.0280457  86.2536545  44.1032944  35.6706429
  86.1121826  45.2033958  34.6407166  85.9135437  49.7055779  59.6045876
  85.3690186  50.4824982  59.7315559  85.5728073  49.0689812  60.2329788
  22.5462189  15.8960457   4.7390385  22.2863560  16.7195129   5.1520834
  23.4380379  15.7425795   5.0510254  31.3228569  70.8428650  56.5409470
  32.0799179  70.9766541  57.1112022  30.8786087  70.0785675  56.9080048
  56.8628616  43.6105499  50.4842186  57.5128021  43.1170158  49.9839859
  56.5510368  44.2807808  49.8761177  33.8720512  48.1159782   5.4995766
  34.4272346  47.3414078   5.4099021  33.2338104  47.8766937   6.1716056
  73.2231979  43.0793839  41.0986443  74.0953903  42.6852264  41.1111298
  72.8311844  42.8199959  41.9324760  26.1324501  29.4769726  54.6784897
  25.5917301  30.1758022  54.3104019  26.2609329  28.8661079  53.9528389
  39.3443336  28.2475433   5.5391297  39.1020317  28.2265606   4.6133432
  38.5699120  27.9204769   5.9968700  19.6862888  64.8991852  79.8012009
  19.9314365  64.4974518  80.6347122  18.7620468  65.1247482  79.9066925
  41.8497353  71.1382599  67.4126205  42.4430466  71.6509628  66.8636627
  42.1115837  71.3479614  68.3091049   5.6557112  30.5586929   7.0983839
   6.5759492  30.2970924   7.0674257   5.1852770  29.8276176   6.6978188
  17.0336990  56.1723976  84.6876755  16.1084080  56.2201157  84.4472809
  17.0867729  55.4301529  85.2897491  17.6863461  69.1298599  21.3553658
  17.6084728  68.2338181  21.6829033  18.6247234  69.2512665  21.2106533
   9.2426424  64.5779495  78.6786346   8.5308819  64.0129776  78.3778992
   9.6872206  64.8508606  77.8760757  70.6942520  32.9299889  79.2516251
  71.5942764  33.2034378  79.0744171  70.4289246  33.4544678  80.0071106
  54.0659904  43.9557800  80.3480835  54.4633331  43.6802979  79.5219727
  53.5684891  43.1922569  80.6409302  78.7302628  41.8587227  51.0292740
  79.2640381  42.3566475  51.6484566  77.8787689  41.7769432  51.4588203
  46.0794678   0.8463613   1.7488036  46.7980423   0.6043627   2.3330297
  46.2257614   1.7733725   1.5604403  49.0381012  57.6043282  37.0609970
  49.6074715  57.4212303  37.8083458  48.3240891  56.9721603  37.1433258
  81.9381943  32.8956604  85.0300064  81.3070145  33.3513641  84.4730682
  82.3164749  33.5844498  85.5765457   8.1685038  51.0201149  15.2182684
   8.2578144  50.2965622  14.5980024   7.6484385  50.6578560  15.9355793
  80.2862930   6.4547210  28.5364647  80.5329285   6.2736263  27.6294880
  80.9153824   5.9578362  29.0595188   7.1136498  11.2021437  72.4413223
   7.3645735  11.8014784  71.7384262   7.8024678  10.5375137  72.4466782
  57.0449486  56.1306267  62.5761108  57.2287903  55.2095070  62.3918037
  56.3784714  56.1090965  63.2628250  30.8268852  11.8349695   7.1674690
  31.3647480  12.5559664   6.8402081  29.9952412  12.2451477   7.4048562
  75.5279160  44.0016518  32.1008682  74.6934509  44.3503990  31.7873917
  75.2908630  43.4411964  32.8397369  69.0438461  45.0818863   8.4377651
  69.3194122  44.6819534   7.6129322  69.4121780  44.5136490   9.1142836
  56.7318039  64.7518997  61.8517876  56.3354530  65.5924606  62.0811195
  56.4593124  64.1594849  62.5525169   8.8382120  13.1636009  39.4188042
   9.4661846  13.3072329  38.7108116   8.5175190  12.2728643  39.2774696
  86.7078629  52.5438805  34.1964378  87.1595001  52.5812340  35.0395660
  86.0128860  51.8984337  34.3253975   5.2955532  25.5520248  15.7474451
   6.0328426  25.9770699  16.1855946   5.5797095  24.6462517  15.6247196
   7.1554556  29.1952877  23.8632698   7.6350675  29.8277359  24.3982582
   7.2446556  29.5223579  22.9681168  60.4462738  20.3256645  16.4706173
  60.9425735  21.1012993  16.7319794  60.9482117  19.9532051  15.7456560
  10.1529322   9.7557058  68.8817673  10.5339928   9.3371811  68.1098480
  10.7977562  10.4143000  69.1400070  86.4756317  17.8090420  80.8753662
  86.1807938  18.4930058  80.2741165  85.7520752  17.1828423  80.8991470
  85.4209366  36.6297913   6.9357085  85.6952591  36.6149979   7.8526382
  85.3813629  37.5597649   6.7125216  38.2956619   0.5679608  68.7663803
  38.0528297   0.9011915  69.6302261  39.1858215   0.8909327  68.6266251
  72.5420151  29.9454422  50.9510460  72.3889389  29.1485977  51.4588242
  72.3553467  29.6928215  50.0468483  54.0472298  13.2828093  58.5196991
  54.6290398  13.6604071  57.8600388  53.8162384  14.0196733  59.0853004
  67.3819427   2.1705961  24.0006790  67.2726669   3.1214674  23.9891033
  67.0739517   1.9046421  24.8670750  70.8211136  38.4228401  34.8981552
  71.7471695  38.6266136  35.0290146  70.7520828  37.4877625  35.0907745
  43.6509895  29.2380791   0.6022350  43.6019440  28.6479988  -0.1498500
  44.4337692  28.9573765   1.0762591  78.6153030  19.3511391  52.8912697
  77.8887100  19.2416039  53.5046921  78.4510345  20.1967716  52.4739494
  44.0647125  15.2562714  47.9657669  43.8494568  15.4867840  47.0620193
  44.4734230  14.3930721  47.9019241  55.3948326  65.9754181  12.7193794
  56.1491928  66.3447189  12.2602625  54.6632805  66.0963821  12.1140423
  65.2172775  34.5903625  78.9808273  66.1191025  34.5921593  79.3016739
  64.8879700  35.4651718  79.1869736  41.6630135  51.9082260   5.5745392
  41.6340332  52.0449753   4.6276007  40.7512894  51.7547112   5.8223786
  19.8443298  45.1108131   4.5985112  20.6520309  45.6244812   4.5996275
  19.6353569  44.9910736   5.5249152  13.3904257  51.7633095  85.6821823
  12.8495197  52.2211723  85.0387421  14.0232477  51.2728920  85.1575317
  55.8156967  15.4495630  42.0333633  55.7281685  15.1424780  42.9357300
  55.6117935  14.6824112  41.4984512  57.4692116  10.4464149  57.7336998
  57.1978378  10.6382494  58.6313553  57.0464630   9.6124496  57.5287209
   2.6583600  47.9836044  37.8961601   2.1746495  48.5828247  37.3276596
   3.2036755  48.5545998  38.4372978   8.3443880  61.3005409   3.8042791
   9.2542143  61.5321159   3.6176755   8.3991776  60.6828079   4.5334120
   9.1294918  57.7063370  87.6368866   8.7229424  57.7794189  88.5003738
   9.1164379  56.7687416  87.4445877  52.2628212   9.1409140  16.0102711
  52.1295586   9.8964252  16.5826988  51.4904823   8.5936050  16.1523190
  14.5964117  16.3464165   0.4183493  14.4052467  15.8733864   1.2282445
  15.5413132  16.2483177   0.3010095  16.5011005   7.6308713  24.2814198
  16.4444580   6.7248597  23.9778309  17.4266415   7.7557583  24.4911995
  63.0285416  34.7011566  10.8771334  63.1969147  34.3507385  11.7518282
  62.5683365  33.9964256  10.4212894  48.4384995  31.0512562   4.9515214
  48.5927429  31.0930653   4.0077558  47.5080109  31.2524281   5.0512824
  41.7528038  31.2704124  75.1258316  41.7854843  31.4610786  74.1883850
  42.5723991  31.6244907  75.4709778  79.4226685  45.8171577   9.4080791
  80.3798676  45.8178024   9.4093037  79.1835709  46.4620132   8.7423277
  84.4910965  41.6720734  22.2618313  83.6729507  41.1972351  22.1155777
  85.1126785  41.2710075  21.6543636  64.1532974  67.6753235  14.8428698
  63.8668327  68.1677246  15.6120939  64.9503555  68.1211700  14.5562525
  35.1896019  18.0788326  21.1522541  34.7027931  18.8662033  20.9087486
  35.2658539  18.1294765  22.1050663  29.8893013   3.3044188  85.3351822
  30.4931679   3.9698842  85.6649323  29.5445099   2.8827567  86.1222992
  81.4622345  51.6527939   9.1249475  80.6700134  52.1828423   9.0373621
  81.6609344  51.6719398  10.0611010  58.4349976  17.4114590  75.5063248
  58.6552887  17.5621166  76.4255676  58.3999863  18.2873135  75.1217651
  16.0179214  60.3385239  88.0153046  15.8382483  59.4181404  88.2072449
  15.1531410  60.7455292  87.9630051  41.9420776  22.5833149  28.1305847
  42.0162086  22.5604191  29.0846348  41.8360863  23.5112057  27.9207859
  64.5976105  15.0207710  81.7070618  64.1673355  14.4109936  81.1076736
  64.4441376  14.6505747  82.5763321  69.6804504  47.6876640  49.4828339
  69.9414444  47.2092514  48.6959190  69.1940765  47.0473557  50.0021400
   6.2641411  49.3214874  34.6132507   6.3279619  50.1791496  34.1930389
   6.1492281  49.5182304  35.5429382  16.4239502  45.4044304  74.7017899
  16.5184898  44.6047897  74.1842346  16.0341949  46.0361938  74.0974731
  19.2377186  40.9529190  56.4278374  18.9681664  40.0366592  56.3642235
  18.4946270  41.4458961  56.0799561  77.2680359  42.4944725  13.8916616
  76.9890900  42.2698212  14.7793293  76.8215256  41.8589401  13.3322344
   6.6908436  47.3596992  59.7677231   6.8438563  47.3889503  60.7121620
   6.0724010  46.6390724  59.6474915  73.8620377  66.1094208  16.8755074
  74.0991898  67.0158539  17.0713596  74.3784561  65.5885010  17.4904823
  61.8267593  32.0849915  13.1891727  62.6447830  32.5724487  13.2863808
  61.8771362  31.3976593  13.8534536  29.5060406  63.1367416  71.2712555
  30.4156322  63.4041061  71.1393814  28.9947777  63.9217987  71.0749741
  12.1320515  67.3161163  35.9703712  11.9854088  67.4903717  35.0406609
  11.5946569  66.5464172  36.1574631  55.8589401  20.0647888  32.5739174
  55.7244797  20.0837555  31.6263981  56.2337532  20.9211464  32.7798309
  12.9377956  46.6044426   9.7473011  13.8860216  46.6877251   9.6464930
  12.5908318  46.7335892   8.8645954  34.0370979   9.4720659   5.7734694
  34.7573395  10.0242376   6.0777545  33.7295799   9.8987169   4.9736981
  77.3427200   9.3972683  42.1010132  77.1081848   8.4897051  41.9072266
  77.2643280   9.4669838  43.0524445  61.2478981  51.6900940   0.4490040
  60.7018318  50.9276924   0.6407994  62.1036186  51.3223572   0.2282359
  43.1016769  47.8582039  30.8700218  42.8981705  48.7902641  30.9479885
  43.8171539  47.8215523  30.2352123  83.0447540   4.6282635  61.5299225
  83.8680649   4.6560540  62.0173874  83.0793228   5.3946910  60.9575348
  51.7566719  19.5581398  88.3388443  51.5272942  18.7536430  88.8040390
  51.1186790  19.6136456  87.6274261  13.2808313  34.9681892  20.8154945
  13.9564657  34.5259056  21.3294353  13.4271517  35.8999214  20.9788780
  52.5610695  57.5818100  32.1765976  52.9400482  56.7742310  31.8295879
  52.6174049  57.4837189  33.1270905  19.0808945  49.0742188  61.3961601
  19.2926254  49.7558174  60.7583313  18.2365227  48.7289009  61.1062927
  76.3645630  43.6381645  55.3688354  76.6143646  43.3558044  56.2486649
  77.1948090  43.8397942  54.9372444  24.6670208  67.1281967  67.7696228
  25.2253227  67.2384872  68.5392761  24.8614521  67.8886185  67.2217407
  15.6922569  60.7601128  42.0890160  16.6052494  60.9959831  41.9245682
  15.2320499  61.0110931  41.2881088  19.5555992  35.7785149   7.9457130
  20.1427727  35.5131836   7.2378583  20.1377964  35.9680939   8.6814709
  81.7704086  13.3625803  84.4173584  82.4336548  14.0287304  84.2368546
  81.9382858  12.6762915  83.7715530  59.2716637  60.9143715  89.0268478
  59.2055511  60.5602303  88.1400299  58.3826866  61.1998940  89.2376175
   1.3682472   3.5789545  48.6012840   0.6471118   4.0412407  48.1740990
   2.0617082   4.2344398  48.6766663  39.5537109  19.0513191  17.1443214
  40.4441109  18.7444630  17.3153629  39.0710411  18.8438931  17.9444695
  37.5248642  53.6921387  71.6595612  37.7623444  52.7672081  71.5936966
  38.1589546  54.1425400  71.1016159  47.5410652  59.8800888   0.9908513
  47.9290466  59.5047417   0.2003973  46.6136627  59.6497841   0.9350479
  25.3688488  67.1858826  59.7053528  24.7057343  67.7514648  59.3095856
  24.8736954  66.6021652  60.2800903  15.0506239  12.2482529  54.1954155
  15.1988363  12.3793859  53.2588959  15.2953300  11.3360710  54.3512154
   9.2406397   2.8291643  19.0621223   9.8109045   2.5603616  19.7823830
   8.7412901   2.0418334  18.8453465  85.2936859  58.8804245  72.1916885
  84.5273361  58.3387413  72.0031967  85.3717041  59.4576111  71.4320831
  74.9445267  67.8093414  74.1221848  75.4613647  67.5821915  73.3491898
  75.2680817  68.6720428  74.3815994  73.4545670  33.2222214  64.5459061
  72.5550613  33.4173584  64.8086548  73.8322983  32.7715607  65.3011932
  64.6831894  69.4547424  35.0839348  65.4623108  69.5361633  34.5338707
  65.0090790  69.0954742  35.9091339  44.9096718  46.3179398   1.2967322
  45.0710983  45.3844299   1.1598636  44.5561256  46.3722191   2.1845899
  79.3573074  67.5168686  31.3994026  78.4526367  67.4386597  31.0966091
  79.2809143  67.7429657  32.3263741  11.3911238  14.8219061   8.6614609
  11.2936649  13.9107952   8.9382486  10.5040998  15.0985518   8.4314871
  17.5957794   3.6395521  60.9299164  17.7946796   3.0579171  61.6636543
  18.3374023   4.2437325  60.8953590  70.9224472  70.4251785  38.5416794
  71.8010788  70.0668793  38.6676064  70.4600296  70.2163467  39.3533363
  73.7509384  40.7824249  10.8350639  73.5782852  41.6275482  10.4201078
  73.3306198  40.1429520  10.2600536  83.5608368  36.6576996  34.0114136
  82.8710556  36.3159866  33.4424896  84.2759933  36.8784561  33.4147186
  60.3135147  57.4913330  65.6536865  61.2549591  57.5488510  65.4905853
  59.9108429  57.7236481  64.8169556  34.8018379  17.0617428  13.7871370
  34.9816818  17.9951935  13.8991995  35.5578461  16.7285080  13.3037786
  70.8779755  26.7756920   8.8593731  71.4864044  26.8588963   9.5936260
  71.3172150  27.2181149   8.1330366   5.5034509  24.5903149   4.7915378
   4.8709273  24.2798080   5.4394035   5.0464807  25.2920170   4.3278284
  47.8518219   2.6085336  13.1447086  48.0504532   2.1105573  12.3517408
  47.5006714   1.9589621  13.7537918  13.3672848  42.1299095  16.7715225
  13.2160635  41.2138405  17.0042877  12.7223148  42.3130608  16.0883675
   7.6705251  71.5444336  28.1007328   7.5001931  71.0571594  28.9068203
   8.3372431  71.0296860  27.6460342  70.7051544  38.6337585  39.3017502
  71.6121979  38.9022636  39.1554451  70.6709442  38.4010582  40.2296066
  53.2425766  61.8350182  30.9459629  53.1391983  61.2546501  30.1918278
  53.9930496  62.3858337  30.7231922  40.9251022  17.5454559  31.6140976
  41.4087143  16.7202740  31.6519184  41.5983238  18.2214127  31.6921291
  57.2166634  53.9376907  76.7163696  57.1151161  54.2876091  75.8312225
  57.9338341  53.3078690  76.6441116  55.3724556  48.1411629  70.5900879
  56.1019936  48.1633415  71.2093735  54.5899811  48.1498871  71.1413498
  17.6742573  21.4037647  86.7033844  18.0899010  21.7796535  87.4793854
  17.2463074  20.6090889  87.0221024  48.7783661   4.1864796  54.4476357
  49.1697884   3.8436573  55.2510605  49.1658936   3.6596684  53.7486877
  64.5079651   8.2720232  63.4278526  65.0187149   7.8770108  62.7212181
  64.0013962   8.9624720  63.0001831  26.2023182   9.0547915  45.6770897
  27.0062656   9.2719316  46.1490555  26.4298172   9.1636744  44.7537155
  47.7885246  65.6976395  -0.1842196  48.5849533  65.2971878   0.1644513
  47.7249336  66.5383224   0.2690440  42.7740974  39.5553970   5.1869645
  42.1135139  38.8939056   5.3926077  42.6075706  39.7839890   4.2725005
  43.0914040  22.0063915  83.6703491  42.2036819  22.3623753  83.6321182
  43.6326141  22.7426128  83.9554825  25.9997025  13.6528654  32.6333160
  26.5688133  14.4113665  32.7637787  25.6957169  13.7341814  31.7293186
  54.2546005  43.0494041   8.3536739  53.5986786  42.4210930   8.6557045
  53.7727966  43.8708534   8.2571259  50.8308105  20.3414898  37.2272301
  50.8719864  20.5166321  36.2870903  50.2986984  21.0543900  37.5805893
  48.3468475  53.1391449   8.4623766  48.5828133  53.8775139   7.9008079
  48.9997215  53.1522865   9.1622419  76.6894608  60.2719498  61.4721489
  75.7707214  60.0346718  61.5980072  76.6654205  61.1922913  61.2101822
  42.3341408  14.3886070  40.1698723  42.6973991  14.1204214  39.3258629
  42.9424629  14.0313711  40.8168335  85.4420624  65.6755295  69.3579712
  84.7660370  65.6087646  70.0323334  85.8236465  66.5439148  69.4865112
  21.5025177  23.6212597  21.8027344  20.9127941  24.2688942  22.1887760
  22.3800526  23.9511089  21.9960308  58.1210976  56.8654556  19.0551395
  58.7190781  57.5416946  19.3735008  58.6782761  56.2693176  18.5547333
  21.0157375  46.8217010  27.4734554  21.1509590  47.7692947  27.4777260
  21.4285984  46.5245018  26.6626225   0.3168262  42.5770836  71.8304520
   0.6331573  42.9764557  71.0201035  -0.2620912  43.2367363  72.2124786
  46.5099258  41.9934845   7.8846869  46.3848076  41.9625473   6.9362040
  45.7774696  42.5194016   8.2058649  73.9200897  42.2715950  29.6559486
  73.3566895  42.4072990  28.8941135  73.3903275  42.5584984  30.3997669
  76.0016632  40.2870560  12.9462757  75.1784210  40.1932831  12.4669952
  76.3585968  39.3997459  12.9851389  76.1438446  70.4274292  59.5531883
  76.0947571  69.8081665  60.2814293  75.8805237  71.2655258  59.9333076
  54.9761086  31.0562992  15.7919102  54.7858734  30.5180893  15.0235548
  54.1157150  31.3150349  16.1220779  85.7737198  54.5849342  30.0104218
  86.4998703  55.0066605  29.5509758  86.1173477  54.4024124  30.8849735
   9.9363918  55.2991409  55.9195747  10.5535603  54.9015312  55.3053741
  10.2618866  55.0464020  56.7835236  58.0545959  19.1948204  77.6187592
  57.4724846  19.8412380  77.2193527  57.6153030  18.9472809  78.4323730
  14.7881842  28.8160667  67.6660004  13.8375301  28.7170849  67.7178726
  15.1195374  27.9198685  67.6088333  81.4797287  22.5336342  38.4584465
  80.9856415  22.5578232  39.2779121  81.3083954  21.6623249  38.1010933
  37.8813591  30.2816238   2.9846950  37.3894806  30.7887764   2.3388729
  38.6779480  30.0166073   2.5248678  62.9652100  34.8382568  19.5959473
  62.4088249  35.1852760  18.8986340  63.7415962  34.5104256  19.1420994
  54.2193565  51.6869888  49.5809059  54.9445915  52.0417480  49.0666962
  53.4355698  51.9257164  49.0860100  77.9949265  20.9423199  34.7221909
  77.8305283  20.8497696  33.7837677  77.5753479  20.1771297  35.1154671
  10.4015446  26.5424347  51.3695946   9.4681644  26.3609486  51.4795685
  10.5759020  26.3505955  50.4481659  61.8058548  25.6874943  80.1836853
  61.2596626  26.4734936  80.1731262  61.4242935  25.1216488  79.5125198
  59.0966072  19.1472340   9.4489985  58.1997986  18.9783306   9.1601419
  59.0905724  18.9388981  10.3832321   8.0888920  67.2271729  27.7494736
   8.7917433  66.6123352  27.9597359   7.6707644  67.4098282  28.5909233
  54.4040833  13.9984236  21.5633965  54.8608665  14.8323240  21.6738243
  55.0940590  13.3376579  21.6230412  37.2217979   3.0915532  16.3614254
  36.7360001   2.3705003  15.9610319  37.6096611   3.5589905  15.6216307
  26.4744396   7.0613856   8.5770741  26.9190674   7.4688396   9.3203907
  27.1832466   6.7206345   8.0314445  74.7406540   2.2149305  82.2458725
  74.5908203   3.0169075  82.7464905  74.5261078   1.5086060  82.8552246
  30.4530258  10.4953213  16.6887283  31.0273209  10.1022768  16.0315113
  29.7476826   9.8582602  16.8022041  70.8117981  23.3769665   7.5940208
  70.3611069  22.9826202   6.8472924  70.2959442  23.1083221   8.3542557
  77.3152161   8.7373848   7.1145759  77.5415268   8.3902264   7.9774184
  76.4471436   8.3777971   6.9318767  27.9642315  53.5441322  82.8768539
  28.3066940  54.1699104  83.5150909  27.6750431  52.7989502  83.4034500
  54.0923386   6.6673985  17.2885380  54.0342293   7.5926285  17.5268745
  53.1880875   6.3549476  17.3190937  80.1763535  15.3943691  44.9289665
  80.7682953  14.9849501  44.2979240  79.6739349  14.6658106  45.2936707
   8.6151981  28.2710629  40.3281021   8.3061590  27.5374126  39.7966118
   8.6683388  29.0048141  39.7157173  52.1193047  70.4907227  15.3938942
  52.6481552  70.9042358  14.7115765  52.4665871  69.6011963  15.4599762
  45.4199944   2.5694053  30.9092655  44.7282639   2.0894532  31.3646660
  45.1526718   2.5603070  29.9901981  38.5926247   4.6389575  60.2725220
  39.1490631   4.3064470  59.5682182  37.7025261   4.4158978  60.0001221
  73.7497406  40.4861565  86.9031906  73.1820450  40.0226593  86.2874603
  73.7921448  39.9124870  87.6682587  69.2329330   3.9222391  19.9696693
  69.9935837   3.8087251  20.5395451  68.5445709   3.4005487  20.3822556
   2.6696341  60.4992676  17.4509659   2.3518491  59.9987755  18.2024670
   2.5244455  59.9229088  16.7006550  79.6994705  -0.0326321  73.5524445
  79.6503448   0.9209819  73.4858170  78.9332733  -0.2762233  74.0718994
   2.2811003  43.0111694  76.2094879   2.4650722  43.7085762  75.5801926
   2.1316080  42.2348862  75.6697998  74.5417633  52.3753662  47.0922623
  74.2390671  51.6496086  46.5464745  74.2008209  52.1774902  47.9645233
  11.4342175  61.7408981  54.9315567  11.3293819  61.4650154  55.8421211
  11.4198503  62.6973000  54.9678955  64.8963928  11.8330564  75.1223373
  65.0692749  12.7180347  74.8011551  64.2198639  11.4935265  74.5364456
  63.5134163  54.3006439   1.5685118  64.1862946  54.9811707   1.5499005
  62.7406311  54.7376480   1.9263692  48.6704178  62.1567078  74.7175522
  48.1847763  62.9794044  74.6579514  47.9944763  61.4861717  74.8161316
  68.0019073  46.4209442  21.0324593  68.2609863  46.1015892  20.1680984
  68.4515533  47.2612000  21.1220188  45.4682846  35.5480804  74.7305069
  45.7731094  34.6410980  74.7042007  45.8735313  35.9142532  75.5165939
  15.4098701  15.9466476  56.8140221  16.3179646  16.0450058  56.5278053
  15.3506088  15.0400877  57.1154671  53.2141342   1.4392236  10.8966370
  54.1541519   1.4104698  10.7183847  53.1509819   1.7507900  11.7995043
  18.4083519  38.5817680   8.6030989  19.0925560  37.9227791   8.4854889
  18.6791134  39.0722771   9.3791904  15.9604492  69.5152893  86.4818420
  15.0869446  69.1610489  86.3152924  15.8147068  70.2309799  87.1005325
  26.4083138  17.0750637  41.9133568  27.0415764  17.7764568  41.7608376
  26.5637398  16.8046551  42.8183174  31.8101101   9.3748875  85.4737930
  31.9341202   9.9757738  86.2084961  32.3134003   9.7639780  84.7585678
  21.4132118  15.6304178  67.0423813  20.9407330  14.8090630  66.9068375
  21.2398853  16.1398830  66.2507782  47.9695473  10.4888887   8.1087332
  47.6267662  10.7987185   7.2704368  48.5538712   9.7671680   7.8765421
  57.3862190  47.4392090  34.7455292  57.1643829  48.1167374  34.1067963
  56.7180138  47.5232887  35.4257240  60.6269035  48.8588943  31.1373463
  61.4150047  48.5125771  30.7187901  59.9063263  48.3906708  30.7157230
  44.4328690  18.1729145  83.2136688  43.4931145  18.0958557  83.0488739
  44.8155327  18.3281364  82.3501282  33.1084747  50.5256920  16.7614651
  32.2259064  50.4644623  17.1269207  33.3828850  49.6161652  16.6444492
   3.4751730  52.8046074  84.5499725   4.0555286  52.0803223  84.7841339
   2.6381497  52.3856850  84.3496552  41.9600296  27.6534634  41.3046761
  41.6520462  27.7179871  42.2086754  41.6946716  28.4801407  40.9016609
  81.1044693  48.8550568   8.8677063  81.2882767  49.7810059   9.0260363
  81.1031570  48.4587364   9.7390041  37.6668282  54.0215874  -0.2094405
  37.7054596  53.1680603   0.2221081  37.8110886  54.6530495   0.4953121
  24.8832397   0.7087919   0.5531181  24.9883327   0.5734050  -0.3886133
  25.7535763   0.5465358   0.9170147  25.5099907  15.4124136  87.2057571
  24.7289886  15.8954067  86.9356003  26.1549530  16.0914135  87.4037857
   5.1800723  64.3951569  73.2428970   6.1263442  64.2714157  73.1688004
   5.0760379  65.0255356  73.9556656  37.4016457  60.6981812  85.9800491
  38.3529892  60.6861801  86.0850677  37.2000046  61.5989037  85.7265396
  29.9282436  61.5842285  37.1679001  29.6024818  62.0792122  36.4161682
  29.4839973  61.9730072  37.9213791  29.9204655  30.7845669  87.6678772
  30.2054157  31.5235348  87.1303253  30.7132359  30.4989033  88.1219101
  37.9661522  19.2268200   8.6487103  37.0665092  19.2613068   8.3236246
  38.3395538  20.0754128   8.4106083  13.8502445  45.4437485  33.0338058
  14.7324581  45.8023224  32.9370842  13.8490763  44.6592941  32.4852982
  34.1633453   6.8372164  10.2866278  34.8451920   6.3575368  10.7569723
  33.4039574   6.8062963  10.8685274  12.9778204  20.4960499  46.8026047
  12.2181873  20.9191933  47.2027779  12.6919079  19.5977077  46.6368713
  12.1881485  52.5630112   6.5064697  13.1203022  52.3522072   6.4527760
  12.1214838  53.4474564   6.1465430  81.8059692  63.9613152  41.6021233
  81.5790405  64.3557281  42.4442444  82.5862808  63.4380417  41.7852287
  62.4650841  15.6191673  41.6697998  61.9548264  16.4021645  41.4629478
  61.9309120  15.1470003  42.3085098  64.6152954  38.8107643   9.8479691
  64.4781952  39.6881561  10.2052097  63.7404175  38.4232674   9.8221550
  38.5827293  66.0965805  73.8961639  37.7755775  65.6769257  73.5984573
  38.8015900  65.6440659  74.7107544  70.8551254  43.9059715  37.7633858
  70.2400436  43.6769333  38.4601212  70.6033249  44.7920914  37.5033379
  61.7514763  58.9897842  43.2361870  61.6502838  59.0593147  44.1854820
  61.7186050  59.8943634  42.9249191   1.5583299  18.5494232   6.3060331
   1.2507023  17.8230896   5.7637801   1.4191060  19.3272915   5.7658768
  44.9293976  41.4953728  34.6330757  45.5621529  40.8423729  34.9321442
  45.1870918  42.3012161  35.0807838  74.6547852  18.9975967  75.3085327
  74.8398209  19.4763794  74.5005951  73.8744736  19.4220772  75.6651306
  77.0396347   6.8549523  37.7152252  77.3819046   6.0560293  37.3142204
  77.4877014   7.5647736  37.2552032  16.8151550  42.1601639  68.8522568
  16.8033619  41.7391167  67.9927139  16.2074852  41.6427994  69.3807526
  61.9763985  43.7007980  59.5875092  62.1357536  43.7917595  60.5269585
  62.4323120  42.8950996  59.3441505  86.9222488  25.9514999  49.1734314
  86.1510620  25.3945751  49.0669289  86.6382828  26.8141766  48.8711319
   3.8587294  12.4968643  37.3641014   3.2525940  12.8893929  37.9923973
   4.0762830  11.6445608  37.7415695  54.1013374  55.9573479  68.8788910
  54.5022469  55.0999146  69.0214157  53.2160912  55.8695526  69.2322540
   0.7873426  46.5549545  69.5266113   1.1189703  46.4653664  70.4200516
   0.9716063  45.7097435  69.1168594  82.0975800  47.5369873   0.3895144
  81.6464691  47.9857254  -0.3255856  81.3931351  47.1835785   0.9327312
  81.0650101  18.8918819  51.7599716  81.6360703  18.6529808  52.4900742
  80.1923294  18.9528275  52.1484833  50.3464508  15.1376877  33.7958679
  51.0323601  15.8045168  33.7626991  50.7573776  14.3930445  34.2350464
  46.2380371  70.0570526  66.3224030  45.7047043  70.0364075  67.1169815
  45.7354355  70.5948181  65.7104950  18.2485771   7.5584364  52.0470161
  18.5674114   8.3977118  51.7150612  17.9777489   7.7438021  52.9461937
  13.1451988  13.1332970  31.4140968  13.9469976  13.4486017  31.8311501
  12.6618118  13.9290829  31.1920719  63.9116058  63.3687439  40.4679909
  63.7554169  63.9681129  41.1977806  63.1794434  62.7531433  40.5027351
  59.2030029   9.3824120  40.6581345  59.3738098  10.1666622  41.1796799
  58.4252777   9.6009207  40.1446877  71.2440491  46.5569611   2.9307485
  71.4767151  46.2935486   3.8210924  70.9865189  47.4752579   3.0122344
   4.7032290  17.7431145   8.0631657   4.3901043  18.2556725   8.8084621
   5.2840567  17.0880203   8.4501057  45.6363373  26.5538826  18.5615406
  45.5934982  26.4273796  19.5093765  46.2156639  27.3071060  18.4463730
  30.8801250  51.2234001  72.2569504  30.5762825  50.3242226  72.3810196
  30.4057980  51.5321312  71.4849854   4.8283124  28.2984715  65.5951996
   4.7782292  28.3260231  66.5506973   4.0910735  28.8335114  65.3011932
  25.1451626   1.7685049  60.3355103  25.2867966   0.8439011  60.5386848
  24.3951206   1.7708874  59.7408142  32.9512482  67.0627670  77.4560776
  32.9672966  67.9176483  77.8863754  33.8687515  66.8787155  77.2547226
  23.8314877  52.8042336  16.2457638  23.5388775  52.0641594  16.7776470
  23.3554516  52.7093163  15.4207706  80.5521545  66.1269302  46.6907425
  80.6475601  65.2672119  47.1006393  80.9128189  66.7393265  47.3319283
   5.4819336  61.4870338   3.9048374   6.4096236  61.5805244   3.6883125
   5.4661360  61.3986664   4.8578186   1.9888358  22.0625591  37.3584938
   2.8076675  21.5933781  37.1984482   1.3049650  21.4502316  37.0871849
  33.3897820  56.7821922  53.9361534  32.9523392  56.7434196  54.7866669
  33.5593491  57.7138100  53.7962761  70.2028732  29.4284515  65.8021851
  70.4056854  29.4476452  66.7374573  70.8275604  30.0379353  65.4090881
   1.2970495  64.3890305  24.3186302   0.9128298  64.2774963  25.1882095
   1.3500776  63.5013123  23.9645538   9.8644238  13.7986803  22.1494465
   9.0967827  13.2374468  22.0400124  10.6101160  13.2092695  22.0364399
  10.6485977  65.1517334   3.7560151  11.2768440  64.5067673   4.0809207
  11.1857977  65.9013901   3.4997714  51.9036636   0.2302249  67.4253693
  51.3746300  -0.3383805  67.9848709  52.7614288   0.2527752  67.8495865
  82.5844269  67.3817291  86.4133682  83.1897125  68.1160507  86.3102570
  82.1540222  67.5422058  87.2531433  11.4294157  66.1104660  73.8947754
  11.8522415  66.6024628  74.5986176  12.0042400  65.3591080  73.7489395
  50.4173203  65.7098923  54.1467018  50.8129349  66.4471054  54.6117172
  51.1546288  65.1382065  53.9327316  13.0449257  37.0770569  84.5154648
  13.0699368  38.0285301  84.6170044  13.4015799  36.7390671  85.3369217
  80.3923874  49.8439674  85.2379761  80.7517090  49.7399445  84.3569031
  79.4574509  49.9950523  85.0990677  63.2584953   7.0727425  16.9053917
  62.9130440   6.3323836  17.4041538  63.7870331   7.5610323  17.5366211
   2.0225213   2.3562198  80.1690598   2.6544325   2.9028773  80.6360550
   2.2196658   1.4643675  80.4553528  53.1388588  31.6700802  28.1028938
  52.5501099  31.8420582  28.8377609  52.7983208  30.8685322  27.7056732
  45.0024567  27.9484539   5.3798223  45.0878754  26.9957981   5.3426332
  45.0189400  28.1540985   6.3145256   3.7977967  65.0019989  33.9888268
   3.7216156  64.1359253  33.5884056   4.0130701  64.8244476  34.9044495
  85.0095749  15.5243826  88.1773148  84.5152969  14.9153252  88.7259216
  85.2457199  16.2403812  88.7670746  55.8189735  24.4502239  10.4134197
  56.3583755  24.2200680  11.1699286  56.0514679  25.3585930  10.2209520
   9.2305651  56.7462959  45.1366386   9.1577911  56.2484741  44.3223267
   9.6002340  57.5881577  44.8704758  40.0218353  10.5494299  55.6465302
  40.3715630  11.3802652  55.3246078  40.2823944  10.5205135  56.5671310
  70.2349701  19.5296078  66.5659027  70.0858231  19.1253109  67.4206085
  71.1629333  19.7643242  66.5706177  51.7110443  16.8287468   0.8803712
  52.0024796  16.9662189   1.7817031  50.8192215  17.1759167   0.8614229
  64.4045029   1.7796195  36.4975662  63.8430901   2.4991257  36.7862816
  64.0566101   1.0092813  36.9467697  40.4568253   1.4670565   3.2477903
  40.4402008   0.7509908   2.6128058  41.3187790   1.8676126   3.1345701
  66.3973312  26.4212208  45.9415779  66.2910156  27.0705147  46.6368103
  65.5209885  26.3234177  45.5691528  46.9499550  70.4108810  88.7511444
  47.0415077  70.9320602  89.5487823  46.0710030  70.6145935  88.4315033
   6.7362957  47.8342247  62.6101151   6.7335014  48.7631683  62.8409576
   5.8481679  47.5359879  62.8063698  80.0360184  18.9811745  27.5199261
  80.5292435  19.4355469  26.8369122  79.7871170  18.1473522  27.1211510
  64.1932220  55.9872971  79.3719482  64.0680695  55.8461418  78.4335175
  64.5818024  55.1712875  79.6871643  56.2476120   0.3544010  26.7054214
  55.4029198   0.6592489  27.0367699  56.1911430  -0.6001911  26.7478142
  51.5274467  44.4332466  23.8989773  51.8980637  44.7528877  24.7215977
  51.6450043  45.1585388  23.2854939  41.8163528  31.2268066  80.7485809
  41.3954887  31.5385990  79.9474030  41.2898521  30.4743557  81.0184860
  83.0655899  16.3672009  44.8452454  82.2032700  16.5957680  44.4982681
  83.5214005  17.2051067  44.9251595  31.1864223  25.1667290  -0.0999999
  31.4378891  26.0817547  -0.2253868  31.2985439  25.0139332   0.8382510
  31.4358025  30.0140781  10.9495354  31.4316387  29.3257408  10.2843990
  32.3319016  30.3504715  10.9404802  13.7327023  59.2679062  51.4573135
  14.4494543  58.7049065  51.7497635  13.1340971  59.3006592  52.2035255
  71.5486145  63.2011604  42.6032562  70.7742691  62.6384735  42.6049500
  71.4065399  63.8019180  41.8717270  19.4926777  25.2935200  58.0511665
  19.2400513  26.0795479  57.5668411  18.8527451  24.6328640  57.7861176
  60.4437180  44.1694641  41.4492493  61.2502289  44.0419998  41.9487724
  60.3301468  45.1193199  41.4160423  58.1407585  16.2834930  16.2860947
  58.6267090  16.8827858  16.8526039  58.2272301  15.4298038  16.7103252
   5.9994435  37.0988197   3.4921207   5.8119922  37.8750839   4.0198627
   6.9320612  37.1675682   3.2878413  77.9582901  68.7477493  80.1424179
  77.9586868  68.6950073  79.1866684  77.2150040  69.3137512  80.3507462
  59.2333183   5.6396594  59.1949654  59.6070442   5.3636904  60.0318642
  59.8117332   5.2555614  58.5360718  18.4637489  15.6608725   3.4552734
  18.8952885  16.0696087   4.2055664  17.9975338  14.9116011   3.8260405
  33.5514336  46.7721329  79.0079956  33.7672958  45.8588982  78.8192215
  34.2796631  47.0842819  79.5450974  82.8820801  22.6274948  10.8647470
  83.2995224  23.0168381  11.6331091  82.5875626  21.7667847  11.1625204
  52.4530716  25.1384888  78.7110443  52.2888222  25.5973911  79.5348587
  53.4010544  25.1941051  78.5907745  77.1421585  31.1217575  64.5377731
  77.5084991  31.3320808  65.3967209  76.5574341  30.3817978  64.7014389
  72.4984894  54.5760117  51.4826050  72.8645401  55.3858452  51.1270599
  71.6003265  54.5539169  51.1523857  82.4732437  40.6229630  32.8954201
  81.6559448  40.3530083  33.3141975  82.7727814  39.8423843  32.4293709
  75.3645401  61.7150383  81.2902756  75.2319565  62.1452026  82.1350250
  74.4866104  61.4498901  81.0161133  57.3823700  28.8396053  76.5356522
  57.4694557  29.7392502  76.2205505  57.1642075  28.9307613  77.4631882
  12.4945126  44.3768539  77.8517227  12.6064444  45.0523529  77.1828384
  12.0055027  44.8107872  78.5508652   2.0491722  48.7580948  22.2369404
   2.9827666  48.8440628  22.4299240   2.0195231  48.4340057  21.3367634
  39.0195198  41.1187172   2.6598518  38.9573822  40.2834244   3.1231604
  39.6490669  40.9566498   1.9572600  22.2571507  59.9990005  10.2357759
  22.6635780  60.4418602  10.9807072  21.3184109  60.1440125  10.3539753
  51.4775467   1.9556165   7.8390250  52.1890488   2.5957336   7.8232994
  50.6813812   2.4803617   7.7554021  47.5678444  19.7865734  12.1249533
  47.9939880  20.3999519  12.7236185  48.2838821  19.2554512  11.7764854
   5.2760253  26.4998283  40.7771988   5.0481362  27.3256302  41.2042198
   4.7806101  25.8368340  41.2580643   3.1004939  37.3735809  78.3411179
   4.0106177  37.4411354  78.6298141   2.9179552  38.2161865  77.9252777
  67.9416656  47.7704430   3.9676614  68.6475296  47.5875244   4.5877657
  67.6038055  48.6252937   4.2347002  82.9903946  20.4150848  77.4392929
  83.0123444  19.4860039  77.6685486  83.9113998  20.6690788  77.3804474
  32.7515717  15.1353979  54.3204422  32.3772354  14.2562532  54.2637901
  33.6622086  15.0260782  54.0465508  34.9430084  67.5591431  39.6080513
  34.4509468  68.2125168  39.1108513  34.7579803  67.7660141  40.5241280
  66.8384094  16.8646736  26.8735008  66.2285233  17.2903080  26.2709122
  67.5638046  16.5791149  26.3180847  80.4232025  36.9387321  60.1916962
  81.0356140  36.4322777  59.6581306  80.5813599  37.8484421  59.9394150
   6.8433790  27.7363930  56.6208458   6.1006722  28.1783333  57.0323143
   6.6200995  27.7086315  55.6904640  80.6398621  45.5477295  56.6434937
  81.4142380  45.3986664  56.1009521  80.3336029  46.4183846  56.3897247
  61.4438210  63.5261612  85.3504715  61.5242348  63.7290306  84.4184799
  60.5779495  63.8541946  85.5931549  54.6937027  38.4388046   7.6378121
  54.8893852  37.6558685   7.1230817  54.4737434  39.1048546   6.9864845
  60.7886734   2.7960713  66.2063141  60.9360962   2.1347859  66.8824844
  60.6231346   3.6035073  66.6930161  35.9838829  52.3070602  67.2216797
  36.4398994  53.1470833  67.2731171  35.0562057  52.5400124  67.1845551
  12.0924387  64.7820053  86.5389328  12.4743748  64.0262070  86.0927048
  11.1692486  64.5541077  86.6485367  63.2196350  37.7323189  38.9788246
  63.7227058  37.9351807  38.1901550  63.5099068  38.3798447  39.6212311
   2.7095773  39.6664276  72.0053406   3.3502846  39.8833656  71.3280869
   1.8687718  39.9336090  71.6340027   9.2573900  45.8768921  44.3879776
  10.0428877  45.9200439  44.9332886   9.4093418  45.1309547  43.8077049
  30.9138050  67.2282181  32.7848206  31.0745602  68.1259537  33.0754623
  29.9898605  67.2192154  32.5348663  85.8063736   3.3387175  44.0379868
  86.3681412   2.9440219  44.7049675  86.1401367   4.2305746  43.9409103
  57.3497887  46.7414856  50.2832603  57.3658218  46.7236366  49.3263626
  56.5893440  47.2808914  50.5000458  11.5043020  35.6459694  27.5073032
  11.9949932  36.4313049  27.2650204  11.6817369  35.5311966  28.4408836
  80.8741608  58.9069519  68.4148941  80.3056641  59.0855942  67.6658096
  80.8854980  59.7272949  68.9079819  16.0523586  31.7908211  29.1094551
  16.4052505  31.0055370  28.6910915  16.5522232  32.5115738  28.7262058
  23.1223259  12.1463280  63.0314217  22.8341904  12.2404318  63.9393616
  23.8040047  11.4751873  63.0648079  11.0004215  63.5863838  38.2483101
  11.7047596  64.1633072  38.5437775  10.7092896  63.9684563  37.4203644
  71.1548920  15.1592140  20.5710945  71.3198318  14.8518257  19.6797256
  71.8586578  15.7848988  20.7427521  52.9763298  28.5357342  19.7810440
  52.1455879  28.8359241  19.4122810  53.6429710  28.9067249  19.2029552
  78.5239563  70.8149414  61.0844193  78.6178436  71.0280838  60.1559868
  79.3525696  71.0883942  61.4779282  66.8096161  59.8210831  64.0979385
  67.6626129  59.7431107  63.6706848  66.8208618  59.1491928  64.7796021
  76.2411118  71.5174789  20.6708927  75.4372711  71.5048828  20.1513634
  75.9392853  71.5644302  21.5780449  83.8042984   8.6971045  29.7173824
  84.5166550   8.0584269  29.7468586  84.0291519   9.2731466  28.9867344
   4.6511488  38.7286453  12.4511414   5.4102511  38.6642113  11.8716221
   3.9698904  38.2204170  12.0108871  24.9484348  13.7236624  61.5161552
  24.3221397  13.1878986  62.0029221  25.0247536  14.5282869  62.0289764
  63.2763100  52.3886681  86.0586090  63.1487808  51.6714058  85.4377136
  62.4217567  52.8170090  86.1085510   7.3145900  44.7383575  82.4595718
   7.8249321  44.8534317  81.6579819   7.7166467  43.9858513  82.8935242
  58.8817024  12.4139633  25.1987076  59.5595856  13.0181065  24.8958530
  59.3317146  11.5737600  25.2869072  79.0994644  53.3999596  73.4929047
  79.5704727  53.1555023  74.2895355  79.5937958  52.9855881  72.7856827
  67.5734253  33.4909439  20.1895123  68.4951324  33.4953728  19.9313068
  67.1513596  32.9055252  19.5607224  68.2445831  49.6008110  86.8940506
  67.4085541  49.7020798  87.3490601  68.6671829  50.4557114  86.9764023
  29.0786400  44.6725006   4.1461372  29.3218250  43.8062744   3.8194213
  28.2309208  44.5392265   4.5702181  38.5987320   8.6076784  68.4617996
  38.3762360   8.8690100  67.5682526  37.9501228   9.0501661  69.0092926
  82.8326416  40.4901772  37.8221664  82.6781540  41.2674561  38.3590088
  82.8187332  40.8144150  36.9216614  20.5346050  71.0455093  40.1784134
  19.8592091  71.3841934  39.5907364  21.2996845  71.5941010  40.0054054
   2.3062377  45.8595085  83.9205704   2.1720459  44.9209480  83.7889404
   1.5481259  46.1402893  84.4330750  64.4033356  29.8671417   1.9879458
  64.0436478  30.7517071   2.0542958  63.6422043  29.2923889   2.0690203
  50.5279312  60.2512360  13.9997711  51.1564674  59.5295830  14.0194998
  50.0735359  60.1961441  14.8404388  63.3041267  26.3030205  67.0361404
  62.8309441  26.4010201  66.2098694  64.1760406  26.0034332  66.7787476
   7.0027647  10.8628712  75.1287308   6.8066564  10.9402189  74.1950378
   6.3496795  11.4161015  75.5572739  67.0014038  11.6385098  64.1601715
  66.7165680  11.5993986  63.2471695  66.3053665  12.1195230  64.6078186
  76.1493683  39.7361755  33.5816116  77.0742950  39.9784393  33.6269951
  75.8972931  39.9216766  32.6770248  29.4225254  30.7124481   9.1066608
  30.0180569  30.6648483   9.8545294  28.7305183  30.0835171   9.3111296
  83.8101501  18.5587196  71.0956573  84.7611160  18.6643810  71.1227875
  83.6754303  17.7094021  70.6752472  59.5770187  59.5976906  59.5868645
  59.1642189  58.7569504  59.7843170  60.5117989  59.4434662  59.7233696
  15.8259563  62.9473991  44.3454781  15.1011524  62.5604668  43.8543816
  16.1849651  63.6126595  43.7583046  79.4377747  27.1607571  27.8710690
  80.0567169  26.9151821  27.1834335  79.0434494  26.3327675  28.1452389
   8.5517197  36.4662285   5.9401646   8.0871038  35.6717606   5.6771293
   9.4027367  36.1549911   6.2486033  44.0592003  61.9118538  66.0475311
  43.5584641  61.0966225  66.0774078  44.8178978  61.7070351  65.5010376
  77.6378632  15.5431252  59.7797394  77.6139221  14.9109135  59.0614281
  77.0167236  15.1996145  60.4219398  10.4767618  19.3986015  55.0685730
   9.9311476  20.1783009  55.1715622   9.9514551  18.6882992  55.4370232
   7.3663111  41.4767456  17.5153790   7.1353354  40.5490036  17.4686699
   7.9341826  41.5438309  18.2830067  49.1690292  63.2627411  35.3639336
  49.4892807  64.1495514  35.5289764  49.1020966  63.2057800  34.4107780
  20.1226730  60.0101242  38.4065208  19.7114658  60.3579712  37.6152267
  20.6138935  59.2458992  38.1050301  12.4300594  15.6070318  30.6428108
  12.0084019  15.5198526  29.7879219  11.8536873  16.1910458  31.1357155
  58.7535133   7.3834605  42.6225967  58.9213524   8.1061096  42.0177498
  57.8034706   7.2686596  42.6008453  72.0025864  69.4357910  83.9127045
  72.4999008  69.4687958  83.0955048  72.3207855  70.1844788  84.4171295
  69.6375275   3.1164017  81.8657532  68.9925156   2.6027570  82.3519287
  69.3978958   4.0269265  82.0382462   9.2663450  48.9325218  65.7854843
   9.5015612  49.6652641  65.2162781  10.1047678  48.5970802  66.1029053
  59.4909973  35.9479256  19.4882584  58.9588928  35.9435158  20.2839184
  59.8526421  36.8332100  19.4468803  65.9804764  35.9941101  20.1193523
  66.5704193  36.6320801  19.7178631  66.3075714  35.1451149  19.8219547
  75.0585938  15.1292715  42.8162231  74.6160278  15.6337519  42.1336784
  74.3830338  14.9758492  43.4767609  30.9532795   7.0343375  82.6113586
  31.8173618   7.4444175  82.6491470  30.5794430   7.1829605  83.4799118
   1.3919642  30.7368469  10.1355677   1.8877640  30.8497543   9.3246012
   2.0550644  30.5341339  10.7954445  85.3623505  41.6603241  50.0602455
  85.6712723  42.5603828  49.9568253  85.4082870  41.4981117  51.0024834
  47.4453964  39.0213890  15.7652969  47.9523506  39.7443199  16.1348934
  48.0801735  38.3126335  15.6606398  75.7838821  32.6815681  88.7079086
  75.1211243  33.1044006  89.2539825  76.5534515  32.6154747  89.2732620
  13.8475418  20.0927410  67.8051834  12.9275675  20.0218315  68.0598450
  14.3332129  19.9256287  68.6129150  11.7112408  69.8161011  10.3770399
  11.7909985  69.9029160   9.4271278  12.2981224  70.4854584  10.7288380
  55.6480865  63.3551178  48.2731781  55.7504883  62.5462189  48.7746048
  55.8912163  64.0491486  48.8859100  40.5082207  47.3995667  29.4866886
  40.9870300  48.1342659  29.8703442  41.1887856  46.7748871  29.2360191
  24.3481426   6.8887811  57.4674835  25.2757282   6.8967404  57.7036057
  24.3428516   6.9769244  56.5143623  17.9752636  22.4990349  59.6737633
  17.4242458  23.1594582  60.0938263  17.4135666  22.1094074  59.0037498
  42.4783821  43.0227470  13.5612011  41.6650085  43.1636276  14.0457697
  42.4388809  42.1061401  13.2882586  60.6368637  49.4949989  73.2500381
  60.0550690  49.8844185  72.5972748  60.0598602  48.9633636  73.7983627
  33.9185219   4.4353514  77.7186890  34.0091820   4.4190912  76.7659302
  34.6295319   3.8788357  78.0364761  19.9992561  51.9730568  87.0181656
  20.6876202  51.7596169  86.3882217  20.3974667  52.6231766  87.5969620
  27.8145580  51.7021904   8.1611443  28.0770969  52.4128227   7.5760736
  26.9611626  51.9733467   8.4994030   7.0989552   7.7167358  82.9329071
   7.3840733   7.1143894  83.6200180   7.9119072   8.0699806  82.5715790
   3.1207302  38.0387726  19.0290394   3.4381332  37.9753113  18.1282272
   3.5239596  37.2957382  19.4779682  11.2149181  67.3056564  67.8042908
  11.4073277  68.0029373  68.4311981  12.0548153  66.8669968  67.6687088
  76.8762970  32.0825539  27.4990158  76.0397110  32.0596695  27.9635963
  76.6448975  31.9369545  26.5816898  14.5604048  38.0860901  46.4824066
  14.2997236  37.8156509  45.6019859  14.2085838  38.9714584  46.5750160
  58.8625679  38.0765305  10.1415854  58.8296852  37.1581535   9.8737555
  57.9636192  38.3885841  10.0379333   6.1245232  16.2524357   9.6585560
   5.7757573  15.4323874  10.0080051   6.9861503  16.3393230  10.0663328
   3.9134262  17.5095596  66.9698868   4.3880653  18.2001381  67.4325409
   4.5435004  16.7925529  66.8981934   2.0256031  15.9617481  54.1837387
   1.3271698  15.6993246  54.7833710   2.4447322  16.7062149  54.6154022
  26.2562752  63.8502922  39.1010780  26.0153580  64.6628113  38.6560974
  25.4339695  63.3664207  39.1779671  67.5849991  32.8369255  54.2296562
  68.3870697  32.3152275  54.2570419  67.0317993  32.4618378  54.9148636
  68.0349274  29.1115913  41.4725723  68.8892670  29.2460098  41.0623703
  68.2372208  28.9045258  42.3849487   2.1541445  62.7452126  16.2550926
   2.9086664  63.3142776  16.1031265   2.4957614  62.0341759  16.7972755
  71.1562347   3.3417866  72.3103714  71.6834793   3.5723696  71.5454712
  71.0518799   4.1655836  72.7865067  63.2685165  49.3151436  14.7875118
  63.6968384  48.7960892  14.1068096  63.9785385  49.8157768  15.1893387
  15.3126497   3.9233589  84.1935577  15.1780806   4.8542099  84.0156860
  14.5283852   3.6551802  84.6723480  22.6975632  29.4610634  86.8189316
  23.4524155  29.1000462  87.2837982  21.9618568  29.3272476  87.4164810
  32.6883469  15.2366714  49.6488190  32.7260361  15.5217962  50.5617905
  33.5960732  15.2767515  49.3477135  76.1169205  62.8426857  87.8845215
  75.6273956  63.5904579  88.2272110  76.3432007  63.0945282  86.9892044
  50.9170914  67.3532486  27.2847939  51.3008919  67.3795166  28.1612873
  49.9779739  67.2486420  27.4375820   7.5698166  67.2656021  45.4386063
   7.7574496  67.1363678  44.5089149   8.2441120  66.7593536  45.8916664
  12.1564550  31.1457729  88.9921951  11.7102442  31.6441689  88.3075562
  13.0661898  31.4402332  88.9485016   7.2678108  58.2168961  41.9977112
   6.3948331  58.5849838  41.8611298   7.1440816  57.5519257  42.6750107
  10.9088163  45.3879089   8.0649672  10.5789080  45.6977310   7.2215190
  11.6103163  44.7774315   7.8381495  52.0396233  64.2441559  27.1831341
  52.1875572  63.8815842  26.3096981  51.7418556  65.1397324  27.0234184
  58.2962914  38.0271759  18.0345879  59.1974258  38.2711983  17.8233070
  58.2281342  37.1099167  17.7695980   0.9575859  37.1826973  15.0909224
   1.5669839  37.1972923  14.3529167   1.3474331  36.5667534  15.7112999
  74.7740479  35.2728081  26.7791977  75.6424255  35.5646172  27.0566826
  74.2443161  35.3060913  27.5757580  13.6111507  43.6715965  24.9703407
  14.2682114  43.6975861  25.6659184  13.7897310  44.4501915  24.4429607
  16.3044910  53.6373825  74.8638077  16.5301914  54.5059471  75.1968079
  17.0998497  53.3347740  74.4255524  13.3705397  69.6836243  30.6967258
  13.5241165  68.7972794  30.3695545  13.8166122  70.2515030  30.0684185
  76.4967117   5.3220263  45.3796844  76.3985367   5.5569620  46.3023987
  76.0694046   4.4689379  45.3029671  55.1032677  50.4841461  69.2386017
  54.2740211  50.2351265  68.8304672  55.2126122  49.8619881  69.9577637
  45.6784477  70.1824036  23.9066029  46.0081253  70.1159897  24.8027802
  44.9279976  70.7731323  23.9706306   5.3853745  70.9917831  23.7289181
   5.4839611  70.4144669  22.9718075   5.8574729  70.5466461  24.4326305
  39.5165291  67.7452316   3.5487659  40.3964195  67.4473953   3.7796712
  39.0178604  66.9390106   3.4162102  66.0188370  55.9855537  13.4720402
  65.9555206  55.0398674  13.3382444  65.1433258  56.3152504  13.2695169
  51.4315109  46.0126801  81.2787170  51.1097374  45.1143646  81.2030487
  50.8451729  46.5248260  80.7218094  27.6879482  19.6593437  11.7007236
  28.1059723  20.1884384  12.3800955  28.0784035  19.9675941  10.8829470
  54.5390472   8.9539299  14.4095411  53.6794128   8.8270330  14.8109865
  54.8168716   8.0739508  14.1552143  20.2455387  48.2659454  67.2390137
  19.8025188  47.8196869  66.5173340  20.8414345  48.8805885  66.8108139
   6.3472505  49.2026863  37.2823105   7.2511206  48.8892021  37.3135910
   6.0540209  49.1794395  38.1931915   2.6245627  21.1447659  34.4995995
   2.8438892  22.0739460  34.4306412   1.8000604  21.1287174  34.9855728
  60.5755577  67.7138443  27.2438335  61.2341614  68.3357010  26.9343758
  60.0124626  67.5636597  26.4844894  57.1123924  42.0543480  21.6539955
  57.5551529  42.7461929  22.1454697  56.3269043  42.4745102  21.3036995
  18.9554596  50.4975624  25.8483963  18.2136974  50.5903893  26.4462280
  18.9678497  51.3165703  25.3531113  26.9067802  57.3341064  70.0174332
  26.0924816  57.4988556  69.5420227  26.7337646  57.6482773  70.9048920
  67.4017334  26.6280270  -0.0520080  67.5084229  25.7685223   0.3555462
  66.4581909  26.7126236  -0.1891274  54.6760063   0.4906834  20.3959980
  55.3014793   1.1987261  20.2420845  54.2755165   0.3347515  19.5407047
  35.8563385  52.1998444  31.2057762  35.9169388  53.1416168  31.3658466
  36.7576485  51.8859711  31.2789574  62.2996559  43.4920464  73.6042099
  62.9870796  44.1579094  73.6216965  62.2672768  43.2051353  72.6915970
  47.2914352  67.8715057  78.8405914  47.3938560  67.7698669  77.8943253
  46.9454079  68.7572021  78.9502792  25.6311207  61.9911270  74.5620117
  24.7352848  61.7005882  74.7331924  25.6424065  62.9077454  74.8375320
  27.1182995  24.4481735  16.2529144  27.5021782  24.1130924  17.0632153
  26.2074680  24.6362762  16.4792709  70.0510254  57.4171677  29.3076477
  70.8087540  57.8590393  29.6908302  70.1274261  56.5102386  29.6040878
  75.3135834  56.9506989  39.9723892  76.1578445  56.9884377  40.4218597
  75.5387497  56.9057579  39.0431366  37.5962524   9.6398296  66.1183853
  36.7387695  10.0458384  66.2453079  37.4838219   9.0772305  65.3521805
  53.4100037  67.3853455  86.9492493  54.0758972  66.8773499  86.4858246
  52.5986710  66.8954544  86.8151627  45.4733124   4.1139045  67.0252533
  45.1143150   4.0542130  66.1399384  46.2933578   3.6218376  66.9848633
  24.1757088  51.5199051  19.7917824  24.3101482  50.9508820  20.5496521
  24.2003422  52.4068642  20.1508541  52.0710487  22.1894760  75.0797958
  52.4773178  22.3484077  75.9318008  52.7544670  22.4039249  74.4448242
  50.7448082  45.7844162  19.2694302  50.2093468  45.5027885  18.5276756
  51.0912552  44.9713821  19.6371021  82.6210251  27.8006878  54.5157623
  82.7643051  27.6480427  53.5817375  83.2720566  27.2503014  54.9510345
  50.5712318  32.3767891  21.6442795  50.6407585  32.8926468  20.8409805
  50.6030731  33.0244675  22.3483601  67.1972656  63.9123497  27.5281525
  67.8383865  63.7600975  26.8338814  66.7418213  64.7112732  27.2625866
  74.1027679   7.5887141  13.8888178  75.0124512   7.5247788  14.1797180
  74.0055313   8.4975357  13.6045284  21.7975769   6.4029417  33.4584541
  21.3011303   6.4964352  34.2714920  22.6861324   6.6752253  33.6877213
  20.2850323  60.9278908  61.3726463  21.0597878  60.3734360  61.2800903
  19.9229870  60.9831085  60.4882774   0.6333079  23.0015392  21.8989525
   0.0725226  22.5495949  22.5294266   1.2905332  22.3504715  21.6531925
  16.4446259  21.7684498  15.1019154  17.0250130  21.8438015  15.8593483
  17.0213032  21.5096378  14.3831015  70.7869492  55.3193359  48.0823326
  70.3314896  55.6793556  48.8433647  70.2978363  54.5261421  47.8635941
  72.6181488  51.6818428  31.8204174  72.6333008  52.0642815  30.9430676
  73.5345993  51.4806442  32.0098457  10.4011316   1.8909416   5.8277225
   9.7305393   1.9235486   5.1454659  10.5840206   2.8089426   6.0278673
  61.6472855  55.0899429  67.1336441  60.8630257  54.9401093  66.6057053
  61.8665619  56.0091476  66.9812851  52.5953102  26.5343838  26.7262344
  52.0427055  25.8246765  26.3988533  52.7949142  26.2856789  27.6287518
   6.0476637  10.7057724  80.9435272   6.6527810  10.3863716  80.2741623
   5.2248011  10.8462324  80.4751282  80.1859589   8.5877275  86.8030930
  80.2270584   8.5625591  87.7590790  79.5548477   9.2806349  86.6086578
  52.2869263   5.4999170  43.8361588  52.0027122   4.8116965  43.2346535
  51.5893898   6.1543112  43.7981567  23.0772705  17.3383942  54.7811813
  22.4703274  17.5294037  54.0660820  23.5759296  18.1475239  54.8946686
  47.7719231  13.8808012  28.8197651  47.5041504  13.8593702  27.9010334
  46.9934196  13.6033964  29.3026810  74.3981094  29.1139870  26.5520363
  75.0539398  28.8126411  27.1807690  74.9009552  29.5895119  25.8907871
  76.1039963  42.7906227  44.3276901  75.7593079  42.7825928  45.2206345
  75.8509750  41.9414291  43.9656372  72.6753387  30.5131187  75.5891647
  73.4515762  30.2196999  76.0662384  72.0904770  30.8504105  76.2676926
  80.1058197  13.0996838  76.2322998  79.9358063  12.4244423  76.8890915
  80.3544540  13.8714390  76.7410278  77.9372635  33.0267220  33.7430305
  77.6712875  32.1318436  33.9544067  78.0023041  33.4641075  34.5919685
  17.3478947   4.5389609  32.4915695  18.2807255   4.5779080  32.2805138
  17.3150387   4.6093946  33.4456062  46.0500298  25.1942272   5.1660480
  45.4116936  24.5066662   5.3558354  46.7289848  24.7557621   4.6532145
  49.3503075  15.3998699  36.7716866  50.1063805  15.7617588  36.3094940
  49.7290955  14.8322954  37.4429588  29.3073559  58.7899933  70.3194656
  28.4895706  58.4445038  69.9615631  29.9089336  58.0456123  70.3040237
  47.7801552  12.9286022  18.9507771  48.1345825  13.5224504  18.2889938
  46.8474274  12.8689632  18.7441540  57.3735580  32.2520523  61.1533623
  58.1125641  32.7831917  60.8567314  56.7364349  32.3092117  60.4412956
  81.2598953  40.7379074   4.1354828  80.8395615  41.4547920   4.6104851
  82.1130753  41.0881348   3.8792500  27.4216595  62.7639351   4.2334781
  27.9581070  61.9743614   4.1625714  27.9019146  63.3259850   4.8414955
  32.9014206  59.7381477  81.2934799  32.0791550  60.0701485  80.9330750
  33.5432625  59.8824730  80.5981827  33.4498749  20.5006504  20.5972595
  33.0656471  20.4057732  21.4688110  33.4015274  21.4391060  20.4150581
   7.7696357   5.4924674   4.1779375   8.2769470   6.0314360   4.7848802
   7.0842500   6.0769286   3.8540802  16.7347107   4.9740629  18.4306965
  16.3767452   4.5577435  19.2147694  17.5351524   4.4837189  18.2433796
  15.3062353  18.3388824  37.2685089  14.9580002  17.5246830  36.9051323
  14.6471138  18.6189137  37.9036255   4.8347282   7.7255106  16.0109768
   5.5488358   7.0897813  16.0571384   4.4200149   7.6828589  16.8726177
  49.9053650  17.5443687  69.6134796  50.8204384  17.3838196  69.8439178
  49.9351768  17.8330803  68.7013474  69.4588470  56.6339378   8.3340368
  69.3062057  56.4628258   9.2633667  69.8016510  57.5272713   8.3081303
   2.7165759  19.8466740  52.9329224   2.0343540  19.4606152  53.4822540
   3.5287657  19.4457245  53.2424698  76.1222076  35.6336098  83.0327759
  76.5948639  36.3603783  83.4385223  75.2003250  35.8840866  83.0929871
  71.3524475  22.7627316  47.1154709  70.5964508  23.1976070  47.5099220
  71.3123245  23.0049763  46.1903000   4.2732992  46.7629242  63.3498383
   3.5550451  46.3661041  63.8426628   3.8658600  47.0743904  62.5416222
  74.0994568  28.9125118  85.9242020  74.7272949  28.2896690  86.2904205
  73.7725372  28.4854774  85.1323700  64.9281616  68.0701981  50.8841019
  64.0468521  67.9174500  51.2249718  64.9739761  69.0174789  50.7544823
  62.5181541  51.1357269  40.6441116  62.0840530  50.3368950  40.3446960
  62.8323364  50.9226418  41.5228119  34.5837860  47.4538422  42.1821671
  34.6010094  47.6029663  43.1275215  33.8094826  47.9279366  41.8789749
  75.1368866  12.0378675  22.8747082  74.5945892  11.3567133  22.4770031
  75.9962082  11.9279890  22.4676075  79.6367950  57.1764565  27.1774597
  80.0653687  56.3205833  27.1837540  79.1060867  57.1844368  27.9740257
  66.1771240  57.8531837  18.2309418  66.2087555  58.5010643  18.9348507
  67.0784988  57.5408249  18.1522369  54.2397575   0.2204541  68.6224899
  54.8348083   0.9702070  68.6185379  54.0610695   0.0613798  69.5493164
  62.5797997  41.1141167  23.6990852  62.9762115  41.2367477  24.5616703
  63.3190727  40.9291801  23.1198540  70.3115463  52.6500473  47.9779587
  69.6400375  51.9680214  47.9659805  71.0610123  52.2406883  48.4103546
  75.1917801  67.2284241  87.8616257  74.8522949  67.0541000  86.9837952
  75.0819550  66.4007034  88.3296509   5.5406508  20.2843189  10.9522219
   4.6777811  19.8767262  10.8776779   5.4901514  20.8073788  11.7522774
   2.3080659  45.9633675  34.3795853   2.7121105  45.4088554  35.0470428
   1.3846089  45.7115326  34.3858986   5.9839058  59.1057701  68.3614807
   5.5191627  58.5105820  67.7732620   5.7599258  59.9803123  68.0432968
  20.7877598  68.2537537  13.3194170  20.2781849  67.6523132  13.8623991
  20.8429489  69.0563889  13.8380356  42.3250504   3.5820780  45.7500267
  42.2041969   3.1365795  46.5885735  41.4446220   3.6358187  45.3782883
  30.5254574  59.5972137  10.9992743  31.4400291  59.4343452  10.7684793
  30.2288437  60.2450371  10.3600712  81.3000793  10.5510254  32.7011414
  81.3075027  10.2804861  31.7829990  82.0877991  11.0858488  32.7996216
  65.0657654  20.7104092  69.7783127  64.3435364  21.0681400  70.2946930
  65.5444870  21.4800949  69.4706802  67.2007141  13.6204576  27.1900158
  67.6785736  14.1146364  26.5239315  67.0313644  14.2567396  27.8847790
  17.6969509  26.4378872  87.2021027  17.5006943  27.3743172  87.1735687
  17.3127670  26.0880508  86.3982086  59.1633835  56.0406990  76.9564896
  59.9385338  56.1430817  76.4043198  59.4014587  55.3531380  77.5784302
  60.5088234  48.7988281   9.8880911  60.0564919  48.0427628  10.2622509
  59.8867455  49.1623802   9.2579441  42.0076790  60.0796814  40.7601471
  42.9624481  60.0557556  40.8239708  41.7589378  60.8953629  41.1949196
  33.6734619  53.4646645   6.5747871  34.0742645  52.7889938   7.1216507
  33.4940758  53.0249214   5.7437162   4.2205210   6.0771885  85.3349075
   4.4746642   6.7094889  86.0070953   3.5475004   6.5276046  84.8246155
  56.7654533  70.8695068   1.7660389  57.5251122  71.2193756   2.2315927
  57.0160637  69.9744644   1.5372925   2.8304949  66.7859802  78.7703934
   2.3812451  67.0696259  79.5666046   2.8843644  67.5753403  78.2316437
  29.5151215  63.8825111  75.8411789  29.6791420  63.6148911  76.7454529
  28.5707760  63.7754555  75.7272568  82.1454544  39.4397659  45.7316551
  81.7493057  39.8021851  46.5240860  83.0660553  39.3124275  45.9608002
  67.0755005   1.3486427  63.8481331  66.5888062   2.0737729  63.4562759
  67.6195145   1.0126742  63.1358147  69.3863297   8.5477819  59.2009964
  69.0819397   8.4301405  58.3011436  70.1327286   9.1422815  59.1255684
  70.2404785  46.2510338  57.2433548  69.3849030  45.8221664  57.2260017
  70.8145523  45.6600647  56.7560921  11.0293570  42.5165634  44.8791199
  11.9432554  42.7671127  45.0142021  10.7463551  42.1762123  45.7278252
  79.2988434  57.4432945  62.0180511  78.7709732  56.7378540  61.6439743
  79.7578278  57.8223267  61.2684479  26.0759106  33.6928444  28.7890415
  26.2969933  33.3583336  29.6582108  26.6408291  33.2016449  28.1925335
  70.6635513   6.9283304  76.9143066  71.5640030   7.0133114  77.2276688
  70.2644196   7.7785106  77.0990295  71.3889160  50.5263634  11.1873827
  71.9269180  49.8390121  11.5802383  70.7220078  50.7152100  11.8475323
  33.1921082  66.6893997  53.5288315  32.4522285  66.3917999  52.9994545
  33.4438057  67.5267792  53.1393700  37.7000885  67.9397202  41.6703110
  38.3705139  68.5441666  41.3518867  37.5136604  67.3729095  40.9218407
  85.3890076  71.2406006  15.3007545  86.0641861  70.7034454  15.7152777
  85.0315018  71.7688217  16.0144787  50.7011490  45.6285667  88.6341019
  50.1298027  46.0283737  89.2898102  50.7117348  46.2558746  87.9111938
  59.2334557  55.6144981  43.7285156  59.7501221  55.8069458  42.9460526
  59.8730049  55.6013489  44.4405823   4.7224326   0.7650284  50.9131966
   4.0100770   0.5165517  50.3240967   4.2816734   1.1014411  51.6934471
  25.7681484  49.9735260  81.2614517  25.6652031  50.8457565  80.8808594
  24.9157982  49.7804527  81.6519012  30.6655998  65.9702225   8.0799055
  31.1820107  66.3026581   8.8141012  29.7561226  66.0838852   8.3558817
  54.3671036  15.8663054  62.7055702  55.1727562  16.2484875  63.0535545
  53.7002640  16.0770817  63.3591194  20.4000721   7.5929041  78.8543854
  19.5276508   7.9479513  79.0248337  20.9970703   8.2134199  79.2724533
   9.8000736   3.6927934  47.4617882   9.7265806   4.0912328  48.3290100
  10.7402859   3.5647559  47.3359299  30.7977886  60.8172112  85.7404480
  31.5976810  61.0646782  86.2043076  30.7600994  61.4138489  84.9928894
  17.5028324  33.4053307  81.0966187  18.2886906  33.0095787  80.7197418
  17.8352814  34.0490685  81.7221680  13.8040667  41.7201920  74.3752823
  13.0955658  42.3504219  74.2446442  14.3149347  42.0809364  75.0999222
  45.7519226  66.5154190  51.8091125  46.6063728  66.1218796  51.9859581
  45.3646774  66.6461563  52.6746635  23.9753380  60.2714996  69.5781860
  23.0312805  60.1152840  69.6022949  24.1100864  61.0153732  70.1653214
  64.9136200  52.9064102  62.4445610  64.0511322  52.9310646  62.0301399
  64.7456741  52.5777435  63.3277359  11.8287964  25.0227432   9.7945642
  11.3597288  24.8814526   8.9722223  11.2593088  25.6042881  10.2982740
  79.0513840  17.9949493  44.6493607  79.1405258  18.2612476  45.5644379
  79.5273743  17.1663628  44.5935822  29.1042538  44.8896484  13.3207140
  29.0362682  45.0002289  14.2690706  30.0453453  44.8941650  13.1459064
  42.4462090  17.1085892  68.5036469  42.6945763  16.2762127  68.1015244
  41.6279869  16.9182262  68.9624481  42.4685516   1.5578221  85.9148788
  42.5550308   0.6151672  85.7729111  43.2115746   1.7850026  86.4739304
  12.2794676  30.7622738  67.1062851  12.7546463  30.9600410  67.9133301
  11.7476511  29.9964790  67.3229980  70.9602356   5.1488500  66.5358124
  70.4093170   5.9241900  66.6433868  70.8126068   4.8738089  65.6309433
  60.0004730  14.7695827  39.6073608  59.7621727  15.4596891  40.2263908
  59.3519135  14.8415880  38.9070625  13.5281544  59.2960358  69.1944046
  13.4428291  59.3332863  70.1470642  14.2927456  58.7401581  69.0439682
  82.8226624  29.9549541  30.6019936  83.6242752  30.2236443  30.1531601
  82.4070511  30.7769051  30.8625622  38.4931641  13.3885241  18.8607349
  37.9616051  13.5957346  19.6293316  38.9478455  14.2057276  18.6565895
  73.3754654   6.1473041  16.8059292  72.4624863   6.2074485  16.5247135
  73.7807770   5.5497489  16.1775303  79.3570862  31.2045631  30.4863987
  79.3197479  30.2616558  30.3258915  78.4413605  31.4832134  30.4908695
  21.2791061  10.4384947  37.1559944  21.9541874  10.0450134  37.7088699
  21.7346306  11.1319256  36.6786232  67.6372528  19.8713284  72.0740051
  68.4676132  19.3953609  72.0603409  67.1227875  19.4756756  71.3704376
  24.8538456   1.2240545   6.9345288  25.5003529   0.5207803   6.9950900
  24.7729511   1.3948739   5.9961748  39.1695938   0.8703182  29.3468800
  39.6666946   1.0853779  30.1361008  38.2542114   0.9874249  29.6010437
  12.5692196  29.0737514  34.3003540  12.1330261  29.2965164  35.1227570
  13.0062361  29.8827229  34.0342484  53.3784103  54.6630058  30.5119324
  54.0856361  55.1409607  30.0787792  53.5488701  54.7782974  31.4467506
  57.2278328  53.3887482  62.0565796  57.5762672  52.5179977  62.2479248
  56.2803192  53.2943497  62.1542473  49.3736916  64.6359558   4.4774342
  48.4841690  64.9096222   4.2536345  49.2573814  63.9898376   5.1740227
  34.8496017   7.1560512  26.4869308  33.9241867   7.3988214  26.5169888
  34.8581276   6.2196522  26.6852150  82.1182327  52.0624428   3.6552277
  81.9774780  51.4788704   2.9096646  81.3027802  52.0144997   4.1542010
  63.9886284  44.6479530  52.7347679  63.2023735  45.0502701  52.3657494
  63.9848213  44.9140244  53.6542358  36.6542854  67.9959488  74.5989456
  37.3313484  67.4274902  74.2319717  36.2555389  67.4745560  75.2956390
   3.2637634  69.6210480  40.0974693   3.6953590  69.6915131  40.9489326
   3.0342159  70.5220413  39.8700027  71.5878220  12.3169508  31.3196793
  71.4835663  11.5081186  31.8208294  71.0040588  12.9419870  31.7495441
  29.4715157  57.2198181  24.8935528  29.8771667  56.3766632  25.0954590
  30.2088013  57.8207855  24.7864151   9.3773136  49.3531647  87.9856491
   9.8844128  50.0335274  87.5427170   8.5081530  49.7378006  88.0989914
  18.0060406  31.0059166   6.3155918  17.2708092  31.2904186   6.8584785
  18.2155972  31.7690754   5.7771602   0.1008641  41.9587479   6.1087990
  -0.6261181  42.3262367   6.6114736   0.5814264  42.7224693   5.7893915
  45.5610313  66.2554169  37.1050339  45.6480103  65.6868668  36.3399048
  46.4602890  66.4001312  37.3993568  35.5540276  67.5455475  23.9605637
  34.8012657  68.0461273  24.2752037  35.5060463  67.6147232  23.0070724
  85.4455566  69.1237946  81.6963120  85.1064301  70.0172729  81.7503586
  85.5798874  68.9748001  80.7603683  19.6943474   4.7011061  13.8483934
  20.6027184   4.7906580  13.5601645  19.5685940   3.7581551  13.9545107
  56.5404892   3.1426013  65.1965942  55.8584213   3.7871442  65.0079727
  57.1522903   3.2200868  64.4645309  50.5465164   7.5082493  51.5912132
  49.9597549   8.1081858  51.1307564  50.0563927   7.2444191  52.3699303
  52.8704910  19.8503704  83.8113403  53.1763268  19.8484669  84.7183609
  52.0187645  19.4148560  83.8448486  60.6879196  14.1344929  70.2171402
  61.0882835  14.6109896  69.4898911  60.3991508  14.8183317  70.8214645
  34.7082443  33.1029510  84.1278229  35.0676842  32.2361832  84.3169098
  35.0642853  33.6651840  84.8158340  81.7482071  16.8386364  22.6501541
  81.2978363  16.5809479  23.4545155  81.8262939  16.0269699  22.1488228
  21.8499489   4.6212115  46.3633957  21.5919533   3.9480422  45.7337036
  22.7720490   4.7897053  46.1695480  16.3614292  43.5372887  72.5984650
  16.7078609  43.9715767  71.8189697  16.7763290  42.6746864  72.5963821
  47.0090408  14.2316847  36.1032562  47.8003044  14.5052586  36.5672531
  47.0804443  14.6457930  35.2432289  62.9300079  35.1350212  75.7989197
  63.7425423  34.8150482  76.1908875  63.1736183  35.9629440  75.3848877
  78.4252930  57.0701065  35.5965843  78.4880676  57.6713829  34.8544540
  77.9355927  56.3209724  35.2571335   8.9040909  40.9770699  38.4913177
   9.6608582  40.6479225  38.0063438   8.3583088  41.3976936  37.8269157
  83.6697769   7.0560956  60.3089447  83.9655151   7.4296865  59.4787636
  84.3747177   7.2542691  60.9254036  40.8591919  38.8818665  81.5462112
  40.0307503  38.5850563  81.1696243  41.5271301  38.5539131  80.9441071
  21.5560665  35.3066711  11.7985048  22.2304955  35.7225723  12.3355370
  20.7308979  35.5569229  12.2140799   4.6357303  13.8264217  71.0021515
   4.6291914  14.4098301  71.7609787   4.2293377  14.3384027  70.3029022
  45.9026375  41.5627136  11.8175507  45.1314812  41.2244339  11.3624525
  46.3723259  40.7804642  12.1068821   2.8892052  14.0245285  11.0949287
   2.4902637  13.6307211  11.8708105   2.7707586  14.9665384  11.2166700
  48.4097900   7.1339660   1.1690178  47.7425613   7.7904491   1.3691815
  48.7464447   7.3888259   0.3099813  59.1684189  44.5424461  13.4881334
  60.0713577  44.2284431  13.4397545  59.2464066  45.4529190  13.7730789
  23.2007408  29.1697712  10.8893862  23.9971352  29.7007790  10.8853245
  22.4918747  29.8020706  11.0074539  11.0069847  55.6555519  11.9820805
  11.5831242  54.9068375  11.8280554  10.7564821  55.5795860  12.9027910
  24.5131378  30.6531734  30.3028259  24.0857964  29.9584846  30.8038445
  24.1643677  30.5584908  29.4164696  60.9215851  52.4880753   3.3147874
  61.2937202  51.8326988   3.9048936  61.1102753  52.1550674   2.4374433
  13.3536167  31.0019817  28.6191845  12.8104734  31.6970329  28.2475243
  14.2523098  31.2789440  28.4406490  34.0580597  43.2610931  17.7281361
  34.7767448  42.6911926  17.4543915  33.2918167  42.6877441  17.7475834
  60.5768394  40.0232811  56.6829681  60.3343697  39.2618256  56.1560669
  61.5164833  39.9207191  56.8338966  21.6153107  23.6325340  84.5725708
  21.2931938  24.5289040  84.6674118  21.0433426  23.2410755  83.9123840
  71.4789810  20.7609711  17.0679264  72.0151901  20.1186047  17.5327702
  71.2180328  20.3164043  16.2613888  83.6945877  47.7517395   2.6962936
  83.3900604  47.7549858   1.7888333  83.4015579  46.9095459   3.0442548
  46.5559196  59.7454910  85.9199753  46.2536201  59.2291679  85.1728134
  47.0056114  60.4939041  85.5276947  67.8281250  55.5369644  15.5025425
  67.3206100  55.7324486  14.7148619  67.5109634  54.6791687  15.7850723
   3.9737103  32.4016838  70.1509552   3.4978054  33.1398544  69.7703629
   4.8603878  32.7344246  70.2899551  69.2514648  42.2271423  84.8197861
  70.1208115  42.5640717  84.6030807  68.6711197  42.6278648  84.1725998
  67.7216110  52.5904617  21.8680191  68.6397858  52.5767479  22.1382046
  67.6568069  53.3412704  21.2778339  82.2141876  51.6490593  44.7046127
  82.5084915  51.8461876  45.5938568  81.2595749  51.7018127  44.7510376
   2.9185812  62.4806366  57.9272766   3.0284793  63.2776871  58.4457970
   3.2013230  62.7269440  57.0465851  66.5651855  67.3195267  84.4412689
  66.2803268  66.4743576  84.7888031  65.8417664  67.6051865  83.8833313
  41.4908829  15.5323248  10.2790537  41.5607491  15.4874191   9.3254633
  40.8402977  16.2158375  10.4396191  77.8078461  37.9438210  87.2729950
  76.9011307  37.6740799  87.4190903  78.1833267  37.2429695  86.7400284
  40.7400551  38.0546570   1.8534871  40.3262329  37.6169548   2.5973957
  40.0897331  38.0028152   1.1530399  77.0007095  12.7207060  15.5016041
  76.0732346  12.6548014  15.2742615  77.2981491  13.5190115  15.0651770
  41.2947884  28.1625996  14.3390455  41.5521812  27.3143845  14.7003078
  41.7164536  28.8042755  14.9106054  75.0608139   4.2176790  59.8870773
  74.2101517   3.8486528  60.1246147  75.6473160   3.4621863  59.8485870
  14.5656052  67.8889313  37.8712311  13.7493439  68.3840332  37.8018188
  15.1699362  68.4843521  38.3144989  49.4143791  59.3307381  34.7786217
  49.6312981  58.6739273  35.4402657  50.1967697  59.8790512  34.7199211
  25.4137115  47.3111763  87.7347336  25.1617661  47.1480217  88.6436539
  24.6503372  47.7399178  87.3478622  12.0998697  40.4193459  72.4009171
  12.6305628  40.5841713  73.1802902  11.2783384  40.0649529  72.7411041
  82.4032364  38.4018288   7.8077731  83.3416824  38.5462074   7.9290686
  81.9966049  38.8188362   8.5673685   9.6761456  66.1978989  29.6676693
   9.3890305  65.3679276  29.2869549  10.3810530  65.9549332  30.2679253
  57.7456741  14.2868347  52.8371277  57.9079437  13.5659943  52.2286148
  56.8857765  14.0953074  53.2114639  60.8784561  31.0475445  59.9194603
  61.5797424  31.5964527  60.2703590  60.8206635  31.2938576  58.9963036
  32.5973854  57.0670586   7.8883085  32.9461288  57.0831299   6.9970441
  31.8906822  57.7126160   7.8806562  51.6743355  17.5916004  14.7295055
  51.1771736  17.2483425  13.9870539  51.9064903  18.4833813  14.4705420
  31.3941154  63.6618881  87.9019470  31.0369473  62.9464378  88.4280624
  31.9768143  64.1307373  88.4993362  58.4250717  38.9193497  73.0431976
  59.2935600  38.5722160  72.8395767  57.8193169  38.3199463  72.6072998
   2.1792755  58.7333717  14.7909641   3.0830085  58.5189209  15.0222855
   2.0580325  58.3530579  13.9209690  73.6514587  39.2127533  61.7439766
  74.1832047  38.5230255  61.3467941  74.1899185  40.0009727  61.6733093
  12.9404325  23.0145245  40.2004318  12.7496758  23.9519043  40.2344894
  13.8551960  22.9461670  40.4738693  71.8709335  52.5325089  83.3711014
  71.7578888  52.9589119  82.5216064  71.0437241  52.6854172  83.8278122
  70.2476349  39.8208008  47.0859261  70.1548233  38.9092178  47.3627701
  69.5032043  40.2697525  47.4865494  77.6675949  60.6865768  66.9229813
  77.1821594  59.9377899  66.5767136  78.4925842  60.6823769  66.4375916
  83.6992264  23.3962116  17.6538277  84.2152023  23.8725243  17.0033455
  82.8152924  23.3719406  17.2873459  74.0595093   5.6741996  46.9278488
  74.3942947   4.8079133  47.1595802  73.1414948   5.5237532  46.7023468
  71.5056152  37.9978752  50.9739914  71.8615646  38.4517212  50.2100830
  71.6646500  37.0706558  50.7973366  45.5631943   5.2234473  36.5160599
  45.5749588   4.3665028  36.9423676  46.2818985   5.7047672  36.9259720
  81.2796707  54.5371857  79.4941788  82.1900940  54.7043228  79.2504120
  81.1210327  55.1165504  80.2394333  59.0845566  64.3117905  42.3243179
  58.9091530  63.4668312  42.7384605  59.1395912  64.1135025  41.3894958
  38.1585541  50.8132668  10.3929110  37.4351425  51.4118729  10.5788555
  38.9409370  51.2893066  10.6712923  63.4791870  71.4794617  57.1409225
  62.8151703  71.3772736  56.4591103  63.0556564  72.0186691  57.8088379
  25.8525925  66.2307663  37.9049034  25.1510010  66.8265381  37.6421013
  26.2559948  66.6550598  38.6621857  26.3588276  68.0148163  70.5525131
  26.4249058  68.7059479  69.8935776  26.1529217  68.4773026  71.3648758
  55.3728714  53.2440491  71.8141556  55.9899445  52.5307350  71.6509552
  54.8667908  53.3128738  71.0046082  45.4071121   2.7798290  81.7237167
  45.5777473   1.8779603  81.9952850  46.2376137   3.0799456  81.3543549
  45.4984550  60.8593216  57.1965981  45.1648331  60.0513153  56.8066597
  45.0840759  60.8981590  58.0585823   3.0626972  15.8346434  86.2847443
   3.3197026  16.5201015  85.6680374   3.4038072  15.0268764  85.9008331
  63.2663612  55.7705917  39.0437469  63.3346939  54.8415985  39.2640381
  63.8545113  55.8835754  38.2970543  52.2863731  25.9804497  18.8893642
  51.4857483  26.0648556  18.3715725  52.3715744  26.8219318  19.3375626
   1.6690332  21.2565231   4.4297357   2.3093090  21.7009029   3.8740337
   2.1495535  21.0511265   5.2316985  30.7705173  12.9928865  49.7627335
  30.1254272  13.2407551  50.4250450  31.3730717  13.7356997  49.7254715
  74.2732773  64.6277237   6.5958700  73.5771866  63.9831352   6.7231393
  74.8649826  64.4904785   7.3356557  63.0975723  42.2069550  66.0713425
  63.6833420  42.0958824  65.3225021  62.2463303  42.4069710  65.6819687
  24.4242535  33.7071648  17.9685574  25.0649929  33.3760605  17.3392296
  24.9439945  33.9474030  18.7356224  17.5167923  58.2792549  40.5409088
  17.8236389  58.9994392  41.0917320  18.0948734  57.5480652  40.7586708
  43.1372337  40.5869408  76.7983627  43.9249039  40.0460854  76.7410583
  43.0859680  41.0261002  75.9493942  67.7129059  23.5907497  81.8561554
  67.3504868  23.9343376  81.0395584  67.4453659  22.6717892  81.8689957
  45.1159210  64.1052780  59.2136879  44.8406334  64.6437683  58.4717522
  44.2974281  63.8305550  59.6269989  28.6394329   7.8216310  55.1482773
  27.8128338   7.9530969  55.6126938  28.3813210   7.6614976  54.2405510
   2.2708423  45.0278244  20.0139408   1.4384621  44.5570450  19.9721928
   2.6445191  44.7791367  20.8593712  79.4683762   0.7491775   8.1193285
  80.2586670   1.0329478   8.5788336  78.7511749   0.9873964   8.7067842
   8.9309006   1.1625373  15.7819471   9.4194727   1.9417874  15.5168095
   9.5858803   0.5967812  16.1907902  64.6603165  42.3519211  46.2383919
  63.9362030  42.7786751  46.6964073  65.3363876  43.0268211  46.1778603
  80.4139709  69.4608994  29.8733368  79.9057236  68.8837891  30.4433002
  79.8953247  69.5227127  29.0712051  73.9678497  34.9695740  56.1811638
  73.7795334  35.0376511  55.2451401  74.8911972  35.2099495  56.2578125
  55.5685349  15.2801180   2.8131804  55.8964691  15.9548273   3.4077027
  54.9708328  15.7460546   2.2284687  82.3964996  14.9721565  66.6310501
  82.5735779  15.6749983  67.2562637  82.6057892  14.1690283  67.1079330
  69.7028809   7.5893993   5.8135519  69.5052032   8.4813919   5.5280557
  69.6636276   7.0672235   5.0122881  73.3757324   4.0657964  33.2978592
  72.5709229   4.5794225  33.2293282  73.1168671   3.2774901  33.7751350
  19.6724319  49.3001633  21.6497936  18.9888210  49.4458771  22.3037624
  19.2888527  48.6714973  21.0383377  56.0031738  57.1779556  53.0207253
  55.5671997  56.7943459  52.2598038  56.6508217  56.5229988  53.2811356
  18.7214222   8.3695097  40.7512741  18.8004532   9.0911655  41.3751297
  18.7167454   8.7939901  39.8933525  80.3270035  21.0116158   5.4858584
  80.3976288  20.1935444   5.9777970  81.1501465  21.4678993   5.6604366
   1.0724677  37.7770195  54.5934410   0.7461123  37.1732750  53.9261932
   0.2830289  38.1515388  54.9842796  60.3283424  21.7429619  39.2261200
  61.2454834  21.7860050  39.4967384  60.1006050  20.8160458  39.2981987
  65.9150467  12.3712835   2.7566228  66.0698090  13.2389288   2.3831637
  65.2043991  12.0067358   2.2290659  82.9260178  45.1864586  77.0048828
  83.6417923  44.8324318  77.5326767  82.5534973  44.4230690  76.5636444
  50.3404388  56.7231522  55.3217659  50.6888962  57.2831917  54.6281052
  50.5810165  57.1696053  56.1335793  83.1997757  54.9918251  87.7073593
  83.6138306  55.8525238  87.7705002  83.3689651  54.7100220  86.8083572
  70.5754929  52.2654152  22.1614323  71.4961853  52.1814995  21.9134121
  70.5752792  52.1779022  23.1146221  82.2962875  56.2177238  63.0926323
  82.4587479  56.5260239  62.2011223  82.9594040  56.6591988  63.6232986
  45.1803169  16.0545673  36.7249832  45.8308296  16.7400703  36.5728302
  45.6925774  15.2486792  36.7910614  20.6267567  61.1835861   2.1878204
  20.3080673  60.7373161   1.4032767  21.5451584  60.9224625   2.2555153
  30.9600334  52.1143684   7.6764693  31.1953678  51.2426834   7.9942946
  31.1170368  52.0757751   6.7330222  51.1678429  51.8026199  79.9701691
  50.5575142  51.1523895  80.3179169  51.7790794  51.9656601  80.6885300
   5.7022181  60.9944572  38.5622940   6.3112826  61.4777412  38.0039864
   6.2551298  60.3782120  39.0426674  16.7956104   2.3076630  58.0320778
  16.3225212   3.1132329  58.2405853  17.6537876   2.6052270  57.7300491
   3.7372308  51.0063667  37.3755531   4.4361734  51.0090523  36.7215614
   4.1953053  51.0277405  38.2157593  48.3558502  65.9306870  38.1291542
  48.2097359  65.7760849  39.0624161  49.2899857  65.7647781  38.0022697
  67.5198898  12.7852993  22.6870575  68.1775589  13.0111303  23.3448601
  67.8850098  13.1073608  21.8629227   1.2626189  17.8016548   8.9950495
   1.6342055  18.0984097   8.1643324   0.7145993  18.5304337   9.2862349
  12.0346861   4.3411679  83.1458740  11.4894838   3.5979843  83.4040680
  12.2164450   4.1938529  82.2177048  20.6835518   3.1573107  88.0100632
  19.9222393   3.2748070  88.5782394  21.1706486   2.4359920  88.4083939
  80.0676498  29.0541115  39.5582771  80.0541611  28.3647499  40.2222290
  79.2811127  28.8984909  39.0354233  36.2399178   8.8198128  31.7066422
  35.9074059   8.0266647  32.1268616  36.4720497   8.5420732  30.8205242
  74.9603882  46.7312546  63.4191132  75.7599564  46.2477608  63.2113533
  74.2716141  46.2734909  62.9371605   5.2103300  65.2691498  63.9629936
   5.8998122  65.2741547  64.6269379   5.4132061  66.0172424  63.4013672
  83.9928970  12.1114111  51.8779907  84.6038284  12.5614758  52.4614601
  84.0939713  12.5559587  51.0363274  54.4749260  50.7559128  56.5218163
  54.8972282  49.9213181  56.3184853  55.0972404  51.4185410  56.2220154
  54.6061134  52.9340973  61.5396729  54.3763199  52.0665970  61.2067032
  54.4210815  53.5269547  60.8113098  74.4638367  54.0264778  19.0264435
  73.8079453  53.9437828  18.3342037  74.8643570  54.8827133  18.8758545
  85.8071899  61.7185364  18.5757351  86.5021515  61.7246780  17.9175377
  85.3122253  62.5206680  18.4089260  33.9084778   7.0968657  29.8716774
  34.2588425   7.9183860  29.5273190  33.9417458   7.2021604  30.8224869
  10.6812649  30.0870495  85.6726303  10.1625881  29.2831554  85.6416550
  10.6281118  30.4407368  84.7847595  74.1034546  45.6248703  75.3163986
  73.2034225  45.5896111  74.9924774  74.0187454  45.5542641  76.2672272
  24.1223488   2.7166843  26.2566242  23.5320435   3.4652638  26.1705990
  24.8535938   3.0470352  26.7785244  74.0551529  13.4134083   9.5134029
  73.2369690  12.9520941   9.6977816  74.7188339  12.7240438   9.4902973
  61.0848999  24.3091145  32.8718872  60.6216164  24.9017982  32.2800026
  61.0807381  24.7614670  33.7154465  38.1275520  53.3750687  27.3328056
  38.5420494  53.2562408  28.1873837  37.5529404  54.1318207  27.4484615
   1.5130743  48.0098267   8.4448643   1.8197554  48.7819901   7.9695349
   0.5937645  47.9228706   8.1927919  20.9771881  47.7453156  62.8493729
  20.2924767  48.0821266  62.2714806  21.5467720  47.2349396  62.2737656
  29.5552845  61.5963058  29.7385693  29.7630978  60.9643822  29.0502968
  28.8274403  62.1065559  29.3834305  16.3157253  69.7631531  15.3108921
  16.4205303  69.1717453  16.0562019  15.4176836  69.6169891  15.0135880
  64.4024734  52.6363297  16.6004410  63.5397797  52.8724670  16.2595139
  64.3225098  52.7419930  17.5484257  13.1497440  65.9622803   6.5677323
  12.6137028  66.2329407   7.3131409  13.7713528  66.6800232   6.4465675
  15.0994158  57.0384026  40.1519394  15.8338509  57.6090355  40.3782501
  14.5832891  57.5484848  39.5277138  16.4325314  45.8843346  65.3966522
  16.3564205  46.7813301  65.7219772  17.2350292  45.8860703  64.8749008
  28.5665798   7.7193623  13.3236799  29.1073818   6.9654069  13.5588741
  28.4221039   7.6260724  12.3820562  21.3069630  29.2131577  71.2681274
  20.6685028  29.1587181  70.5570450  21.3442230  30.1445389  71.4857788
  51.5085335  54.2641068  13.1602049  51.3207512  53.4065018  13.5416269
  50.6645393  54.5674782  12.8257313  26.1662579  60.0060616  28.4732342
  26.5908089  59.2173576  28.8107796  25.3124981  59.7043610  28.1629086
  84.1494293   0.8442606  38.5485229  83.5522995   0.1807494  38.8940964
  84.0302200   1.5980139  39.1263428  57.7493439  56.8098297  28.0065689
  57.1614990  57.0257149  27.2826424  58.2463379  57.6135025  28.1593533
  21.1469879  69.0118103  46.7195396  21.6876507  69.2872620  45.9792442
  21.7560768  68.9643936  47.4564209  32.2496071  64.2315750   3.1713011
  31.4530373  64.6143417   2.8036034  32.2988892  64.5874634   4.0585136
  33.4828644  70.7225113  58.1897850  33.1507835  70.7442093  59.0872688
  33.8504105  69.8441696  58.0915680  54.2790413  65.1000977   0.7412142
  54.5694542  64.8871994  -0.1456717  53.3806000  65.4113007   0.6308143
  20.5925198  26.1894054  10.0210342  21.3093338  25.7900829   9.5281353
  21.0128975  26.5607204  10.7966890   4.8055749  71.5891724  28.9644661
   5.5277390  71.0031967  29.1910648   5.1879606  72.2130508  28.3473873
   9.4079504   9.9705019   7.1003547   9.4116545  10.1777353   8.0348454
   9.9233465   9.1668758   7.0311918  20.8895874  33.2501411   9.6169395
  21.1408844  33.8660011  10.3052702  20.0395966  33.5666237   9.3110256
  54.9473763  15.1750917  88.3205490  54.0569839  15.1662340  87.9693298
  54.9517517  15.9014988  88.9438858  84.6987686  37.5789719   2.6596456
  83.9973068  37.0398102   3.0250113  84.3020020  38.0058098   1.9002901
  49.9217949  11.0401945  18.2013512  49.3287544  11.6678514  18.6143627
  49.3427391  10.4049196  17.7802200  11.0032177  55.6853523  42.4938316
  11.9225788  55.5313873  42.2763405  10.8483782  55.1502304  43.2722321
   4.6902142  47.8222427  14.5236759   4.0925803  48.5691071  14.4881964
   4.1334186  47.0617943  14.3565445  57.7161446  30.3819218  63.1661072
  57.5051956  31.1547756  62.6422462  58.6516953  30.4655800  63.3504333
   8.6535053  19.5958271  76.6765747   7.7006230  19.5154400  76.6343307
   8.8075304  20.5206528  76.8694611   9.6024885  32.4015007  13.2991629
   9.0817833  31.7633705  13.7869005  10.2952080  32.6601181  13.9070187
  19.1936226  44.7582474  75.4040146  18.3932209  45.2654228  75.2685089
  18.8943119  43.8514328  75.4697952  17.1632671   9.3547163  43.9785271
  17.4321175   9.8027840  43.1765404  17.9617329   8.9334764  44.2967148
  10.8838224  24.5551376  33.4384117  11.6167746  25.1216488  33.1974182
  10.2453671  24.6776085  32.7358398  39.6234932  25.1793690   0.4588033
  38.9984856  25.5236149  -0.1792330  40.1192360  25.9461040   0.7461848
  22.2735920  57.7073135  13.3846807  22.9304314  57.1620140  12.9517336
  22.2846565  57.4169540  14.2967119  45.3957520  18.8226070  64.8086853
  44.7071953  19.0335293  64.1781082  45.4203110  17.8658695  64.8254242
  79.8385239  56.4851112  64.7373199  80.6442947  56.4334297  65.2514191
  80.1116028  56.2811699  63.8428574  72.1065826  35.3314590  21.8944130
  72.9878387  35.7013626  21.9473095  72.1765442  34.4825554  22.3311062
  54.6134987  15.1738453  53.0288315  54.3047867  15.8703165  53.6083641
  54.0217819  14.4409103  53.1988640  47.6167984  51.1935959  81.7401276
  47.3511734  50.6896172  82.5093384  48.3516350  50.7017593  81.3735962
  53.9928703  65.8543091  36.3451004  53.9761467  65.3713837  35.5188217
  54.7970085  65.5643005  36.7757835  74.3323898  53.0389442  25.0113354
  74.9563446  53.4064903  25.6372890  73.4935379  53.4337540  25.2494259
  79.4756241  32.8902664  28.0836468  78.6250000  32.5460587  27.8112507
  80.0742340  32.1488838  27.9928207  20.5183983   9.3442650  17.8301048
  21.1126270   8.6860533  17.4697113  20.5143547   9.1732597  18.7718964
  33.0990677  50.1443443  66.0792389  32.1905594  49.8993187  65.9037018
  33.4882088  50.2583199  65.2121658  50.7079124  11.2335577   1.2082015
  50.6856956  11.4383221   2.1429794  51.5840034  10.8767719   1.0619206
  29.7744865  70.5524521  23.4382019  29.6796741  71.2192383  24.1183815
  30.4100056  70.9234314  22.8260574  55.2422981  10.0034723  88.2733994
  55.2592201   9.1420565  87.8563766  56.0484505  10.0361080  88.7884598
   3.6477313  63.0018768  13.5265522   2.8845479  62.4386787  13.3977375
   4.3947859  62.4490204  13.2974405  19.1734276   8.7230511   4.2839713
  20.0602036   8.3676662   4.2242937  19.2760792   9.6559181   4.0956807
  38.2918396  30.4779911  42.0865784  38.6841431  30.1502419  41.2773132
  38.2943954  29.7241287  42.6764221  50.3367119  52.2090034  40.7665787
  49.8929443  52.0584564  41.6012268  49.8021278  51.7430992  40.1236305
  42.5446129  -0.2312027  71.4157867  41.9625015   0.3678788  71.8832016
  43.4248085   0.0308058  71.6856766  68.3035355  22.4549370  29.6656857
  67.8168030  22.3912239  30.4874306  68.9575653  23.1350174  29.8268147
  42.5412140   5.8566432  47.6102715  42.0973167   5.2152786  47.0554390
  42.9298630   5.3366203  48.3136635  60.4689102  29.6831436  40.6317902
  61.3814774  29.6504250  40.3447685  60.2033310  28.7654171  40.6907616
   4.1591625  50.5211258  58.0022545   3.5916986  49.7560005  57.9084511
   4.8615193  50.2286415  58.5830994  61.6698418   1.8354907  35.2588768
  62.3208122   2.3481045  34.7796097  61.4853287   2.3544791  36.0417175
  25.9657001  59.5138054  60.1620598  26.5441265  59.6724739  60.9080353
  26.4486809  59.8524208  59.4082031  66.9410934  32.1339378  39.9991608
  67.1050186  32.5901031  40.8245544  67.8028564  31.8225193  39.7223625
  20.1661148  47.5340309  84.8822632  19.8134975  47.9790840  84.1116638
  19.7894039  48.0061722  85.6248245  55.9092903  41.2992630  16.3211689
  56.2207756  42.1691246  16.0710602  55.3306313  41.4573822  17.0670795
  85.1607666  23.5982552  24.9006538  85.8145676  22.9003792  24.8588715
  84.3203430  23.1418171  24.8607159  59.5279274   3.1586025  32.4370346
  60.4662628   3.1592584  32.6261368  59.3427696   2.2655406  32.1465378
  53.9476242  13.1916523  11.1661119  54.7757683  12.7220907  11.2657433
  53.5328293  13.1309280  12.0266285   6.3751726  17.7560062  17.9507504
   7.2689800  17.6905270  18.2869835   6.0950141  16.8478470  17.8367863
  72.4441452  65.5866852  87.4431152  73.2874603  65.7093658  87.0072098
  71.7961426  65.7041779  86.7484741  14.0335732  58.5037117  32.6831894
  13.1693897  58.1094971  32.8015671  14.2983465  58.2402000  31.8018894
  45.1806717  67.4902267  44.0542450  45.7725716  67.6893768  44.7796593
  45.6599007  66.8556976  43.5213814  56.0039406   2.8658180  39.3274574
  55.5923843   2.0685165  38.9940414  55.4940605   3.5780015  38.9413872
  51.7929764  68.8275986  81.5207901  50.9015846  68.9405746  81.1907959
  52.3240662  69.4136047  80.9815521   9.0684052  63.4167519  12.9608641
   9.1542444  62.6763344  13.5614042   8.2598972  63.2419815  12.4791965
  77.8245773  27.9529171  46.5603828  77.7063370  28.8852654  46.3787880
  76.9444199  27.6343994  46.7606277  16.7348747  29.9842796  78.2253418
  16.0076332  30.4702854  78.6141205  17.4569149  30.0987072  78.8432388
  66.0009384   4.6237831  20.5630054  65.8742752   3.8989067  19.9508419
  65.4334564   4.4130373  21.3044796  11.7709341  20.8388748  14.3691483
  11.1651220  20.4446411  14.9966850  12.5746937  20.9811268  14.8691158
  83.9787750   2.8051295  23.1413231  83.4672775   2.7549896  22.3338032
  83.3299713   2.9673970  23.8261204  43.1413345  15.3379326  32.3012619
  43.4839439  15.5103645  33.1782570  42.4251099  14.7185745  32.4414253
   2.1373658  23.1070137  32.2069855   2.9087226  23.0345974  31.6448498
   2.2655489  23.9262390  32.6851807  30.5387230  54.0074730  34.2472496
  31.1255035  54.0030823  33.4910088  30.9632282  53.4315567  34.8831329
  60.9203300  42.3483276   0.4437949  60.6296310  43.0718689   0.9989653
  61.7705688  42.0965118   0.8042299  31.1483536   4.4719443  40.9475288
  31.4193192   5.3602300  40.7156677  30.3357735   4.5901222  41.4394455
  73.7912979  48.2604027  36.5958138  73.8070984  49.0556641  36.0633278
  73.9819565  47.5546227  35.9779510  61.6946526  38.6178055  45.1087723
  61.9719505  39.5209007  45.2629089  60.7490730  38.6775322  44.9725876
  57.6125374   6.5831900   8.6953936  57.2308006   6.7817388   7.8403578
  57.0213280   5.9341412   9.0767574  27.9579697  29.6525345  15.9830399
  28.8759537  29.8869610  15.8467197  27.9231853  29.3356152  16.8855820
  71.2124329   8.7632446  14.5868483  72.0608521   8.9556503  14.9860973
  71.0353622   7.8537855  14.8271856  85.5656967  30.8499889  42.6875954
  84.7817307  31.3449383  42.9256096  86.2512665  31.5127716  42.6042213
  54.2643814  46.4021339  62.7442398  53.8436089  46.4549255  63.6023750
  53.8842239  47.1257591  62.2461624  13.1000242   2.6813889  34.4466705
  12.5668173   1.8864596  34.4497452  14.0027428   2.3641818  34.4199905
  16.5855141  40.3106155  29.0527210  16.2919903  39.7160950  29.7430973
  17.2081490  40.8934669  29.4872837  69.0436172   4.5282426  52.9893112
  69.9111938   4.9128704  53.1141815  68.6626282   5.0263281  52.2661285
  22.8709126  68.4623489  59.0508614  22.7499104  69.2183380  58.4763412
  22.1453285  67.8773193  58.8329163  84.6429062   5.5668135   9.3264179
  85.5891418   5.7112427   9.3286591  84.4556580   5.1928434  10.1874161
  74.9451294  37.3138618  16.3485756  74.1584320  36.8630943  16.6554127
  74.8839569  38.1893425  16.7307091  29.6176872   9.5080423  41.8401222
  29.7127209  10.1371803  41.1250076  29.9286880   9.9768858  42.6145210
  48.1557121  17.6551952  16.3503323  48.7161064  16.8796196  16.3761997
  48.7147446  18.3426495  15.9882250  78.8397751  57.8163757  16.0366421
  79.5889969  58.3304634  15.7356100  79.2246170  57.1248665  16.5751057
   4.5518427  37.3140869   0.1389059   3.6750441  37.0620079  -0.1507674
   4.4515924  37.4992523   1.0726594  78.2695465  20.1495399  43.2363434
  78.2814407  19.5389938  43.9734497  77.8700562  20.9442444  43.5900192
  52.0782776  30.5991383  32.5608521  52.7203789  31.2397938  32.2550812
  52.0716972  30.7020721  33.5124779  27.0522385  63.7345238  50.6889420
  26.2337856  63.9550972  50.2442932  27.3766308  64.5710678  51.0224152
  33.6658287  11.0727501   3.5958564  34.4295845  11.6471729   3.5415370
  33.8573151  10.3612576   2.9848380  22.2804337   9.8773422  26.3852806
  21.9817486  10.7668419  26.5745144  22.4010429   9.8620872  25.4358330
  28.1411362  33.3214493  86.3069763  27.2585239  33.6385078  86.4985504
  28.0790291  32.3705940  86.3977890  38.2462578  17.8506927  88.8070908
  37.9476624  18.7516212  88.9311981  37.4542427  17.3656349  88.5754395
  26.3822861  37.0679550   1.8307813  26.6862679  36.6726418   2.6478202
  25.4787350  37.3269958   2.0116854  18.8977833  47.8900032  25.1525745
  19.1064053  48.7839737  25.4237251  18.4609890  47.5050392  25.9123421
  67.1873398  54.0204048   8.6616955  67.5466537  54.5491600   9.3741159
  67.6928635  53.2080040   8.6878853  70.6047592  34.8749275  39.4522629
  70.1576080  34.8238258  38.6074677  71.1110611  35.6859818  39.4065971
  12.3493271  58.2356529  46.0989494  12.5365810  59.1642227  45.9613647
  11.7237530  58.0127716  45.4095917  66.8695068  50.5574455   5.9003925
  66.1977386  49.9898796   5.5224686  66.3836823  51.1650963   6.4580274
   0.8630601  44.1112709  88.4259415  -0.0379953  43.7883072  88.4308472
   1.2249321  43.7989197  87.5966492  33.0110092  70.9956360  87.1489639
  32.4142189  70.4305115  87.6395874  33.8358002  70.5104294  87.1260605
  48.0602226  68.5441055  50.3922272  48.8853035  68.9844818  50.5960350
  47.3854103  69.1259613  50.7419510  48.0078506  14.4059048  68.3618622
  47.9119301  14.4905176  69.3104782  48.7937279  14.9115219  68.1545486
  35.1314430  12.3699884  82.7184601  35.0007591  11.9875927  81.8507462
  35.7815819  11.8037424  83.1343002  40.2623100   6.8394504  11.5873451
  39.3273849   7.0347977  11.5242147  40.3313103   5.9167991  11.3420191
  56.3835182  56.2456474  48.0306129  57.2909088  56.3504791  47.7444534
  55.9352150  57.0217400  47.6945572  59.8603287  62.8532524  81.8399200
  60.5515327  63.3522606  82.2751923  59.9806366  61.9559822  82.1508179
   3.5679090  43.0642548  67.3210373   3.8516009  42.1569290  67.2091827
   2.9724789  43.2211037  66.5881729  67.7166672  52.8975830  64.6176147
  66.8404922  53.2678757  64.5107040  67.7351456  52.1497498  64.0204239
  57.4419441  50.4926109  74.6313629  56.8779831  51.1072235  75.1008682
  57.7936897  51.0007401  73.9003906  48.6246986  10.8025732  61.5835915
  47.9065323  10.2778730  61.2298203  49.3963127  10.2431097  61.4950142
  77.6899872   2.3617911  65.2610016  77.5389252   3.3068542  65.2773819
  78.2896118   2.2277725  64.5270233   8.2103806  26.6861000  46.2884827
   7.9967618  26.0857620  45.5742035   8.0139370  26.1913643  47.0840187
  43.1591072  13.7938824  12.1786804  42.6799736  14.2895412  11.5146151
  42.4769897  13.3727970  12.7017803  70.1226807  69.3862228  36.1222763
  70.6270065  69.8457870  36.7936172  70.7758179  69.1094437  35.4795990
  45.6343803  47.7041245  75.5963974  46.2674637  47.7002945  76.3143234
  45.1812859  46.8643608  75.6721268   5.0483270  52.7140388  44.4915276
   5.2068877  52.9458618  45.4065971   4.0952578  52.6624718  44.4191971
   6.3558559  49.5276833  30.9367790   6.8883595  48.9091415  31.4368572
   5.5275507  49.5714760  31.4145088  37.2248077  60.3509521  59.5626411
  37.6004677  61.2186127  59.4133987  36.2784958  60.4944458  59.5510750
   7.9586167  37.4175377  35.6362076   8.6709766  38.0181427  35.8554077
   7.2150793  37.9883919  35.4425354  50.6909676  12.9321918  31.7421093
  50.0859528  13.0857897  31.0164375  50.1364212  12.9410667  32.5222588
  47.7318878  58.8577805  20.6112080  47.9505501  58.6551476  19.7016163
  47.3578987  58.0461464  20.9541626  10.4965048  52.3599548  15.2429934
   9.7079639  51.8268700  15.1417360  10.1685419  53.2463570  15.3945312
  24.6506119  19.2736568  20.4349728  25.2339783  19.1368465  19.6885166
  23.8555546  18.7907810  20.2092590  71.2420883  24.4028568  44.9317703
  70.9794083  25.3012466  44.7314529  71.1823349  23.9434299  44.0941620
  38.6533241  22.3273849  27.2976589  38.6965294  22.2270432  28.2486038
  37.9129562  21.7816391  27.0326214  74.8848267  23.6448975  45.2298889
  75.1480331  24.0326118  44.3952446  74.5605011  24.3833828  45.7453384
  51.3429909  56.1831245  16.4143524  52.1447639  56.6679649  16.2186012
  50.6687889  56.6126022  15.8878212  48.7742424  61.9172554  80.6239929
  49.0867958  61.0583038  80.9081421  49.4035759  62.1926575  79.9574203
  84.8183441  14.0857515  65.2766113  84.9854355  13.4697142  65.9899216
  83.9669189  14.4696455  65.4861984  41.4695625  36.4484825  22.6113491
  40.6928444  35.8891029  22.6172199  41.6728477  36.5857735  23.5365829
  10.9363594  30.1846104  63.6856995  10.1404572  30.7163544  63.6812630
  10.9147749  29.7281780  64.5267944  85.6130219  54.6603737  55.0390549
  85.6974335  53.7205200  54.8784943  85.2717743  55.0139847  54.2176285
  57.1423721  32.3987236  11.6747198  56.4026299  32.9278183  11.9731646
  57.2384949  32.6220245  10.7489071  63.0059624  27.8777409  33.6687584
  63.1762886  28.8026772  33.4906769  62.6248474  27.5437107  32.8567162
  10.6692486   6.8758049  16.9093132  10.0290689   7.5407753  17.1627216
  10.1683769   6.0607042  16.8781757  49.2399902  54.7310562  45.0930405
  49.6453705  54.6667976  45.9577789  49.5664558  55.5571060  44.7362595
  61.8426361  67.1464157  59.7589951  61.6699791  66.7939682  60.6320381
  62.6013374  66.6530304  59.4472656  76.6287994   8.9965572  50.3446693
  76.9195633   8.5558443  51.1430779  76.9553223   8.4447012  49.6339874
   0.8037998  25.3112583  20.4900513   0.7321103  24.4238071  20.8415108
   0.8140675  25.8750782  21.2635078  39.8833237  36.5160179   3.8793607
  38.9826469  36.1919632   3.8786488  40.4067535  35.7680473   4.1670990
  85.4948044  36.7984810  85.9202347  85.9945221  36.2435875  85.3213959
  84.6048660  36.4477196  85.8854599  48.0273552  35.1300468  15.7263670
  47.9531631  35.3618240  16.6521130  47.1365700  34.8956261  15.4660187
  49.8597145  48.2121391  21.7172012  49.4058685  47.3834915  21.5635815
  49.1706085  48.8141289  21.9982281  35.9203110  66.9999008  45.6929092
  35.1721840  66.4062042  45.7566719  36.2736130  67.0363159  46.5817757
  82.0360641  63.8231087   3.4021935  82.9275665  63.5910378   3.1422186
  81.6291733  62.9882774   3.6339862  86.0671158  70.5456848  86.0465012
  86.2982635  70.5974197  86.9739304  86.5955963  69.8229904  85.7079010
  14.0647154  48.7203865  32.1670189  13.5857649  47.9081535  32.0023384
  14.5934744  48.8504601  31.3797913  79.6327591  42.0066948  16.2598095
  79.6425018  42.7757111  16.8296738  80.5534897  41.7585869  16.1765766
  53.8303070  71.5968781  17.2948685  53.3777084  72.3544312  16.9240685
  53.2802734  70.8499756  17.0585766  83.5454178  37.2589035  16.9204674
  83.2566376  37.9902802  17.4662914  83.8551178  37.6700096  16.1134300
  65.9176636  56.2513504  46.7983284  64.9825439  56.2045670  46.5993347
  66.3322906  56.4425049  45.9570389  32.6491776  42.6505318  31.8291550
  31.8317413  42.2614975  32.1400909  32.4688110  42.8928795  30.9208775
  74.4290390  68.1520615  70.8481369  73.8131790  68.3541794  70.1437988
  74.4317398  67.1961136  70.8969498  42.6972809  38.4511261   8.8389931
  42.7187653  37.5033455   8.9712172  43.4589005  38.6335030   8.2886257
  22.9713020  38.4168015   7.0664072  22.5041847  38.5671463   7.8882518
  22.3207970  38.0136719   6.4914632  20.5961208  21.5437355  28.7507610
  21.3699703  21.9606419  28.3718452  20.7940884  20.6074619  28.7299652
  50.9447479   8.9302931   4.9598398  51.0049095   9.8046732   4.5750389
  50.1338844   8.5671425   4.6036744  77.7476196  22.6382122  15.9713106
  76.9668121  22.1100712  15.8050728  78.1382599  22.2485714  16.7534943
  78.6576843  57.5953598   3.8293521  78.6704483  57.4886856   2.8782005
  79.4519119  58.0923843   4.0253048  18.7420235  65.0890503  51.6970291
  18.9153614  65.2827911  50.7758064  19.5469608  64.6768036  52.0106506
  38.3073044  20.8314953  11.4891272  38.0134430  21.7271805  11.6553364
  38.4991417  20.4773388  12.3574610  32.2011337  28.6010590  17.7281609
  31.6530342  27.9508018  18.1674633  33.0593376  28.1829491  17.6581478
  10.3082371  16.6442108   5.4867277  10.2187014  15.8647728   4.9383731
   9.9041653  16.3991432   6.3191342  62.1174011  45.3247032   4.2178497
  62.2881622  45.9560776   4.9167328  62.4938278  44.5050468   4.5383196
   3.7592785  28.5885773  39.1326752   2.9087589  28.4027443  39.5305595
   3.7742305  28.0540314  38.3387794  32.2146416  54.5144806   8.9171295
  32.7055855  54.0261040   8.2563000  32.3632927  55.4336548   8.6951895
  46.7080994  71.3011551  46.6063957  47.5045471  70.9334946  46.2233429
  46.2434807  70.5448837  46.9647484   7.4177547  40.0426102  30.0001469
   7.2222605  40.1720200  30.9281921   7.3620806  39.0954666  29.8734570
  68.1104813  33.4995728  46.4240036  67.1782379  33.6147881  46.6080666
  68.4742432  34.3838997  46.4672852  31.7061901  56.1935120  -0.1533816
  32.4136124  55.6687317  -0.5280735  31.5279331  55.7851944   0.6938087
  80.7002640  48.5470848  55.7981262  79.8543396  48.9389496  56.0151138
  81.1305542  49.1979523  55.2436409  29.3055649  71.1315384   3.5978384
  29.3069172  71.3366394   4.5328054  29.9113941  71.7647705   3.2128446
  26.1011715  14.8844919  39.9013405  26.3957291  14.0858555  40.3391151
  26.0206451  15.5278454  40.6055031  17.5581455  33.1628265   9.5538435
  17.0530624  33.8358841  10.0100451  17.8281612  32.5570297  10.2440119
  57.2439346  50.8225899   4.1942596  56.7507629  50.6533318   4.9969831
  57.0186234  50.0934486   3.6164880  29.2041092  32.1817856  31.3894100
  29.4547367  32.9942284  30.9496899  28.6707802  31.7156601  30.7455788
  42.4417686  13.9580555  70.8389816  42.0420990  13.8371992  69.9776535
  41.9227638  13.4055996  71.4235001  10.7973995  66.2889252  45.0029488
  10.6610260  67.2335129  44.9295807  10.9352942  66.1387634  45.9381866
  85.9122238  34.0540886  25.6997204  85.5134201  34.9181290  25.8027878
  86.7688293  34.2305222  25.3107071  17.7263908  66.2834854  28.3623543
  17.6290493  65.8134689  27.5342007  17.7287521  65.5964508  29.0288391
  21.9402351  64.8398819  59.1836395  22.4871922  64.9505920  58.4059410
  21.2142143  65.4502106  59.0547028  42.4352608  57.8871155   8.6920538
  43.2043190  57.6072769   8.1955976  41.7405167  57.2902107   8.4140844
  58.1956482  32.5603905  31.5605297  57.4193039  32.9529572  31.9597988
  57.9321136  32.3711319  30.6599941   4.9316530  42.9280243  39.1672249
   5.7072444  43.4303741  38.9175568   5.2662001  42.0531387  39.3644257
  71.4972076  22.1001472  13.6668482  72.3209076  22.5826187  13.5962896
  71.1511307  22.3414555  14.5260525  64.1487503  22.9398422  39.2193604
  65.0266953  22.6072922  39.0326614  63.6264305  22.1556358  39.3879890
  79.0156479  30.1817894  17.8399124  79.4456329  30.0537472  18.6854610
  79.0861130  31.1220970  17.6753330  14.2723389  65.6484833  77.2140198
  14.1792192  65.1262589  78.0107880  14.4708071  65.0087738  76.5301971
  63.2934036  34.3457375  64.8691711  62.9007263  34.7333641  64.0870056
  64.2356262  34.4617424  64.7467346  40.6488037  49.5086861  18.3507500
  40.8219948  49.8733978  19.2186317  40.7392616  48.5627708  18.4660435
  58.4149437  19.4342022  56.2443581  57.8372574  19.9153900  55.6519318
  58.7585983  20.1015644  56.8382912  29.6034756  53.1026726  10.6573706
  29.4528275  52.2567978  10.2354250  30.1849117  53.5695343  10.0572023
  65.1860886  43.5158920  21.6154480  64.6840210  42.7012100  21.5941639
  65.1402969  43.8489380  20.7192230  41.6639442  16.0215626  74.2935638
  41.9240417  15.1016254  74.2456589  40.7747574  16.0378036  73.9395676
   8.3629751  23.0986748  69.4162979   8.9428873  23.5431347  68.7979202
   8.4697351  23.5827847  70.2351227  63.9050255  49.6598053  23.7339211
  62.9517708  49.7435341  23.7568436  64.2145538  50.5217896  23.4556961
  48.0455475   2.7593524  72.2503128  47.5959854   2.4837611  73.0491714
  48.3993950   3.6235349  72.4605865  10.6408272  30.1945381  83.0336838
  11.1394501  30.9097004  82.6385193  10.7407007  29.4658489  82.4210892
  65.3744965  23.2759094  44.5581627  65.6938095  23.1368809  43.6665649
  65.9132843  23.9909573  44.8967552  59.8917847  45.7705307  22.0257587
  60.6486702  45.2372475  21.7829227  60.2189751  46.6700020  22.0143661
  76.6658554  58.6970253  55.3208618  77.1193008  58.3206367  54.5665741
  76.0161057  59.2875023  54.9395523  56.6481857  71.3402634  41.4292755
  56.7690086  71.8068390  42.2562790  55.6988716  71.2998810  41.3135262
  13.0619583  51.6421776  72.3607330  12.2705011  51.3094215  72.7839432
  12.7914400  51.8320656  71.4624100  40.5698166  61.5720711  19.1065025
  39.9671173  62.3081665  19.0009041  41.3576050  61.8375740  18.6320229
  57.6796265   3.9816120  27.8668537  57.6722450   4.1250658  28.8132133
  56.7548103   3.9342360  27.6245651  71.1998062  19.1405602  75.5919724
  71.1399078  18.2038956  75.7798691  71.1393280  19.1979027  74.6384048
  50.3114395  63.8832054  83.9938583  49.8747292  64.4617920  83.3687515
  50.7712250  63.2448654  83.4485626   6.8575220  70.5900269  43.2987137
   6.3589082  71.4020233  43.3897095   6.3981328  69.9629974  43.8573036
  24.8639526  62.0655441  49.8188019  25.0660229  61.2826843  50.3311768
  24.7745667  62.7614670  50.4699059  25.4645710  30.7999210  10.0412197
  25.5268383  31.3998852  10.7844553  24.8369198  31.2154369   9.4499235
   2.7595186  58.3421211  72.7502899   3.4698029  58.1339417  73.3572388
   2.3457868  59.1203537  73.1236572  66.5251236  31.3364334  56.2761192
  66.0976257  31.7527790  57.0245399  67.2947617  30.9062462  56.6487198
  73.5970840  22.6076527  17.4576435  72.8845367  22.1472321  17.0143394
  74.3818359  22.3636208  16.9668846  34.4386749  26.4977341  30.2923374
  33.8951492  25.7858677  30.6300602  35.3361511  26.1774139  30.3826904
  75.2169189  11.2845383  51.0729103  75.6163864  10.4986582  50.7000160
  75.1005249  11.8715668  50.3258591  45.1849594  39.5264816  86.1458435
  46.0627670  39.8030472  85.8827820  45.3150978  39.0805092  86.9827423
  63.8089676  65.6221771  58.9597015  64.4296188  65.8344421  58.2625847
  64.3493576  65.5440521  59.7458992  76.8362885  67.8938217  30.3591919
  77.1098709  68.3616486  29.5701885  77.0442886  66.9771652  30.1783676
  62.6808701  46.1989326  15.4330721  62.4551582  46.8466377  16.1007271
  63.1701279  45.5266418  15.9072943  60.6269989  20.5213165  76.7230301
  59.8038826  20.1202202  76.4440460  60.4889565  20.7342281  77.6459885
   6.0840144  21.2140884  82.3781891   5.9850688  20.2622795  82.4005280
   6.2879372  21.4123039  81.4642105  60.6566429  63.9281578  16.8549614
  59.9253998  63.4693718  16.4414024  60.4538994  63.9079514  17.7902241
   6.7102866  42.6736641  77.7630844   6.1927867  42.0109787  77.3056183
   7.5988584  42.3179321  77.7743683  26.7370720  64.3351746  41.8867149
  26.7035236  64.1581955  40.9466171  26.8487854  65.2838516  41.9480057
  59.3821144  28.9804459  67.4539642  59.5458755  28.3452244  66.7568970
  60.1325455  29.5736046  67.4186249  33.9634857  44.6184273  15.3022623
  34.6513023  45.2839775  15.2887526  34.1278725  44.1203270  16.1029530
   3.4940109  56.7485504  46.6539688   4.4139371  56.6784515  46.9090271
   3.0383623  56.9821281  47.4627075  22.6967525  70.2263336  37.4711456
  22.8663216  69.3001175  37.6432228  23.4824371  70.5336914  37.0189743
  42.6401520  50.2220879  73.6546249  43.3887024  50.3232384  74.2425613
  41.8856888  50.1445618  74.2385864  73.6834335  45.4288368  53.0281754
  73.6905060  44.6312599  53.5573769  74.6029663  45.6893959  52.9753532
  79.1959229   2.7211630  74.8650589  80.0905991   3.0509968  74.7814102
  78.9006042   3.0431147  75.7167435  60.5434952  25.3152828   1.8170527
  60.9302673  24.5662766   2.2705159  60.3376808  25.9374771   2.5147257
  55.9074860   2.7041540  19.2159634  55.5883102   2.8673284  18.3284206
  55.6327477   3.4736776  19.7145481  60.7168694  33.0921478  78.5208511
  60.9874916  32.4798088  77.8367157  61.4374275  33.0811272  79.1508560
  62.1838951  41.9220924  82.0656967  61.9411545  41.2242622  81.4571457
  61.4453812  42.5304794  82.0393753   8.7558746  63.0346985  64.7427139
   7.8242211  63.1659966  64.5666046   9.0169525  62.3361855  64.1425858
  40.6396370   9.8474360  86.2882690  41.1845894  10.2920847  86.9375381
  39.7419815  10.0643988  86.5400085   2.6736994  19.1991711  75.0744247
   2.4880528  20.1360836  75.1373672   2.3750181  18.9541264  74.1986542
  75.9384689  41.8580894  40.7506065  75.4323425  41.1566277  40.3407059
  76.7138901  41.4202652  41.1017075  20.3157940   2.5412726  71.3725052
  21.1469631   3.0160246  71.3733292  20.3031044   2.0791352  72.2106628
  76.1263733  37.6280746  65.1617737  75.5546722  37.2149887  64.5146637
  77.0081100  37.3486176  64.9154663  19.3108959   5.4488816  45.9428177
  19.6605015   4.6388292  45.5715714  19.8693275   5.6259894  46.6997986
  51.1067276  33.3740997  26.3635387  51.6323357  32.6570473  26.0088520
  51.6286201  34.1589508  26.1966152  86.2641068  54.8115158  32.7826958
  85.4309006  55.2087440  33.0360794  86.3726959  54.0768852  33.3866501
   8.8134203  52.1904716  45.7735291   8.7351255  52.9375267  46.3668327
   7.9697204  51.7431374  45.8390388  49.3979225  22.6435680  29.7800961
  48.9154358  22.1784401  30.4635391  49.2064896  23.5679398  29.9385967
   1.5458961  48.6455803  65.5866470   1.4003736  49.3132668  66.2569046
   0.7032627  48.1985283  65.5069885  12.3987999  65.3492813  48.8843575
  13.2469091  64.9090652  48.8282127  11.7615767  64.6365128  48.9306259
  85.7824860  18.8593960  13.0341253  85.4705734  18.0516682  13.4421864
  86.6473312  19.0033283  13.4182711  21.2897263  69.8389511  53.7843285
  20.5544682  69.4650803  54.2699661  20.8803139  70.3659515  53.0981178
  73.6743546  35.7503700  34.1788063  74.5244751  35.4882431  34.5320930
  73.0366974  35.3770447  34.7872887  73.9259491  46.7238846  58.1013489
  74.2374954  47.4321556  58.6648445  73.9566269  47.0899315  57.2174377
  25.2924938  68.1203613  34.2826424  25.7494488  67.2898483  34.4155884
  25.6647663  68.4717636  33.4738388  32.8363075  68.4495850  48.4224014
  32.0732765  68.5034561  48.9978256  33.2661552  69.2998810  48.5143700
  75.6100845  29.9378815  19.4371719  76.0832291  29.1071205  19.4840851
  74.9319534  29.8655605  20.1088428   0.8270026  15.2465038  31.0241947
  -0.0721570  15.2898426  30.6988239   0.7403689  14.9426813  31.9277534
  26.4827003  13.5426083  53.9696312  26.2192097  13.6853170  54.8787193
  25.9894485  12.7693100  53.6958733  81.9413605  23.6348553  59.7032127
  81.4691391  22.9095268  59.2943878  82.8097076  23.6122360  59.3011131
  80.9360123  34.1957512  64.0291824  80.5552826  34.1092873  64.9031372
  81.1269913  35.1296844  63.9424515  85.7789536  37.5477791  29.2018433
  85.7732315  36.7552261  29.7385540  85.7469254  37.2269516  28.3005810
  31.3589077  46.7869034  81.2604218  30.9408340  47.3610420  80.6186981
  32.2960777  46.8769531  81.0876923  68.1448288  64.4341507  51.7821045
  67.5913010  64.3159637  52.5540276  68.9516602  64.8203888  52.1228027
  73.2629089  22.7063713  31.8515072  73.8390884  22.9839611  32.5636826
  73.7706146  22.0497150  31.3747826  55.6058426  29.9263077  87.1747131
  56.1152725  29.9299202  87.9850845  55.6957932  30.8152428  86.8312988
  66.7137222   1.3071491  66.5553513  66.8180618   1.2230232  65.6075821
  66.5321579   2.2365744  66.6947632  37.1528778  50.6455650  87.5097122
  36.7883606  51.5301628  87.5386887  37.9996033  50.7208939  87.9497299
  25.5380707   7.1933260  23.0952091  25.2708015   7.8949080  22.5014229
  26.0382786   6.5910268  22.5445194  65.5966797   9.0840330  32.7887383
  66.0258865   8.2587748  32.5629845  64.7181396   9.0067024  32.4166832
   5.6687398   0.7883232   9.6081533   4.7535539   0.9825034   9.8105402
   5.6362286  -0.0312115   9.1146584  57.5436478  65.2402954  31.2226334
  57.5976944  66.0774384  31.6836147  58.2546272  65.2729874  30.5825787
  67.1390915  28.8792362  32.6137657  67.0001373  28.1062012  32.0666466
  66.7955704  29.6056690  32.0936508   6.2722645  61.2403412  50.0007095
   6.6362419  61.0766296  49.1306801   6.1744623  62.1915321  50.0443153
  56.6457291  24.1503887  61.6247864  55.8336258  24.2819653  61.1354942
  56.5924988  23.2477894  61.9389725   5.6453519  12.0485363  64.1536255
   4.9266438  11.9428415  63.5303078   5.4033194  11.4931297  64.8946838
  16.9331894  57.8952942  73.8812561  17.4960728  57.2484741  73.4557877
  16.5869675  57.4425850  74.6502914  75.8722916  38.4520721   9.0974197
  76.2621689  39.3066940   9.2814007  75.9012222  38.3759308   8.1436920
  76.9009323  12.9497776   5.4286203  75.9542770  13.0571098   5.5211840
  77.0070190  12.0781727   5.0474606  49.0800629  22.4084797  20.1778336
  48.5564575  21.8103943  20.7110939  48.5120850  23.1666241  20.0405273
  85.8466797  40.8988075  52.9615784  86.4915085  41.3967056  53.4640961
  85.7156525  40.0970840  53.4678421  62.4257050  67.7435608  77.4939804
  62.8375397  68.5458527  77.8148270  61.8194695  68.0404053  76.8153076
  23.7694988  60.5778618  12.4085274  24.3107166  59.8304100  12.1542969
  23.5734291  60.4280434  13.3333750  71.9047012  58.7426186  70.4907379
  72.0312424  58.5750732  69.5568542  72.5262604  59.4412842  70.6951065
  73.3171082  57.5946121  60.6673698  73.5179443  57.7371445  59.7423935
  72.3719788  57.7320824  60.7311935  86.2926941   7.5934916  28.4620934
  86.8959732   7.4705272  27.7291813  85.5639267   7.0020065  28.2742691
  27.7757301  64.4124298  46.6414261  27.5564480  65.3423538  46.6996536
  27.0057030  64.0094299  46.2403259  14.1426191  34.5707664  29.4841194
  14.8863010  34.4684753  28.8902283  14.5389109  34.6625900  30.3505802
  34.2524147  13.5248404  40.0820045  34.4090347  14.4571943  40.2317276
  34.6193237  13.3566923  39.2140579  64.4515991   8.6032076   2.4464877
  63.9469948   7.7898355   2.4411912  64.1113434   9.0912828   3.1963129
  80.4140015   9.9683619  37.9045792  79.9911194   9.5505981  38.6548309
  80.9365540  10.6736813  38.2862854  64.7613983  10.0849962  52.7940826
  65.6731873   9.9125357  53.0288658  64.2552185   9.4873581  53.3443947
  12.7131147  12.4281101  56.3396721  12.6390791  12.6287642  55.4066734
  13.6261492  12.1655102  56.4564705  13.0666571  17.1357460  33.1429977
  12.4195423  17.0327187  33.8407478  12.7068739  16.6398773  32.4075356
  55.4300652  22.4158306  68.3207855  55.4069633  22.6002827  67.3818130
  54.5616608  22.6668053  68.6356125  76.1967926  15.3831606  39.5140114
  76.1218033  16.2001228  40.0071487  77.1379852  15.2138147  39.4727783
  10.1341372   9.0458174  55.4600792  10.7581329   8.3341560  55.3172531
  10.1429901   9.1856966  56.4069595  42.1595497   7.6323709  59.1967201
  43.0091591   7.5299482  58.7678795  41.7311363   6.7836819  59.0852623
  42.8790245  64.0559692   0.5653934  43.1054382  64.0214386  -0.3640022
  42.0461121  64.5269241   0.5916628  83.8123550  58.9820213  10.2957230
  83.4723129  59.4419365  11.0632381  83.2110062  59.2178040   9.5893087
  29.3123760  71.3523483  59.4003029  29.9914017  70.6975479  59.2378578
  28.5073280  70.8436508  59.4970131  49.7194633  12.3802824  54.9090538
  49.6229095  13.2107944  54.4430504  50.6644897  12.2312021  54.9395294
  40.3039284  61.4663811  49.9686089  39.7690392  61.9792213  49.3627052
  41.1721077  61.8664398  49.9191780   9.2857170  15.6680222  64.8967285
   9.0087032  14.9847651  64.2862701   9.7491007  15.1969528  65.5892563
  52.4992638  14.0721045  19.5837803  53.3447075  14.0336418  20.0309696
  51.8950653  13.6227140  20.1747341  66.0608521  53.1885872  86.1669159
  65.9146042  53.8779373  86.8147125  65.2134094  52.7506332  86.0877380
  38.5279999  18.7563782  69.4614410  37.8451157  19.4100437  69.6118546
  38.0892601  17.9163494  69.5959473  11.1008377   2.8320041  74.4587479
  10.4339123   2.2285299  74.7862549  11.5997629   2.3165820  73.8249893
  60.6558380   7.9009032  12.3606434  60.8388138   8.6974707  11.8624144
  60.4412842   7.2465405  11.6958055  51.6626892  16.3298168  21.5625076
  51.5694923  15.5739908  20.9826164  52.4007454  16.8200302  21.2003002
  66.7020874  69.4860001  30.3315830  66.4870453  68.5547028  30.2799530
  67.1531982  69.6736374  29.5084648  81.8207397  71.4701385  82.2199783
  81.8102112  70.7994232  81.5371475  82.3765945  71.1032944  82.9074936
  32.3716278  57.0171432  39.8278046  32.4209061  56.2625847  39.2409096
  33.0773621  57.5941467  39.5358582  42.3762169  20.3780174  51.0752716
  43.1500626  20.8253670  50.7328148  41.7580566  21.0828209  51.2685623
  74.7857971  20.0177383  10.6304369  75.2721710  20.4873447  11.3080378
  74.8820038  20.5597744   9.8473835  71.1937256  34.3783073  47.3120308
  71.7352066  34.3246918  46.5245285  70.7003860  33.5580711  47.3197784
   9.3895578   8.9441166  89.0073853  10.0126886   9.0060730  88.2834396
   9.5543423   9.7270012  89.5329056  72.5155716   2.6707947  65.7840347
  72.2330093   3.5342093  66.0855408  71.9987488   2.5119565  64.9941635
  25.4838371  58.5081406  10.2842236  25.3547688  59.2178116   9.6549864
  26.3618698  58.6562004  10.6354599  82.1646194   4.4091358  84.5635223
  82.3031158   5.3484025  84.4417572  81.2964325   4.3446560  84.9614410
   4.4059877  12.1398277   5.3262453   4.1308174  11.7115393   4.5156393
   3.6027167  12.5217695   5.6799507   6.2860460  53.0048943  87.1170578
   6.4382391  53.7840538  86.5822906   5.5640402  52.5523796  86.6809769
  32.6036530  20.2052841  13.2896519  32.2206688  21.0640335  13.1104755
  33.3435020  20.3890514  13.8685160  33.9832382  70.8375778  83.4926834
  34.0327911  69.9698639  83.8937378  34.7323875  71.3114853  83.8538132
  60.6830978   0.5409117  39.0680504  61.1531601  -0.1704462  38.6330261
  59.7864151   0.2174616  39.1550674  66.1200867  58.8974991  42.8269272
  65.4294510  58.3674393  42.4290771  65.8733978  58.9587860  43.7497597
  19.4655285  57.0921211  51.1273499  18.8776016  56.3620377  51.3211441
  19.7287426  57.4222069  51.9864120  74.4799805  58.8247375  77.0722809
  73.8764496  58.3670845  76.4870148  75.2294846  58.2347755  77.1524277
  70.8229904  61.4871559   8.4851885  69.9628677  61.1021919   8.3171806
  70.8583450  61.5885887   9.4363422  39.8131752  59.2088089  24.0092068
  38.9145203  59.4938393  24.1747570  39.8391609  59.0326500  23.0687160
   3.2829304  18.0065823  55.4977531   2.4396203  18.4509945  55.5846901
   3.5117142  17.7500839  56.3911171  67.0831604  37.7134628  78.0839005
  67.8225021  37.7194595  78.6918259  67.4813309  37.5791092  77.2238693
  51.3208199   1.0869633   1.6191804  51.8823967   1.8574754   1.5344782
  50.4413948   1.4085473   1.4206144  75.2660522  23.0608177  59.4441071
  74.4569397  22.7576561  59.8560066  75.3251648  23.9855251  59.6842232
   1.0375497  64.5220871  18.7687416   0.1536009  64.5418243  18.4020309
   1.5653986  65.0251541  18.1486320   6.4607506  61.8236618  72.1801300
   6.2420406  61.1502304  72.8242416   5.6491818  62.3180923  72.0655670
   5.9139171  20.1686211  15.9038458   6.8497682  20.3694439  15.9130630
   5.8253822  19.4129353  16.4846478   6.1042557  69.0952148  15.2582464
   6.7607827  69.4612122  14.6655827   6.3364325  69.4451828  16.1183910
  67.0221786  31.5935650  85.7903366  67.2647705  31.0175991  85.0653229
  66.2856522  31.1507702  86.2118683  66.5774231  33.1161423   8.9536667
  67.0769882  33.2604561   9.7573061  67.2193909  33.2180824   8.2510147
  40.9740524  51.6979561  83.7584229  41.8184814  51.6026077  84.1989670
  40.8735428  52.6418228  83.6349564  53.5280647  68.2314224  15.6904154
  53.7410965  68.0673599  16.6090736  53.6924286  67.3957672  15.2535009
  30.1793900  16.2358170  23.8507118  29.7999783  15.4207592  23.5221443
  30.4961758  16.6854420  23.0673122  71.5695496  50.0894318  70.6678391
  72.1482773  49.8149643  71.3791580  72.1601105  50.4343605  69.9981461
  17.7896957  65.1838074  65.1639557  18.4201164  65.8560486  65.4225998
  18.0510788  64.4072495  65.6587982  36.2704048   1.5745379  66.7613754
  35.6334496   1.4235815  67.4597549  37.1156883   1.6009086  67.2097397
  54.0402985   4.4795494  37.7866707  54.6070938   3.8361890  37.3611565
  53.2776527   3.9758761  38.0711288   9.9830704  34.5511818  79.0828781
  10.1486130  35.3662300  78.6090393   9.2004547  34.7316055  79.6036377
  58.9967194  54.1920128  81.6144333  59.3502769  53.4170532  82.0510864
  59.2751617  54.1014023  80.7031250  41.3893356  59.9818268  32.1647873
  41.9281197  60.0882530  31.3808136  40.6083908  59.5211449  31.8579807
  12.0095539  14.3403873  24.3427925  12.6638699  14.0894003  24.9947948
  11.9293814  13.5730419  23.7762375  61.3233452  50.3595352   5.7637219
  61.5860252  49.7711220   6.4715357  60.8623886  51.0734024   6.2043371
  74.0599823  38.2634697  28.8986721  74.5139160  37.4599876  29.1528301
  74.5021591  38.5452995  28.0978680  36.5432281  63.6929932  42.5480385
  36.0669098  62.9053802  42.2853279  35.9389038  64.4116135  42.3619766
  74.5375443  34.3076286  48.6646042  75.3166504  33.7664185  48.5368805
  73.8054962  33.7253876  48.4613075  31.6670818  11.7888937  47.3525009
  32.6010780  11.7913065  47.5619621  31.2305717  11.8075018  48.2041702
  81.6329041  61.6334000  60.7336884  82.4336472  61.6516762  60.2095680
  80.9248352  61.6420517  60.0896378   8.6890516   2.9216421   3.7088108
   7.9045711   2.3734436   3.6914811   8.3712330   3.7864501   3.9682913
  10.1832476  59.1055527  43.9276543   9.7791243  59.9150162  44.2401924
  10.5953770  59.3482208  43.0985031  34.0762825   2.9200408   1.5810097
  33.9557076   1.9705534   1.5939089  34.1452942   3.1652694   2.5036867
  33.1672096  34.2590828   4.9683132  32.3126755  33.8380928   4.8746543
  33.4916267  33.9564590   5.8164902  44.7851334  15.4593344  41.7933159
  44.1705933  16.1582870  42.0170135  45.0691566  15.1106234  42.6382790
  19.0786629  40.6310158  10.4697857  18.8452282  41.2549706   9.7824583
  18.6815109  40.9893913  11.2635546  15.9945650  69.1318512  65.0434570
  15.9655685  69.7104568  65.8054352  15.6990128  68.2839966  65.3751526
  12.8677006   4.8326821  13.6430311  12.9676428   5.7841668  13.6126842
  12.5896454   4.5927458  12.7590923  18.7954617  46.8046074  32.8365860
  17.9628620  46.8717308  33.3040314  18.6135159  47.1678734  31.9698906
  60.7140694  40.6848488  71.3023148  61.4017792  40.7847443  70.6440506
  59.9526482  41.1224060  70.9215240  58.4455452  32.7866745  66.5383224
  58.6173668  32.9938011  67.4569168  59.1626091  32.2050667  66.2857666
  60.7555428  56.6384087  52.7492332  60.4403877  56.5535965  51.8493881
  61.5413933  57.1802139  52.6777115  68.2451782  28.1384487  21.8650150
  67.4918900  28.1272030  22.4554901  68.6023865  29.0224934  21.9492874
  16.2211647  14.2985592  44.6262283  15.6519098  15.0346689  44.8505554
  15.7475128  13.8303347  43.9387321  19.4637737   4.0392022  49.3887482
  19.0854836   4.9163594  49.4497757  18.7880554   3.4617102  49.7439156
  12.4801683  51.7143402  45.7845688  12.8223829  50.8605194  45.5197830
  11.8913870  51.5206566  46.5139885  44.3327637   0.6257617  17.4066334
  44.3254395   0.7348208  18.3575726  44.5906334   1.4835738  17.0691509
  61.2510986  35.7039566  13.7037172  60.8152161  35.0666771  13.1379366
  62.0293846  35.2475586  14.0234089  14.7923164  67.1242371  71.5163269
  14.5193300  66.3964691  70.9576950  14.9204473  67.8552322  70.9117966
  56.7980766  16.7377968  67.0046158  56.4499092  15.9691477  67.4564896
  57.5774536  16.9777050  67.5058594  18.3258991   4.0446177  80.0551071
  17.8508644   4.0067596  79.2249680  17.9479809   4.7952647  80.5132980
  37.2185478  62.3484917  54.4502525  37.2030754  61.4244194  54.6994133
  38.1469841  62.5813713  54.4514580  26.1756516  43.1375046   9.1365862
  25.5334759  42.4388962   9.0109310  26.0502510  43.7162132   8.3845186
  31.9959831  22.8861465  14.3654661  31.5528297  22.3261776  15.0028687
  32.2703285  23.6522274  14.8695383  35.1899910  19.0450249   8.3753452
  35.0338135  19.8629799   7.9033375  34.6652184  18.3949566   7.9081683
  42.6661682   6.6848764  13.1828070  41.7783394   6.8682957  12.8756351
  42.5769844   5.8941059  13.7147474  79.7110672  29.5962791  75.4139862
  79.8582382  29.2453384  74.5356827  79.3951263  30.4876232  75.2659225
   9.8375874   4.7579150  50.0295486   9.6051455   5.5974431  50.4262772
  10.7131910   4.5680552  50.3664513  66.2844696  61.5388222  52.4807777
  65.4254913  61.2061768  52.2205162  66.8767395  61.2377472  51.7917175
  80.1171036   5.4866319  19.4136505  80.1169281   6.3916507  19.1019268
  80.0534210   5.5612597  20.3658104   9.3353481  57.2978134  73.6031265
   8.6427002  57.9211693  73.3842697   9.0650749  56.4818459  73.1819687
  65.8517990  50.3378792  40.7798157  65.2213287  49.8627777  40.2385025
  65.7830200  51.2463112  40.4861374  81.5080643   0.3307015  59.4667206
  82.0577621  -0.3874921  59.1532516  81.6010818   0.3054458  60.4190559
  82.2688599  23.9262695  64.6946869  82.7116089  23.6548786  63.8906097
  82.3758011  24.8771973  64.7177429  32.1448631  59.0402336  19.2950459
  31.3879051  59.3989868  19.7582321  32.1958542  59.5514908  18.4874268
  26.1319561   2.7261765  80.5907745  26.6521206   3.5105245  80.4162521
  25.3493652   2.8325469  80.0499725  69.8238907   2.6011753  59.7936096
  69.8198013   1.7722367  60.2722282  69.1575394   2.4895368  59.1155663
  19.6508236  58.9986725  88.2624130  19.3744698  59.9061432  88.1344986
  19.5425415  58.5918846  87.4027481   4.6081467  45.8834610   8.7422495
   4.7838831  46.7300720   8.3316402   5.3846135  45.7095337   9.2743015
  28.1233616  52.8870964  31.8095226  28.7432194  52.2666359  32.1929817
  28.6398163  53.6785240  31.6573811  32.0856133  56.6854515  56.3902130
  31.2914314  56.4253731  55.9234505  31.9505005  56.3735886  57.2850418
  75.8772278  68.8556900  13.3193245  75.4987488  68.0162964  13.5808802
  76.6888580  68.6224289  12.8686743   4.5587673  42.8553429  87.6338425
   3.6563492  42.6754341  87.3702011   4.4760795  43.3471336  88.4508743
  78.6982651  49.1667747  30.9131546  78.7876892  48.2285690  31.0805054
  79.5969543  49.4962883  30.9103031  33.4367714   5.9195194  58.7498512
  34.2480125   5.7419376  59.2258606  33.3015175   5.1417336  58.2085686
  86.7293549  36.1438370   1.4139807  86.3412857  35.2718544   1.4866166
  86.0526962  36.7353363   1.7433652  18.9666615  13.0873919  51.5828323
  18.3281670  13.5222292  51.0176125  19.0970097  12.2286625  51.1805573
   1.6641229  33.2278404  47.3130074   1.0070080  32.7920647  47.8557167
   1.1564647  33.7867661  46.7246933  80.9899445  18.1042957   6.4822502
  81.7310715  18.3526592   5.9297357  80.5499725  17.4082870   5.9941597
  54.2223473  71.1628571  71.3570938  53.4489555  70.7652435  71.7570953
  54.8911819  71.1264038  72.0408859  60.8968468  19.8827114  54.8175163
  60.2908287  19.4048252  55.3837280  61.1998672  19.2301617  54.1861763
  13.0032988  46.1615868   3.5189595  13.2874537  45.7399826   4.3299694
  12.3392029  45.5716782   3.1622880  68.7870026  42.5277786  36.0475655
  69.3658829  43.1135063  36.5354805  69.2491379  41.6896133  36.0355911
  11.4060135  55.8729057  62.8274879  11.2738485  56.1737022  63.7265320
  10.5213690  55.7733955  62.4757271  57.5133591  52.9883461  86.0240402
  57.4686012  53.7242279  85.4135513  58.3052483  52.5143356  85.7701569
  71.4719009   5.1675014  85.1509399  71.6213531   6.0404420  85.5140839
  71.2514877   4.6270161  85.9095688   8.8889513  51.8532524  84.9903793
   8.7583342  50.9961853  84.5846710   9.6580400  51.7392426  85.5487137
   3.2136540  45.3563652  31.9628162   2.9230855  45.6493988  31.0991421
   2.6947396  45.8739891  32.5784683  19.6621666  27.4706001  32.9666862
  19.6647758  26.5803146  33.3182831  20.2682152  27.4375801  32.2265205
  38.7764206  61.4419022  36.8918610  38.6043549  62.2758369  37.3291016
  37.9429932  60.9730072  36.9338684   8.3557873  71.4907303  78.2958069
   8.0812082  70.6041946  78.5300903   7.7420683  71.7586670  77.6118546
  62.3103828  67.3381424  35.7452736  62.8893929  67.0223999  36.4390221
  62.8522835  67.9419403  35.2373276  64.3845139  65.6767578  53.9990883
  64.7108536  66.3171921  54.6312103  65.1427460  65.1266785  53.8022766
   8.6238384   6.4073243  25.7621708   9.2350521   6.9685864  26.2392826
   8.6790390   5.5611963  26.2063026  14.5333977  18.2220936  83.5775146
  13.7116814  18.0538960  83.1162949  14.4262161  17.7879868  84.4238586
  65.8630753  26.6172333  27.0587063  65.7079086  26.2246971  27.9178181
  65.0368500  26.5010872  26.5895596  35.1594162  54.6441917  81.3331680
  36.0827484  54.8284073  81.1606674  34.7052269  54.9360275  80.5427399
  31.6314182  35.6495514  10.8377123  30.6935921  35.6188774  11.0268507
  31.7056751  35.3233604   9.9408770  11.5425949   5.6731033  26.1646500
  12.2218771   6.0744557  25.6226864  11.4936838   6.2319589  26.9402275
  37.5830879  25.0501175  80.1210022  38.3539696  25.2356415  79.5847626
  36.8499260  25.4024925  79.6164856  57.1516342   4.8186555  52.7943459
  57.6246948   5.2180123  52.0643044  57.2905121   3.8780539  52.6838341
  22.2257156  43.1020470   5.0730510  22.0508518  43.3356056   5.9847007
  22.3716583  42.1562271   5.0918775  82.4074402  54.9204292  28.5140495
  83.1931381  54.3778763  28.5814667  82.1447067  54.8484802  27.5964298
  83.0409698  67.2974472  73.0703659  82.6657028  68.0846863  73.4649124
  82.5562668  67.1849976  72.2526550  24.1044445  28.5242081  32.1391220
  24.6677151  27.8016682  32.4164238  23.3330212  28.0971622  31.7666035
  53.2772255  41.3521690  19.6154823  53.8245239  40.7735367  19.0845585
  52.7736130  40.7597809  20.1737709  67.1878204  61.0268669  12.5744276
  66.5639648  61.5820541  12.1066570  67.0628662  60.1559258  12.1974916
  10.2916431  19.1084709  11.1599398  10.1386671  19.9807644  10.7967091
  11.2109747  19.1178093  11.4263525  48.0778313  42.9095078  20.6487675
  48.1949768  43.4406166  19.8610935  48.8507271  43.0972099  21.1813374
  50.2579498  19.1923275  27.9737720  49.5737457  18.5587406  28.1897869
  50.8300018  18.7280674  27.3626652   5.1471462  27.6366062  71.8178787
   4.6271262  27.0569077  72.3744431   5.0167680  28.5080471  72.1918106
  80.0399857  34.8567505  53.1156883  79.3354721  35.2871513  52.6312828
  80.5958939  35.5747643  53.4184380  37.8567810   9.7935505  51.8969345
  37.6817131   9.8851080  52.8335266  38.0608063   8.8655605  51.7810059
  12.4277525  22.3683853  10.4440269  12.3993435  23.2771759  10.1448212
  13.3204851  22.2509422  10.7687826  83.3446426  45.0415344  38.2223930
  83.2166138  45.9865875  38.3043556  83.8275604  44.9354477  37.4027863
  44.0434532  31.6118145  20.4069977  44.1265373  31.7497540  21.3505554
  44.6654358  32.2274628  20.0192528  39.2078514   8.2683058  17.2278633
  38.6820946   9.0413303  17.4333992  40.1138458   8.5664759  17.3085194
  46.9230080  40.0008736   4.8963494  46.5251579  39.1449318   4.7372656
  46.1973648  40.5512657   5.1908703  42.1540375  58.3620148  56.9184723
  42.3600731  58.2407722  57.8453407  41.9575577  57.4811440  56.5995750
  60.1827812  20.1245937   4.1147881  61.1337280  20.0611401   4.2036948
  59.8706093  20.3024063   5.0020108   6.4731069  32.8943939   0.2686246
   6.0106306  33.5837059   0.7452756   7.3856845  32.9842453   0.5431435
  17.7869549   7.4090352  61.9947739  18.0534458   8.0826483  61.3691063
  16.9402294   7.1023560  61.6703720  14.9083481  12.4491491  87.3317947
  14.0439491  12.6566906  87.6867142  14.7603731  12.3332787  86.3932266
   6.4633899  62.8859100  32.0946693   7.0330157  62.5896339  31.3847542
   6.5449958  63.8395767  32.0850906  16.7331867  67.4787445  47.8088074
  17.5889301  67.2929916  47.4222450  16.5443974  66.7133560  48.3517380
  22.3193703  59.1849442  66.4199219  22.0458755  59.1766853  65.5026627
  22.6957874  58.3169746  66.5654373   9.7039833  18.6565552  72.1029968
   9.0938301  18.5302372  72.8296204   9.3063984  19.3480377  71.5738373
  14.6625948   4.5297151  79.2521820  15.2030420   4.9692907  79.9086304
  15.2893448   4.0624986  78.6997986  75.4556198  47.3649178  48.2268028
  75.1042938  47.7113190  47.4065552  75.1565247  47.9817123  48.8948898
  75.9829712  55.1467705  64.2234802  76.5833817  54.4042816  64.1567459
  76.4344177  55.8610268  63.7737389  60.6591682  36.5520782   8.1194620
  61.3086357  36.4500542   8.8151731  59.8912430  36.9158249   8.5601530
  41.0301018  71.3225250  18.3594284  41.4900360  72.1237488  18.6098976
  41.4320984  70.6383057  18.8946629  69.2618790  22.3724556  73.7025528
  70.0850296  22.7899666  73.4489136  69.3320160  21.4796925  73.3644943
  45.1092987  18.6774082   8.7020283  44.7941589  19.5756798   8.6018867
  44.7493629  18.3894310   9.5409231  74.7368698   8.4756937  17.5573521
  74.0710602   8.5830927  18.2366066  74.4403305   7.7211547  17.0484638
  52.2568016  10.9845591  45.8897438  51.3204498  11.1787891  45.9316216
  52.3158455  10.2091875  45.3315811  49.9163132  69.3358383   0.9451476
  50.8038940  69.0208206   0.7743006  49.7563286  69.9845581   0.2597276
  16.1392097   6.0726137  81.3659668  15.4019880   6.6474786  81.1603775
  16.3206329   6.2373734  82.2912598  37.6999893  29.8252602  23.4683781
  37.4486313  30.4326553  24.1641655  36.9780502  29.8674126  22.8412743
  83.6976471  39.0786667  49.4842491  83.9318161  39.9773140  49.7162552
  83.9606018  38.9915810  48.5680046   6.1806169  45.8517113  45.3573837
   6.4305139  44.9292259  45.4103966   6.9435415  46.3259087  45.6880035
  70.9415283  64.9964371  40.8658600  70.1129074  64.9134521  40.3939133
  70.9072418  65.8687592  41.2584381  58.8097610  34.4739876  89.3806229
  59.2078857  35.3317680  89.5287323  58.2720909  34.5914917  88.5974655
  25.1402187  21.2465153  86.2708893  26.0330753  21.1695576  86.6072235
  24.5833664  21.0188904  87.0154266  48.0057869   2.4734681  66.8635788
  47.8645096   2.7318113  65.9527969  48.6580849   3.0933323  67.1899414
  64.8152618  19.5885429  58.2882080  64.7444077  20.2509155  58.9755745
  65.5104065  19.9116573  57.7149658  79.8088989  50.1842155  11.5498362
  80.6926193  50.5515518  11.5312366  79.6513672  49.9858170  12.4729033
  75.5877533  10.6007299  67.5011368  75.1360321  11.2928677  67.9839706
  76.4431458  10.5319567  67.9251709  56.0405502  54.6923676  25.8882294
  55.9206352  55.6375885  25.9799042  56.6125526  54.5962410  25.1267815
  62.2896614  10.6006680  74.8520203  62.4548454   9.6746731  75.0294495
  62.0772362  10.9742393  75.7073288  74.5757294  54.0339432  11.3449535
  73.6910858  53.7564850  11.1069317  74.4435425  54.7812157  11.9283428
  14.2660580  51.8283539   3.2819161  14.4016457  51.9753113   4.2179990
  14.7333727  51.0136566   3.0972135  57.8575897  62.3425522  77.0758514
  58.6207771  62.3378868  77.6535645  58.0356255  63.0441170  76.4494781
  64.7578201  35.1162376  55.7012138  65.2667389  34.8766174  56.4756927
  64.3507156  34.2970886  55.4192657  30.5788593  66.0161057   1.9748335
  30.5190926  66.9283142   2.2586379  30.6650448  66.0666046   1.0228598
  28.1332092  39.8208275  14.4421663  28.6073055  40.1565895  15.2029076
  28.5427036  38.9752998  14.2587862  36.1132545   9.5379686  83.6699677
  36.3819466   8.9953136  84.4112930  36.7195206   9.3016243  82.9679642
   3.5099766  40.4715500  14.9200792   2.8655956  40.7547874  15.5687561
   4.1952319  41.1389084  14.9559727  60.5554085   6.9347329  73.4204254
  60.5821800   7.8678503  73.2087479  61.2878685   6.5574913  72.9331665
  59.3477325  41.6262856  35.2078400  59.7148743  40.8126984  35.5535507
  58.8406601  41.3542213  34.4429283  32.6123657   4.2194166  56.9975433
  32.6822281   3.2835875  56.8089294  31.7211094   4.4505930  56.7359200
  57.6547661  10.9368362  30.0052776  58.0433388  10.0666742  29.9154816
  57.8920021  11.3897486  29.1960678  84.8273773   3.9211981  82.4725266
  85.2724533   4.2414579  83.2571106  83.9492950   3.6877728  82.7737198
  73.7839050  56.4505005  27.6625290  73.5249405  57.3702126  27.7199535
  73.2994003  56.1118088  26.9096851  52.5357246  50.3312645  39.5994682
  51.8236771  49.8275871  39.9938393  53.3216133  49.8144608  39.7770233
  23.5916481  59.9387131  37.4209404  23.0440331  60.6687469  37.1321526
  24.3327980  60.3547783  37.8611870  45.7765884  61.1132698  12.7886629
  45.4621925  61.5404854  13.5854521  45.8875275  60.1954727  13.0368023
  45.4990578  50.2522583  20.4540157  45.1308899  49.3775520  20.5788212
  45.0273094  50.6052856  19.6996593  22.5235119   0.9898968  39.1139069
  22.6293335   0.2388306  38.5300140  22.4782753   1.7448714  38.5272255
  70.6671600  60.5294800  21.5960655  71.3769760  60.3979225  20.9675121
  71.0729904  61.0079651  22.3189640  81.1251450  12.7467079  60.3115120
  81.9500198  12.8529930  60.7853432  80.8385544  13.6409569  60.1259956
  81.8837585  20.5567932  68.9550095  82.8370132  20.6332893  68.9139023
  81.7107773  19.6291313  68.7945328  16.6172562  42.1493607   6.3234234
  16.6008759  42.7822456   5.6054964  17.0466175  41.3781586   5.9531155
  44.2620888  62.7975807   5.3617773  43.5353470  63.0405388   4.7881489
  45.0165100  63.2655182   5.0038481  24.1868896  69.4997711   5.6439424
  24.7471790  69.5581970   6.4178252  24.7961426  69.3779068   4.9157991
  14.1495581  58.2542992  18.7566872  14.0355558  58.4034233  19.6953011
  14.5955992  57.4092178  18.7008724  36.5032234  69.2349854  55.4858589
  37.2802315  68.6784515  55.4332809  36.2888489  69.4337463  54.5743942
  13.0201216  37.6754456  35.9904442  13.0181599  38.6232491  35.8566666
  12.3940859  37.3415756  35.3479195  22.5314960  20.2410889  17.9453678
  22.3613949  20.5302467  18.8418522  22.7843475  21.0386314  17.4803677
   1.1566746  59.3183136  37.8222847   1.9508239  59.0545769  38.2870445
   0.8041155  58.5019073  37.4681435  15.8995037  48.9818993  26.3143959
  14.9563580  49.0823936  26.4432755  16.0144253  48.0565796  26.0980511
  10.1544971  32.4421120  37.4663696  10.5561829  32.2798004  38.3199120
  10.4440842  33.3230400  37.2290077   1.3306112   7.2415819  65.4078217
   1.5953718   7.0896168  66.3150330   0.5311777   7.7636056  65.4758606
  31.2623634  10.7137623  62.5104408  31.5733604  11.6121149  62.6221390
  32.0599670  10.1961269  62.4003792  22.9685020  46.8641090  21.6716824
  23.1535110  45.9299164  21.5753040  22.6016178  46.9460449  22.5519753
  36.8611107  65.3543930   5.9465861  37.3588791  65.4213562   6.7614307
  36.3435555  64.5554657   6.0470495  58.4667130   3.5756001  23.5218086
  58.0898247   4.3705573  23.1446743  57.7497444   2.9415340  23.5096703
  35.1925545  52.0491829  71.7803116  35.4445229  51.7805977  72.6638260
  35.7477684  52.8059578  71.5925369   1.9203753  26.6980038  12.2242031
   1.3040892  27.2589130  11.7532415   2.6711519  27.2642403  12.4029312
  60.2225609   6.8579822   9.7195396  60.7635193   7.5879641   9.4183359
  59.3226700   7.1565580   9.5881033  29.8608875  56.7327347  80.6915894
  29.1396637  57.3606033  80.7345505  29.4493389  55.9137344  80.4157257
  42.7502899  62.3175392  53.1762657  42.3786850  62.9782181  52.5917625
  43.3702698  61.8352661  52.6292152  52.5500793  23.1922245   9.6024370
  52.7711372  23.9091969   9.0080318  52.7574348  22.3989925   9.1084547
   1.8073543  52.9173546  14.7748251   1.1342739  53.2721977  15.3555851
   2.4632630  53.6120033  14.7158155   9.5944958  53.6230850  87.5037308
   8.9913073  53.1372414  86.9412766  10.0045815  54.2614365  86.9201431
  82.9175949  36.9908028  11.1810522  82.1542358  36.5304260  10.8323917
  83.6318283  36.3573761  11.1112309  34.1124954  64.1117554  68.0593872
  33.2775002  64.5049820  67.8056488  34.3190536  63.5073204  67.3464890
  77.3731155   8.8568954  81.7552567  77.3470612   9.5191498  82.4458847
  76.8420792   9.2258339  81.0494843  62.5462723  67.0790482  52.3106842
  61.7808037  66.5633545  52.0570107  63.2380753  66.4311066  52.4441185
  72.3326416  43.6896324  31.3571053  72.0124969  43.7513275  32.2570686
  72.1191177  44.5378265  30.9682541  42.2160835  17.3688965  78.5957642
  41.3421440  17.7160873  78.7744141  42.7123642  17.5466785  79.3947220
  10.1684856  59.2285652  23.4106216   9.3431759  59.6574898  23.1845284
   9.9083948  58.3711815  23.7474880  26.5470924  67.4340439  63.7320824
  25.6032047  67.4785995  63.5793686  26.8479557  66.7229843  63.1662941
  19.7801285  70.5968704  85.1409454  19.3310528  71.3820114  85.4541702
  19.2872124  69.8706055  85.5227966  44.4565697  44.7004890  76.0947952
  43.9413910  45.2128410  76.7179489  45.1780510  44.3462486  76.6146164
  78.1030655  11.6868267  58.9258270  77.9875870  10.7417974  58.8267632
  78.1869583  11.8201981  59.8699722   9.8068991  24.9487877  85.2979507
  10.6044407  24.4856873  85.0416412   9.0987158  24.4489822  84.8918686
  18.3774986  27.0863171   8.6874628  19.1031952  27.1852531   9.3037500
  18.6362896  27.6070461   7.9271331  72.3027191  51.1798134  85.7724152
  73.0976791  51.5760536  86.1291580  72.0866241  51.7194366  85.0119324
  64.1794891  41.6531296  26.0358810  63.4597015  41.9260178  26.6048012
  64.5484009  42.4726830  25.7065392  14.9137535  56.1779861   6.8796511
  14.9216146  57.0723953   7.2205305  15.0221748  56.2810326   5.9342108
  32.1170502  13.9794302  32.4106445  33.0428963  14.1705484  32.2605896
  31.6532536  14.7202816  32.0204391  79.6263885  52.0119095  82.7051239
  79.0945892  51.9219093  83.4958954  80.5299759  51.9853401  83.0198593
  79.4314194  24.2079964  33.0452271  79.7349548  23.8412952  33.8756676
  79.6517487  25.1379242  33.0992546  65.9946823  22.7439194   9.7232924
  65.3836136  23.4777145   9.6572065  66.4159164  22.8589821  10.5750895
  48.3705063  34.4300957  11.0636940  47.6247368  34.9734268  10.8090429
  48.0756416  33.9723969  11.8509655  65.1578598  17.9189701  53.5593338
  65.3399887  18.1721668  54.4642944  64.6915665  18.6689072  53.1900177
  75.6650162  45.9580841   3.3669894  74.8084946  46.0809860   2.9577250
  75.5545883  46.2900543   4.2579637  81.8101044   3.6392815   7.1361413
  81.2882767   3.3985512   7.9016323  81.2350845   3.4671338   6.3905230
  68.1270294  17.3354073  74.4792557  68.3867645  17.4827480  73.5698242
  68.6346054  16.5712547  74.7525101  32.6859093  34.3646317  80.1791992
  32.7736282  33.6950150  80.8575439  32.8397560  35.1910133  80.6370850
  28.1663055  43.2285118  74.7113571  28.7230606  43.8023415  75.2376404
  27.6106396  42.7821388  75.3502808   0.5074499  71.0455017  10.1012077
   1.4471002  70.9454575  10.2537861   0.1432559  70.1769257  10.2719955
  42.4843864  18.2667618  72.8148956  43.1709366  18.5991230  73.3931808
  42.4652367  17.3245773  72.9826813  80.8565674  24.0487156  41.1525536
  81.4776382  24.4074287  41.7864532  80.0984497  23.7933388  41.6781731
  23.3444424   0.7311354  71.1902390  23.1044827   0.8772452  70.2751999
  24.3012695   0.7575217  71.1940842  76.2572021  46.3707848  11.6101360
  76.2614594  45.9621239  12.4757061  77.1635666  46.6449280  11.4702387
  10.2420549  42.7113724  47.7110252  10.1232548  43.4183235  48.3453255
   9.9330959  41.9275436  48.1653290   8.7458906  12.8635073  11.0663271
   8.8948126  13.7415638  10.7155123   9.5955276  12.5993071  11.4192390
  12.5289631  29.3276501   4.5967741  11.5894442  29.4771633   4.4910288
  12.9111862  29.6079350   3.7651625   8.4316568  33.5006180  16.9733448
   8.3494005  33.6210403  16.0273209   7.5566211  33.6842422  17.3151436
  78.3017120  22.7340031   6.5999894  78.9221115  22.0057354   6.6309624
  77.7792206  22.5703125   5.8148508  74.9038849   1.9204272   9.7777681
  74.6799088   2.1155930  10.6877012  75.8598022   1.9627194   9.7520351
   7.3246732  14.1055670  74.8126602   7.2502089  13.4425640  75.4990387
   7.5327430  14.9135962  75.2817307  16.6339855  35.8770561  70.8565292
  16.9284458  35.2504539  71.5175095  16.9315147  36.7264862  71.1823883
  70.5574875  30.6416874  77.3254242  70.5707550  31.1371098  78.1443329
  70.0603790  29.8502827  77.5323105  34.1964645  32.5117989   2.1607332
  35.1438255  32.4236946   2.0559635  34.0169563  32.1511612   3.0290353
  60.3797073  58.3708611  19.9799595  61.0944901  59.0061646  19.9386768
  59.8001823  58.7064629  20.6638832  11.8807650  11.8325310  22.2127953
  11.8594141  11.4353523  23.0834427  11.8985004  11.0887146  21.6105881
  24.5256443  32.3618393  21.6122913  23.9070683  31.7506390  22.0123291
  24.2531757  33.2219467  21.9319935  80.6045456  29.7404938  66.5968475
  81.3530884  29.2760181  66.9712448  80.6681442  29.5779495  65.6556931
  68.2452316   4.5828342  69.2497177  68.2486801   4.1004915  70.0764999
  68.0617065   5.4879766  69.5012512   2.3658025  19.7244549  62.0123177
   3.0922751  20.2260151  62.3823242   2.5274940  18.8244362  62.2952538
   3.4596856  54.7630692  12.5319452   3.7464652  53.9036942  12.2229652
   3.4913857  54.6972733  13.4863548  66.9973297  29.5181084  37.4801369
  66.8239365  28.7175083  36.9849548  66.6368103  30.2187195  36.9366264
   4.5928116  60.2307587  19.5589161   4.2808065  61.0012016  19.0842571
   5.4995446  60.1233864  19.2716179  47.2235260  58.1573143   3.6019118
  47.5554428  58.2611656   2.7101293  47.0324745  59.0493431   3.8917658
  80.0564194  48.4355392  64.1091461  80.0826797  48.1427002  63.1982231
  79.3054504  49.0277405  64.1488037  71.2132263  68.2629776  29.7071419
  71.6720657  67.4476318  29.9093761  70.4332123  68.2427292  30.2615814
  35.4029808  33.6767578   8.1855135  36.0748749  34.2854271   8.4926147
  34.5837860  34.1660080   8.2615728   6.4458346   0.3528335  46.3646355
   5.9651423   1.1600037  46.1812172   7.2759223   0.6481593  46.7387619
  28.0902863  28.1675453  28.5994587  28.5185757  27.3941269  28.9663696
  27.2007675  27.8763084  28.3990364  17.1231899   6.6901464  83.9354553
  16.9008636   7.6080298  84.0913162  18.0210018   6.6034384  84.2558365
  20.5258465   5.6737924  72.6730728  20.9746037   5.2663569  71.9322281
  19.8425007   6.2114940  72.2728806  71.0054474  11.1218309  67.5833588
  70.3697586  11.5095978  66.9818878  71.8561859  11.4033909  67.2468948
  33.8370552  51.0913200  69.5847931  33.3355255  50.3471489  69.9178238
  34.0985680  51.5740509  70.3688889  38.2447205  58.9648056   2.7532988
  37.7082977  59.1643791   1.9860622  38.2961731  59.7924423   3.2314243
  76.0963821  55.1067276  26.8404045  76.0404739  55.3211365  25.9092045
  75.3913727  55.6119843  27.2452641  48.3400421  64.8749847  40.5179329
  49.2156754  65.0697632  40.8519363  48.4007568  63.9752045  40.1970863
  35.2413406  45.6957207  84.3481827  34.6604233  45.4101067  85.0532990
  34.7424660  45.5354691  83.5471344  65.1133499   4.4599876  70.3482971
  64.9839706   3.7588923  69.7095795  64.7134323   4.1283731  71.1522446
  30.7336960  12.4978638   4.0144386  31.5587044  12.9032440   3.7474916
  30.2832108  13.1784468   4.5145397   8.3219614  55.3593254  69.3143311
   8.6543961  55.2135429  70.2000275   8.5777264  56.2582245  69.1074448
  78.5902176  64.3653412  45.9936371  79.2582855  65.0453873  46.0799904
  78.5523758  64.1846542  45.0544090  71.1276779  15.6174545  69.9835968
  72.0054474  15.2732754  70.1487961  70.7286530  14.9811106  69.3902359
  64.1198349  28.9782734  42.7369232  64.6711960  29.2891655  42.0188866
  63.7002487  29.7688370  43.0763168  12.9858789   2.3583004  30.4588356
  13.8575945   2.6111214  30.7628536  12.3921986   2.9626131  30.9044609
   7.6797566  19.2624168  29.7743645   6.9439573  18.9030876  29.2786694
   7.2755938  19.6751747  30.5375919  82.4661179  10.8119974  53.7878761
  82.4449387  11.5532970  53.1826859  83.3455963  10.8357038  54.1649590
  12.8886919   0.5203279  52.9501953  13.5844307   0.0013252  52.5466957
  13.3509207   1.1686161  53.4815140  61.1823235  38.7701797  24.2276192
  60.2900925  39.0855865  24.0838432  61.7052422  39.5661850  24.3233395
  70.4836197  63.5037270  18.7373199  71.2106476  62.8881569  18.6438160
  70.5580444  64.0796432  17.9763908  57.4443741  12.8168068  73.7411499
  57.8850479  12.6468115  72.9085999  57.2172928  13.7460394  73.7065887
   1.9357061  49.8633842  83.4106293   1.4634420  50.6804199  83.5707855
   1.6892122  49.6149406  82.5197067  84.7751999  10.6229048  28.1090069
  84.1516495  11.3490534  28.1203499  84.5882492  10.1594009  27.2926445
   9.1901693  66.7534485   9.5588675   8.7058849  65.9278259   9.5519571
   9.6830559  66.7488861   8.7383347  33.8093681   1.9850206  45.1621170
  33.6623001   1.0740924  45.4167023  32.9579048   2.4066250  45.2782669
  39.3380127  64.0703125  39.9988098  39.8651047  63.3334694  39.6898308
  38.4641266  63.9046478  39.6451035  19.6923771   8.9969988  70.1388397
  19.3498802   8.9872265  69.2450638  20.1288147   9.8451471  70.2188263
  36.1741676  71.2814026  17.3875847  37.0271072  70.9272766  17.1359386
  35.6259613  70.5092468  17.5271263  34.1783180   1.7950116  17.3786812
  34.7158203   2.2971807  17.9911747  34.7086678   1.0261638  17.1693172
  61.5994148  35.1252518   2.2095327  61.0845413  34.6745262   2.8788464
  62.4604340  35.2452278   2.6101415  86.2775192  55.4711037  41.2730331
  86.3785324  54.9799767  42.0884018  85.7583618  54.8967094  40.7101974
  18.2458668  29.3555145  33.7375069  18.8739433  28.7973709  33.2789993
  17.3980541  29.1235886  33.3584862  72.6019592  41.0806007  64.9245148
  71.9029388  41.3743591  65.5087204  73.0698776  41.8817673  64.6891022
  46.9091835  39.8362846  35.4709702  46.9994545  40.0606346  36.3971176
  47.7710304  39.5039749  35.2199249  77.5661087   7.7676258  26.4042702
  78.1977692   7.6141977  25.7016354  77.0901947   6.9408836  26.4832458
  25.8318367  33.8154144  25.5134716  26.4734917  34.1162643  24.8700428
  25.7730255  34.5314789  26.1459465  21.2279968  59.2177086  15.7443638
  22.0242290  59.7007027  15.5230856  21.5431252  58.3939819  16.1163883
  49.5693321  10.2636242  83.5831680  50.1137695  10.4077587  82.8091812
  48.7113495  10.6119299  83.3407135   7.0442991  45.5386238  24.8918991
   7.4880209  45.6009064  25.7377491   7.7469211  45.3670692  24.2649040
  64.5612869  68.2096558   4.1548500  64.1515732  68.6430893   3.4061830
  65.3401108  68.7348099   4.3388977  62.8986816  30.7100372  40.1250305
  63.8364906  30.5565586  40.0101700  62.7907333  30.8390141  41.0673370
  38.1203156  19.7105713  19.6952457  37.1717873  19.8368225  19.6710472
  38.4820251  20.5870018  19.5638390   2.8685753   3.9462190  70.4995956
   3.3963962   3.2040014  70.7941284   3.4962821   4.6619668  70.3999939
  45.2230263  54.5507736  24.8863716  46.1163750  54.8490944  25.0571518
  45.3220634  53.6352501  24.6251373  22.7485447  27.8044624   5.2400637
  22.9765835  27.4004936   4.4027834  23.1711979  28.6629257   5.2148008
   6.8358431  40.0248108  55.0653191   7.4876800  39.6205406  55.6379471
   6.1157622  40.2598114  55.6505432  77.0368958  25.2992001  14.8696375
  76.9041595  24.5704193  15.4758492  77.6728058  25.8636398  15.3092518
  82.7814865   4.3417125  77.1647873  82.0510025   4.6183610  77.7180481
  82.3663254   4.0035605  76.3713531  35.9605255   6.3671565  85.1843491
  36.8881187   6.3732567  84.9482040  35.8377991   7.1681757  85.6938019
  15.1821527   6.5907645  75.2591095  15.8430138   6.6746697  75.9464645
  15.2157993   5.6682968  75.0058289  56.2600403  56.8679161  34.6885452
  56.7602081  57.1943703  35.4365349  55.8242607  56.0813866  35.0167160
  48.0998077  54.5050850  78.0843201  47.9926796  54.9760323  77.2579041
  47.5376244  53.7354202  77.9960098  56.4229202  67.1484528  64.6774368
  56.2414360  67.9970779  65.0813370  55.9087410  66.5244827  65.1898041
  52.3862228  68.8282089  18.6205730  51.6781921  68.3312302  18.2107773
  52.1006584  68.9496994  19.5260696  85.3212738  64.3227997  17.4572659
  84.7061386  65.0514832  17.3744373  85.3748627  63.9532318  16.5759144
  59.4295464  18.1777458  17.6714153  59.8128624  18.9261074  17.2139702
  59.0562325  18.5507507  18.4699993  60.1698608   7.1891789  52.4720917
  59.8064156   8.0744686  52.4921761  59.9416504   6.8562169  51.6041679
  15.3966618  12.6152487  36.9476967  15.6654758  12.1041098  37.7110481
  14.9697628  11.9802914  36.3725281  10.6078072  49.9342270  26.4472809
  10.1873589  49.1952667  26.0075207  10.2719717  49.9024696  27.3430691
  37.1548576  22.4095268  86.7144852  36.3927803  22.1375828  87.2258682
  37.0572624  21.9538212  85.8783951  25.6405220  32.8252907  12.1918211
  25.7453384  32.0543442  12.7493935  24.9246864  33.3167152  12.5946999
  20.4521542  18.3766422   6.4818201  19.5827618  18.0733051   6.2203345
  20.2994595  19.2410927   6.8634515  22.6743927  61.4851265  88.7935257
  22.8170471  60.5938759  88.4748535  21.8365231  61.7451515  88.4106445
  48.3424339  15.6033802  81.4301758  48.3931847  16.1012058  82.2461548
  47.4962387  15.1580620  81.4735260  28.9539680  26.6452637  11.2847328
  29.6591873  26.8589802  11.8956537  28.5894108  25.8250332  11.6172276
  41.5416336  30.1709595  16.1207809  40.6682625  30.0962524  16.5053234
  42.1142464  30.3651352  16.8628330  40.9490776   9.9464197  58.1301804
  40.8794060  10.6511431  58.7741852  41.6017227   9.3501577  58.4972725
  51.4285011  37.8130836  25.3317738  52.2205582  38.0699768  25.8038750
  51.1631508  36.9888802  25.7398281  65.3403320  44.1968079  12.3662758
  64.5140381  44.6663017  12.4805021  65.6635590  44.4850502  11.5126524
  22.5588169  30.5395012  23.3382969  21.6914883  30.6796761  23.7181950
  23.1667404  30.8609276  24.0041409  24.4018135  10.7755079  65.9493027
  24.1064014  10.1042719  65.3341522  25.3441124  10.8434105  65.7953796
  76.4431000  55.5428848  24.0498104  76.7280884  55.0566711  23.2761116
  76.9123077  56.3754425  23.9957542  73.7556076   7.7783709  42.8177872
  73.3600311   8.5501165  43.2229500  73.4629440   7.8094668  41.9069595
  86.1180878  50.4718590  87.4277802  85.7646027  51.3488503  87.5766602
  85.3678741  49.8885651  87.5425797   0.3733788  70.9919739  60.1470032
   1.0755050  71.2925110  60.7239990   0.0933926  70.1581802  60.5246696
   4.1635432  68.9613266  88.6215134   3.5437999  68.4651108  89.1562271
   4.4712296  68.3340302  87.9672470  26.1129570   4.0331450  31.2853279
  25.2040310   4.1443677  31.5641041  26.6308861   4.3536925  32.0237236
  15.0602942  40.0962410  69.8176498  15.6587410  39.5087776  69.3561554
  15.4778557  40.2454643  70.6659470  20.1754780  46.4999275  78.7063751
  20.3731441  46.1121864  79.5589142  19.3645363  46.0723801  78.4310303
  28.8819942  14.1429625  35.1762810  28.3963776  13.5550604  35.7548828
  28.9035034  14.9769773  35.6455231  71.1593857  22.1153564  62.6877174
  70.4740906  21.5535240  63.0495758  70.7111969  22.9345322  62.4772263
  30.5785561  59.3964424  45.3880157  31.3204174  59.9837608  45.5326805
  30.3006897  59.5782051  44.4902496  78.0044403  33.4617805  12.4226265
  77.9850082  33.5667229  11.4713955  78.9236908  33.2887383  12.6257696
  85.8863602  60.8217392  86.3706055  86.1913147  61.7282944  86.4078903
  85.1606903  60.8386192  85.7466278  72.4681015  61.6697235  88.7933960
  73.3917694  61.6601791  89.0443573  72.3656006  60.9041672  88.2280197
  22.1874828   4.8567424  26.4473820  22.5489178   5.5883942  26.9476643
  21.5169029   5.2543988  25.8920212  44.7097588  55.0323639  13.0980930
  44.8108177  54.0819321  13.1500254  45.1431732  55.2749557  12.2798443
  56.3047180  18.7499180  24.1701393  55.3853951  18.9531460  23.9975929
  56.2766647  18.0117931  24.7789230  69.2267838  21.6568623  87.9819260
  69.7730179  22.1110229  87.3403702  69.5167923  20.7455654  87.9410858
  53.4613380  23.8048248  18.2585697  53.1712723  24.6517372  18.5974388
  53.4894562  23.2359409  19.0278625  27.7267933  68.6531372  26.0982285
  28.3399506  68.1514511  25.5610294  26.8807964  68.5401230  25.6649303
  11.3713865  71.1586685  19.8849716  11.8428144  70.3348083  20.0084324
  11.5999327  71.4347153  18.9973927  37.8994064  67.9953537  29.6933327
  38.6628304  67.4605713  29.9110928  37.7083969  68.4786911  30.4971581
  17.0285969  37.5218925   6.2370753  17.5238838  37.9986267   6.9031439
  17.2084980  37.9917793   5.4227829  38.6488914  55.5426025  41.5694237
  39.1908646  56.3258591  41.4745369  39.1005821  55.0173759  42.2299919
  69.6691055  39.6656609  15.0186596  68.7434006  39.6238441  14.7787647
  69.8549957  40.6016197  15.0938759  57.4005775  14.1638823   1.0049911
  56.8941193  13.4597111   0.6001784  56.8083534  14.5415783   1.6552576
  74.9492416  42.9278984   6.8976736  74.0662689  42.9449158   7.2668552
  75.3162231  43.7848549   7.1148839  53.2412376  65.7665482  39.5893135
  53.8850174  65.1065979  39.8466988  53.7388916  66.3957291  39.0671120
  29.6872387  10.6452837  69.8430099  29.9068031  11.0983763  70.6570892
  29.1703968   9.8892927  70.1215439   7.1411910   3.9622438  76.1198502
   6.1970367   3.8295414  76.0350342   7.3363008   3.7226465  77.0258026
  58.9330864  69.4675751  40.9680405  58.1147308  69.9306335  41.1472244
  59.3530273  69.3833847  41.8240738  66.0464706  23.9024773  71.3917313
  65.4562988  23.6651173  72.1069870  66.1321640  24.8535595  71.4575348
  86.6414413  19.8344193  10.1285086  86.5055847  19.8581867  11.0757208
  85.7686462  19.9655304   9.7580023  74.2815857  66.6607285  77.2929077
  74.9786224  67.3040848  77.4211884  74.6929932  65.9593353  76.7879028
   7.4261580  50.8912239  56.6152382   6.9775233  50.2944756  56.0161972
   8.1659822  51.2271576  56.1092339  71.1355743  15.7865524  15.8325281
  71.9402847  16.0141945  15.3668556  70.7707291  15.0538902  15.3362160
  14.0524845  23.5789814  26.5566692  14.6897573  24.1242256  26.0953407
  14.5655527  23.1237259  27.2243023  68.6494522  37.1649857  75.6296463
  68.4824982  36.2288857  75.5197449  69.4468536  37.3268700  75.1254959
  86.2124329  45.3627243   8.4006100  87.0601349  44.9417610   8.5435390
  85.9674225  45.1115761   7.5100336  82.0701294  68.2650375  34.3391266
  81.3357773  68.3089294  34.9515266  82.7164078  67.7129440  34.7793007
  80.6348038  55.7315140  83.6558838  80.6086349  56.5695267  83.1940613
  79.9579926  55.2034492  83.2324524  53.9978104  36.6084671  16.8219757
  54.4335060  35.8016281  17.0965919  54.5949860  36.9976425  16.1831036
   2.6237581  14.5537786  29.0334587   2.1488607  14.9863567  29.7430916
   1.9549239  14.3729992  28.3729954  73.9875946  16.1084309  67.2717743
  73.5208817  15.4617891  67.8011703  73.9035263  15.7883301  66.3736038
  16.5863190  16.8827782  11.9734430  15.7348185  17.0524445  11.5704632
  16.4398937  16.1176109  12.5295992  12.0634480  12.8966007   4.1176701
  11.8820677  13.7318439   4.5485992  11.3703194  12.3126945   4.4256620
  73.2952881  62.3843384  11.7965631  73.5684052  61.7331848  12.4428091
  72.4097672  62.1187668  11.5484619  62.2143402  53.8324966  40.6969185
  61.4084549  53.9535713  40.1948051  62.3685226  52.8879776  40.6782951
  66.4014435  55.3182983  22.9130440  65.6931686  55.1985283  23.5456848
  67.1371002  54.8292770  23.2816849  80.9729996  21.7338047   8.6839504
  81.3746872  21.8915043   9.5383558  81.6835861  21.8678932   8.0567989
  84.0968399   0.8163489  74.0303802  85.0445557   0.8072147  73.8962860
  83.7430115   0.3534805  73.2709122  45.2547226   3.9919047   2.7448936
  45.5202179   4.1984844   3.6410346  45.9980469   4.2632256   2.2062962
  13.8714352  33.5698776  10.1681337  13.8941545  33.0195465  10.9509811
  14.6198845  34.1582985  10.2672100  12.3062458   3.4679713  46.3474236
  13.0017338   2.9127007  46.6998444  12.7441139   4.2906356  46.1289597
  62.6601524  32.0099068   2.5529194  62.5238571  32.8291168   3.0288923
  62.0420151  32.0511627   1.8232398  72.0105209  66.4846725  73.3556595
  72.0989914  65.6874771  72.8332825  72.9108429  66.7423553  73.5537796
  74.1381149  29.0547066  54.3944283  73.5193176  28.3471889  54.2134933
  74.8641357  28.8981838  53.7905846  11.6115885  12.1613541   8.5765934
  11.7820578  12.0806236   9.5150251  12.1161394  11.4514055   8.1795635
  72.2900925  10.2295723  39.9638786  72.3749619   9.3661566  39.5594749
  73.1575317  10.4109106  40.3256683  47.4801674  55.5195465  84.4821548
  47.2803612  54.9578018  83.7333221  48.2468071  55.1144676  84.8876266
  38.8638306  61.2998009  62.9622116  39.8013420  61.2870903  63.1549339
  38.8154984  61.4449959  62.0173225  31.3826828  36.3240700   6.9050145
  30.7078552  36.7928085   7.3960571  32.0684814  36.9756012   6.7586665
  20.6873589  50.2215080  82.3296890  19.8608990  49.8017464  82.5684204
  20.7098885  50.1796036  81.3736725   3.9996748  63.0066299  22.4135857
   3.5417459  62.9070015  21.5789547   4.9280744  62.9794960  22.1821327
  37.8706818  52.0696106  35.7113876  37.2967033  51.5784683  35.1235428
  38.7444344  51.9665718  35.3343315  56.0424118  62.8349419  42.8934021
  55.6745148  63.2094688  43.6937828  56.8975296  62.4962349  43.1585121
  60.5811958  63.2709122  39.7951508  60.0842438  63.1901436  38.9810562
  61.2897110  62.6332932  39.7075233  86.2963181  40.3855209   0.7138072
  86.4901733  41.2140923   0.2754849  86.3724823  39.7261581   0.0241208
  63.0381737  30.6264114  33.3453331  62.6508331  31.1039333  34.0789375
  62.6075096  30.9874039  32.5704498   6.7959704  44.7503548   3.9980748
   6.2011724  44.0009537   3.9689806   6.2232156  45.5137367   3.9243701
   1.4222054   5.6838903  38.2438278   1.5880187   6.5445585  37.8591347
   0.4924392   5.6981368  38.4709015  58.2946472  30.0176811  36.0494843
  57.8177986  30.1052685  36.8748169  59.2034378  29.8717842  36.3122520
  70.4668350  62.0726357  11.1878195  69.7568130  62.6228676  10.8571453
  70.0825119  61.6060715  11.9300079  61.6209183  47.7911339  22.1369629
  62.0939941  48.3999863  21.5697536  61.6096611  48.2203255  22.9924717
  31.0389748   5.6175990  47.6591301  30.3675976   5.9355187  48.2627907
  31.8588791   5.9692292  48.0060349   3.3968694  21.0244331  47.5396461
   3.2708192  21.1077900  48.4848442   3.9592328  20.2563076  47.4398308
  66.8057709  26.8614731  83.6974869  67.1407089  27.0832729  84.5663071
  65.9468460  26.4731464  83.8638687  24.5891895   8.7931757  30.4978256
  24.6606827   9.1818228  29.6260033  25.1977959   8.0545549  30.4814358
  78.7126312  10.7343311  15.0909119  79.1332169  11.2020111  14.3693781
  77.8875732  11.1995049  15.2292328  29.9783974  60.6860504  16.3479042
  29.4072590  61.3633728  15.9855967  30.7517242  61.1617889  16.6510010
  41.3762817  55.5939369  71.0850296  41.2111359  54.6612282  71.2229309
  40.6166801  55.9010658  70.5901489  33.8916512   3.6535373   4.4929714
  34.7044258   3.5445590   4.9866800  33.6713715   4.5793757   4.5956059
  78.7904739  21.6478233  24.1555634  77.9558105  21.4516678  24.5811214
  79.4350891  21.6061325  24.8619328  18.2543926  15.5585890  56.1271095
  18.3254433  15.1765661  57.0018883  19.0923233  15.3588295  55.7097359
  73.1202087   4.4734850  88.6413345  73.8216324   5.0826612  88.4108124
  73.1647339   3.7920516  87.9705963  33.8576202  64.5787354  36.6827049
  34.2733688  64.6247482  35.8217354  33.5406036  63.6779060  36.7477646
  66.0237350  48.1849174  68.5093994  65.2670441  47.8317146  68.9772720
  66.5973053  47.4300842  68.3771973  32.9538345  41.1137772  20.9276505
  32.4723015  41.9096870  20.7020798  32.3624573  40.6317749  21.5057354
  58.0911598  59.5830498  87.0000000  58.3357811  59.5931664  86.0746384
  57.1419868  59.4594231  86.9954834  69.6730042  47.1876640  40.3971176
  69.6927185  47.7493134  41.1719666  70.5127487  47.3453026  39.9656029
  69.2250748  19.4100075  29.2002201  68.3097382  19.3450947  28.9278622
  69.4272690  20.3436642  29.1399326   8.0848970  37.1176682  76.6620941
   7.6881957  37.5121918  77.4387589   7.4929581  37.3498726  75.9466095
  26.4689465  37.0643196  25.5005512  27.2721214  36.5847206  25.7033539
  26.3794861  37.6947441  26.2152481  55.0246086  64.0076904  75.4577866
  55.8537865  64.4072876  75.1950684  54.8203430  63.3939323  74.7522354
  11.9980011  48.0035858  60.4137802  11.5051403  48.0269127  61.2340088
  12.8643217  47.6824455  60.6639595  82.0275040  49.5248070  83.2276154
  82.8087616  50.0676689  83.1219177  82.1373062  48.8201561  82.5891418
  86.5035248  33.7347603  56.7176285  87.1189880  33.1801567  57.1970558
  85.8977280  33.1191483  56.3049889  24.8455830   8.1931744   3.7730417
  23.9062805   8.3729439   3.7327180  25.2513332   8.9386702   3.3305094
  47.2335854  15.4480810  85.9612808  47.6727409  14.6629057  86.2881927
  46.4621773  15.1170855  85.5012741  42.7841721  22.6700706   0.5876379
  42.4003029  22.8626442   1.4430859  42.0694351  22.8119888  -0.0330390
  45.8400040  15.2147751  44.5859795  46.4292717  14.5220146  44.8844414
  45.1212845  15.2067156  45.2181244  76.9264984  11.2841272  73.4388275
  77.1815643  10.4131603  73.1345367  75.9699554  11.2795219  73.4036331
  10.8663616  23.5517693  57.2004318  11.0160751  22.7029953  57.6168442
  10.8107700  24.1696815  57.9293518  84.7633514  45.2749405  10.6594715
  85.2694702  45.3863411   9.8546991  83.8514175  45.2611504  10.3689213
  11.8647757  28.4498062  27.3534794  12.5716934  28.9997845  27.6911526
  12.2454214  27.5728302  27.3060112  28.3116322  66.1170044  17.6479340
  27.9414444  66.7067871  18.3047028  27.6258163  65.4667053  17.4962730
  48.4564514  24.0520248  77.2822189  48.5106888  24.9487705  76.9518661
  48.1418076  23.5407448  76.5366821   8.0597258  51.0811501  26.6238613
   7.7442465  51.2568665  27.5103321   9.0135498  51.0839272  26.7041378
  16.4081192  15.8635159  73.2293701  16.5257015  15.6047430  72.3153458
  17.1286755  16.4697208  73.4012604  59.2487450  56.4364471  85.2422791
  59.8571510  56.4110146  84.5037537  58.5119820  55.8921585  84.9645004
  81.7274246   9.5001001  76.9714966  81.4930496   8.8604259  76.2990952
  81.4613876   9.0905981  77.7947617  26.2117653  46.8498039  57.5996513
  25.8321571  46.4256516  56.8300896  26.6996174  46.1540985  58.0403595
   4.9279828  29.7076721   2.3269684   5.1975651  29.1655846   1.5855528
   4.0780802  30.0632248   2.0671976  59.8249817  40.6686096  61.3312683
  60.5375328  40.2231827  60.8729019  59.0298347  40.3535957  60.9014587
  18.4060783   9.2514400  57.2674637  18.7536297   8.9568157  58.1092682
  18.8028355  10.1120234  57.1325111  34.0225563  -0.2618024  66.0468979
  33.4221649   0.4369107  65.7869720  34.8908730   0.1380387  65.9980698
  71.6490021  48.8637199  80.3912659  71.2058640  49.5438652  79.8840561
  71.3728409  49.0201492  81.2943115  46.9934883  62.0124283  69.3868637
  47.0095177  61.0554085  69.3960495  46.0628624  62.2363472  69.3816910
  86.8236847  11.6894178  32.3545303  85.9636993  11.3542223  32.6081047
  86.8695068  12.5580444  32.7540550  78.4462814  45.7213593  25.4590244
  79.2594986  45.7251396  25.9638958  78.6280594  45.1453590  24.7164516
   2.1732984  44.8723526  62.2339401   2.6815507  44.2248573  62.7224655
   2.8282721  45.3755417  61.7501602  65.0393600  65.0688095  11.2280312
  64.3888474  65.4759216  11.8001499  65.5058899  65.8056259  10.8334570
  45.2492027  18.7802963  80.7344055  44.7719345  19.6081982  80.7894287
  45.4206924  18.6643486  79.7998581  66.5795288  67.7703247  53.2523499
  66.2296143  68.0987091  52.4241257  66.3056564  68.4180756  53.9016914
  84.8682785  11.6346321  54.7762527  85.0459366  12.5556803  54.5856171
  85.4621429  11.4200659  55.4956398  81.6920624   3.1529274  69.9778442
  81.4389954   2.3219323  69.5758057  81.5640335   3.0138307  70.9161911
  78.5289001   8.3601685  52.0850754  78.8346939   8.9073553  52.8084755
  79.3304977   8.0543299  51.6606483  55.7682190  57.7102051  25.0144405
  55.6026192  57.2380180  24.1984463  55.8572006  58.6252174  24.7478542
  58.5219040   8.3688259   6.5473280  57.7687950   8.7625628   6.9878111
  58.2990265   8.4010344   5.6169953  38.7668877  70.7000046  16.6798363
  39.4414177  70.6583786  17.3577061  39.1437988  71.2597198  16.0009480
  18.2313919  14.1448574  63.5530739  17.9800587  13.2223787  63.5988617
  18.0582581  14.4841433  64.4312210  66.3588638  13.6711149  18.6096992
  66.5418625  14.0845575  17.7660122  65.4698639  13.9521532  18.8263264
  36.9990578  58.2708130  75.5194473  36.2063065  57.8853683  75.1463394
  36.7417068  59.1603622  75.7617493  37.9959068  18.5006008  47.5813751
  38.2797470  18.2308331  48.4548111  37.8838120  19.4488640  47.6481972
  48.5050049  15.0057850  76.1546326  47.5622253  14.8445234  76.1173248
  48.6271019  15.5305929  76.9457779   3.7902308  16.6017475  51.2737274
   3.8441656  16.4752884  50.3264503   4.1925359  15.8158703  51.6435661
  69.7526550  70.8257141  25.6751003  70.0041962  70.3154678  24.9052849
  68.8533859  71.1008682  25.4967003   5.6501999  48.4399757   6.8829055
   5.8119192  48.3881035   5.9408927   5.8497791  49.3480415   7.1105390
  78.9677048   2.7004342   5.9544930  79.2158127   1.9876225   6.5431991
  79.3188477   2.4408073   5.1027155  63.1779785  15.1429930  25.2950230
  62.6943207  15.5283566  26.0256424  63.4765472  14.2958078  25.6257286
  42.3764954  46.6684456  88.1842880  41.4418068  46.5293350  88.3367310
  42.7671356  46.6491013  89.0579376  37.9987831  26.3007660  86.3923645
  38.5739174  26.5748119  85.6779785  37.1163445  26.4988785  86.0788498
  78.2623062  56.5918159  20.6780128  78.5814285  55.7904587  21.0930080
  79.0447006  56.9942245  20.3009815  51.3153572  52.7430992  63.8960915
  51.3830109  51.7910233  63.8239555  52.2004662  53.0603790  63.7167931
  44.2808533  71.2381668  84.5749741  44.7207069  70.4330521  84.8480148
  44.9147835  71.6768341  84.0075760  77.8782501   8.8492718  72.6554642
  78.5335159   8.7521467  71.9645004  77.9424667   8.0396061  73.1619720
  38.2035103  10.7732601  48.5988541  37.5999069  11.4873362  48.3939323
  37.7856903  10.3067646  49.3227615  78.6268845  61.2557755  27.8021011
  79.5261078  60.9586220  27.9411488  78.4560165  61.0774841  26.8773060
   6.3287239   8.9832249   8.8655310   7.1871696   8.6761446   8.5739756
   6.4304285   9.9309673   8.9531136  45.7033501  30.0170193   2.4627264
  44.9560623  30.0016422   3.0606868  45.7997742  30.9388218   2.2235284
  46.4842224  37.5823936  11.9781427  45.7903481  37.6515656  12.6338720
  47.0284767  38.3564072  12.1227827  67.7910233  17.0082741  54.2161713
  67.6431656  17.0557060  53.2716522  66.9455490  17.2363014  54.6027069
  28.0592613  30.7516003  18.7723675  28.2714806  31.6838970  18.7274590
  28.9097462  30.3124504  18.7797871  41.3607979  71.4822998   0.5769193
  41.0573807  71.7381744  -0.2941150  40.7311058  70.8216171   0.8653942
  10.8958759   3.1035540  60.9067841  11.8199406   3.0649688  60.6601105
  10.8679132   2.7338631  61.7892685  27.0440922   3.7310958  38.7201004
  26.6978054   2.9021583  38.3896751  27.7999344   3.4802375  39.2511406
  55.3494606  64.2861633  25.6431046  55.5721779  65.0483246  26.1776505
  54.7443504  64.6249237  24.9833202   0.0698089  15.3541508  42.7967148
  -0.4644517  15.4430599  42.0074806   0.6481896  14.6140833  42.6123047
   7.5952930  59.2020454  59.5380363   8.4325352  59.6585770  59.6207314
   7.4042940  59.2200089  58.6002579   1.5710007  25.9661045  63.9095764
   1.7009544  26.1969681  64.8293839   2.2974319  25.3771305  63.7055244
  64.0926819  18.5549316  63.3678741  63.2969093  18.8594151  63.8040657
  63.8011627  18.2897072  62.4955750  83.9815216  54.1616898  40.0625153
  83.3943405  54.9030304  39.9146690  83.6354370  53.4666710  39.5026894
  86.0772171  40.1820869  17.0221100  85.5896835  40.8455391  16.5338745
  85.9192429  39.3682823  16.5435715  78.3399734  35.8997307  14.6389685
  79.1421814  35.6516495  14.1794653  77.9874649  35.0731583  14.9687443
  24.2521172  49.0127869  75.5113144  23.8651085  48.3505516  76.0839462
  23.5731773  49.6821327  75.4261780  54.5349998  11.7437639  86.1415253
  54.9787445  10.9064140  86.2763062  55.2447662  12.3730173  86.0130768
   8.7392168  31.6917057  26.6432476   9.0891714  30.8348274  26.3992748
   9.4290028  32.0897865  27.1742458  36.4735298   2.7924030  59.9326439
  36.9827957   2.0508590  60.2597389  35.8935051   2.4122150  59.2728996
  37.6482925  60.7763748  15.4063139  37.7768288  61.6190567  15.8417377
  37.6280556  60.1386909  16.1198845   2.4596696  52.7191505  44.3664474
   2.0807302  53.1209335  45.1482430   1.7225349  52.2811050  43.9410286
  81.4176025  60.3296776  31.9176960  80.5777664  60.7712631  32.0438309
  81.7138977  60.1209526  32.8036270  37.8394203  44.7247887  16.8740101
  38.4832306  45.4304008  16.9360466  37.1529961  44.9716911  17.4937630
  27.5130100  38.4349823  10.3917198  27.8177700  39.1649323  10.9307251
  26.6001854  38.6464577  10.1961117  79.8631973  33.3030968  31.8892365
  79.2185974  33.3436966  32.5956879  79.6219559  32.5232162  31.3894157
  82.6970062  48.0626488  57.7708206  81.8704376  48.0635452  57.2881050
  82.5515289  47.4523544  58.4937363  64.4719467  14.3395338  54.7231483
  64.9304199  13.5024757  54.7964401  64.1912918  14.3796530  53.8088989
  80.1048508  36.4044075  75.3490143  79.9960556  35.4753456  75.5520782
  80.4059296  36.4173431  74.4404907  11.3251438   1.5084505  11.1700630
  10.4249573   1.8044482  11.3052750  11.4824648   1.6394901  10.2350168
   4.0059309  36.5973969  23.2940445   4.5440149  37.3872719  23.2411995
   3.2567363  36.8535042  23.8319530  79.4287872  64.7534027  49.8819008
  79.8340225  63.9140434  50.0998344  80.0457687  65.4089050  50.2072945
  64.0414429   0.5740398  66.7676620  63.8074036   0.4676711  65.8456268
  64.9984589   0.5570019  66.7753601  25.5332203  10.0289078  84.9307251
  25.5935917   9.4319515  85.6765366  26.4394474  10.1511421  84.6478043
  67.1136932  49.4102058  64.8401337  66.2419510  49.2593765  64.4747009
  67.5986557  49.8376312  64.1341934  17.1025696  35.2927589   3.6717978
  16.8507175  35.7800941   4.4562144  17.7843399  35.8281174   3.2658241
  79.4028931  30.0692425  50.6103058  79.7611618  29.8678341  51.4747772
  78.5430603  29.6486645  50.6034584  67.2238770  24.0902672  11.9064417
  66.9785614  23.4690056  12.5920696  68.1388550  23.8854465  11.7138519
  16.8275185  25.0111656  33.4666138  17.5254345  24.9400539  34.1178322
  16.0195160  24.9071522  33.9691505   0.2658557   0.2013910  72.4226685
   1.0092338  -0.1212888  71.9132614   0.6521803   0.8142724  73.0482635
  80.1619263  46.5402336  53.5553741  80.5673981  46.5270233  52.6884003
  80.6147919  47.2433968  54.0208969  22.3824043  15.0663881  48.9473534
  22.4304886  14.1813002  48.5860519  21.4536247  15.2934361  48.9020805
  25.1024475  10.6973267  78.2754669  25.3340511  10.7791767  77.3503189
  24.7477837   9.8119259  78.3561554  31.2303467  67.6968765  68.1248016
  31.4682083  68.5670395  67.8046875  30.3189220  67.7851257  68.4036407
  75.6666718   4.6401067  50.7568550  75.0047455   3.9694104  50.9249268
  75.4437790   5.3521662  51.3564568  34.5605736   9.5574236  29.0962124
  33.8523483  10.1901770  28.9767590  35.1335411   9.6939678  28.3416958
  69.9889832  34.1584892  60.8132439  69.2291260  34.6184464  60.4564705
  70.1455917  33.4418144  60.1983566  54.9137459  47.4555397  77.1550980
  54.6583748  46.8456459  77.8472366  54.2566872  48.1505241  77.1938400
   7.3693910  25.9435635  39.0041084   7.3205519  24.9887276  38.9579201
   6.6547122  26.1918602  39.5904655  73.7766190   0.3100867  19.5423031
  73.1892548  -0.2433892  19.0276184  73.6623993   1.1867491  19.1753578
  29.3602715  57.3601875  58.6097679  29.1967983  56.9015007  59.4338531
  28.6185398  57.1237602  58.0528374  57.1085815   6.5301929  47.1804848
  56.4844170   7.1606083  46.8210068  57.9447632   6.9960523  47.1833534
  17.5464687   5.3740582  28.6894016  17.1456604   6.2230248  28.8760586
  17.0941277   5.0628443  27.9053326  72.4317780   3.0151830   8.9261751
  73.3507004   3.0642438   9.1896315  72.0916519   3.8969235   9.0781031
  83.0254745  31.2760754  67.4267807  82.3188248  31.3654346  66.7873306
  83.3550415  32.1668625  67.5455856  21.7220669  43.7429276  16.5321007
  21.7281265  44.2743835  17.3281860  21.0966625  43.0421906  16.7166748
  44.2932854  21.3973026   8.2259674  45.0458755  21.5237007   8.8037767
  44.4600029  21.9794884   7.4846878  72.6255798  44.9969826  25.7659988
  73.5610886  45.1642494  25.8803596  72.2176361  45.8600655  25.8360195
  61.1351509  56.6361694  41.9082413  61.4405861  57.5303879  41.7555580
  61.8040924  56.0825272  41.5054665  39.8983955   8.6746817  79.1015625
  39.5789375   8.4000053  78.2420731  40.3571892   9.4980183  78.9346619
  76.1565781  53.5257607  77.9965134  77.0107651  53.3421059  78.3874817
  76.1940689  53.1123352  77.1340103  69.2442245  40.0760956  54.4157448
  68.6255035  40.3298950  53.7309074  69.8053360  39.4209633  54.0007858
  20.4532146   2.5594447  25.4909229  21.1877995   3.0295529  25.8854008
  19.7286167   3.1844635  25.5142231  83.3939896   2.7177529  42.7936668
  82.7844696   2.8482203  43.5200920  84.2420120   2.9959278  43.1396561
  82.6883087  34.7635841  48.5496521  82.3608627  35.5326042  49.0161476
  83.5950851  34.9820442  48.3345451  82.8912811  14.7616215  17.6523075
  83.1229248  15.6790133  17.5075226  83.3772507  14.5131073  18.4386330
  49.1500854  32.4599762  86.9708633  49.1593857  33.0832787  87.6972504
  48.2603645  32.5123024  86.6217346  71.7423630  14.1851959  51.4865456
  72.6647568  14.0475826  51.7021713  71.6970444  14.0617943  50.5384178
  22.6514931  52.1812439  67.7370911  22.8694668  51.3207970  68.0953522
  22.6982822  52.7723923  68.4884796   4.8797283  26.8912487  13.0332060
   5.6823702  27.4115543  12.9974346   5.1822462  25.9831791  13.0220394
  43.4195557  55.4751053  69.3206787  42.9770889  55.8314552  68.5503082
  42.8032570  55.6189842  70.0388107  64.6788330  54.7977829  10.5233221
  65.2439194  54.1789551  10.9858761  64.3197784  54.2942810   9.7927065
  10.1213903  67.2342834  16.9536858  10.3484001  66.4688339  16.4256802
  10.3167210  66.9713135  17.8530884  61.3584290  27.8372040  31.2031155
  60.7254639  27.1423569  31.3841629  60.8808365  28.6479511  31.3786945
  64.8076782   9.6182280  59.5818558  65.2737579   9.8249187  58.7717476
  63.9063950   9.4540339  59.3044281  42.8084641  55.5119209  87.5919724
  42.6787529  56.2820358  88.1454468  43.7138214  55.5839577  87.2897034
  27.5571499  12.4662571  47.3910255  28.1549740  13.1910238  47.2078552
  26.6857910  12.8276291  47.2286224   1.7737974  50.2236290  60.6986084
   0.8598917  49.9856148  60.5425415   1.8539666  51.1100235  60.3463249
  78.5304108  36.2106056  56.9483528  78.2681351  35.6240044  57.6578178
  77.7526398  36.2795639  56.3946877  53.5782661  60.2184448  68.8849869
  53.7734985  61.0066795  69.3917465  52.7489662  60.4135475  68.4486084
  39.4075012  24.1904869   7.0993147  39.0087318  23.4060040   7.4758830
  40.1169357  23.8581142   6.5493469  38.8656960  60.8754082  52.1979942
  38.0024414  61.1224823  51.8663635  39.4602089  61.0432663  51.4668236
  70.3450699  52.5858803  57.2451172  71.0182800  53.2314262  57.4602699
  70.2123489  52.6834145  56.3021927  15.6845350  67.6959152   0.7572229
  16.3808956  67.0569839   0.6052908  15.0387554  67.5131989   0.0747155
  28.7304573  21.2306671  26.2682838  28.6087532  22.0408535  25.7732925
  29.4559536  21.4201698  26.8632412   0.5118195  35.6794319  11.8372993
   0.9041899  34.8165474  11.9703684   1.2515244  36.2488136  11.6254663
  86.6206207  60.0669174  62.1491318  87.1039734  59.2579765  61.9811554
  86.6524353  60.5417900  61.3186378  10.9043102  63.0792236  52.5297623
  11.8060350  63.3918800  52.6030579  10.3680544  63.8593254  52.6715622
  43.8358116  68.4740601  37.1919403  44.4409561  67.7346497  37.2493820
  43.4660950  68.4131088  36.3111343  35.1301041  67.2492294  21.2529411
  34.4391747  67.8510437  20.9760590  35.7518158  67.2472076  20.5251350
  48.0744057  25.5246944  15.9371681  47.1385422  25.3886356  16.0850830
  48.2638359  25.0359898  15.1362219  61.9007225  10.0882607  17.8709812
  61.3455925  10.8678951  17.8862362  62.1058273   9.9583607  16.9450817
  71.2943268  34.1195107  73.4208298  70.5216217  33.6603508  73.7499771
  71.1561661  34.1734505  72.4751968  18.2219963  68.6567154  52.5275497
  17.9116344  67.7529373  52.5831108  17.8651600  68.9821167  51.7011032
   3.5424719  47.6601830  50.7237129   4.3479738  47.7774315  50.2200775
   3.6437421  48.2426682  51.4764977  64.4063950  11.6549587  49.8209534
  65.0520935  11.6531134  49.1143456  64.9001160  11.9232187  50.5958748
  50.1648560  20.5554276  65.4486542  50.3313141  19.8106956  66.0264893
  49.2319565  20.7396736  65.5580978   2.4843273  45.7730598  65.3070374
   1.9420468  46.5397301  65.1216202   1.8567802  45.0637703  65.4460602
  63.5473938  39.3696136  17.4511414  64.3731842  38.9442101  17.2202091
  63.3055573  38.9823799  18.2924480  54.2765808  51.1201324  79.5930939
  55.0469437  51.5830612  79.9224472  53.5665016  51.3932762  80.1739731
  62.3730736  18.3873291  77.2014923  61.8616257  19.1063442  76.8304520
  61.7560120  17.9202309  77.7647781  65.1585388  62.4841194  23.5938911
  64.8034821  61.6320763  23.3405342  65.7780838  62.2861824  24.2961845
  72.4004898  41.5817604  52.7328262  71.5554657  42.0260315  52.8019867
  72.8129654  41.9703674  51.9614105  84.4515533   1.7703751   2.9124687
  84.4316635   1.0524820   3.5452924  85.1466141   1.5303109   2.2996926
  81.7412415  50.8016281  69.3821640  81.3951416  49.9224129  69.5352249
  82.6880341  50.6779823  69.3149414  69.4327774  16.1781311  39.8188591
  68.7501068  16.0156212  39.1678696  68.9717789  16.1653919  40.6576385
  82.0332260  28.0635643  32.6342735  82.0029449  28.4415569  31.7553902
  81.9008560  28.8088112  33.2202072  70.3924332  44.3426094  87.0347519
  70.8646317  44.8307571  86.3602371  70.2887344  44.9663124  87.7534180
  45.2236824  11.7481318  35.5001297  44.4115715  12.1523333  35.1946335
  45.6809731  12.4498873  35.9634361  51.4640694  66.2579346  80.6098633
  52.3055115  66.4764786  81.0104141  51.0350723  67.1033096  80.4774475
  33.9453011  64.1297760  51.1867714  34.7170105  64.5813141  51.5285454
  33.6365891  64.6891479  50.4740105  59.2066612  25.0157108  37.5658531
  58.5315666  24.3589668  37.3950806  58.7213860  25.8314362  37.6896820
  67.3465652  46.5652122  36.5388145  67.1748123  46.7317581  37.4656372
  68.2961807  46.6488495  36.4524002  29.1503696  52.2437782  70.4596863
  29.4069443  51.8093834  69.6462326  28.5986290  52.9734268  70.1778564
  16.7075653   5.0317230  86.4039307  16.4518299   4.3285708  85.8069305
  17.0670338   5.7112479  85.8336182  11.6420898   8.4396210  47.3245888
  11.9725466   7.8735461  48.0221481  11.2040968   7.8420758  46.7185097
  57.2960510  68.1206284  16.3965225  56.4363823  68.0282135  16.8072090
  57.4592896  67.2702255  15.9886103  47.9658394  70.9687424   2.9597416
  48.5496788  70.2164917   2.8623455  48.5077515  71.6405106   3.3736179
  44.1744156   7.8842592  56.5565453  43.2328072   7.8554974  56.3869133
  44.3549805   7.0794454  57.0422440  81.1464157  60.4136047  44.4966621
  81.7157593  60.2086906  45.2383423  80.2949142  60.0510139  44.7410202
  73.2591782  34.5455017  13.4103642  73.7094803  34.1565971  12.6605539
  73.5796509  35.4469337  13.4410391   9.1329632  61.1439857  62.7204361
   8.7153749  61.8004608  62.1628609   8.4383812  60.5128479  62.9087219
  28.5405655  55.6411629  60.5193291  29.2866096  55.0414581  60.5211792
  27.9491577  55.2897835  61.1849098  53.7528229   1.2187474  53.1006393
  53.4878159   1.5501766  52.2426414  53.1163521   1.5937976  53.7093048
  13.4366207  55.8438301  87.5907516  14.0050077  56.1099968  88.3134689
  13.1734018  54.9499664  87.8097382  12.3361979   3.6806881  80.2896957
  12.4336004   2.7325671  80.2013168  13.0648727   4.0442462  79.7866135
   8.6178694  53.8645744   7.3829379   7.7468443  54.2480698   7.2805738
   8.7330637  53.7810516   8.3295040  28.1419220  69.5192032  51.6369553
  28.7078056  69.3482895  52.3898163  28.7439594  69.7739258  50.9377441
  79.8284531  29.3388863  63.6250839  80.0853577  28.5207615  63.1997490
  79.2142258  29.7443943  63.0131111  13.7786083  51.3991127  10.0328627
  14.3061562  52.1876945   9.9061184  14.2884264  50.7012062   9.6214705
  27.9056988  31.5107975  23.8738766  28.5077019  30.8379536  24.1918468
  27.2488251  31.0271397  23.3730545  14.9744053   1.8111092   8.2291641
  15.7375555   1.6228691   7.6829038  15.1672745   2.6607833   8.6255064
   4.4418879  48.8262863  66.3424149   3.4920177  48.7721481  66.2373047
   4.6949449  47.9668350  66.6793671  17.9987144  21.8304539  29.6114578
  18.8420296  21.5714989  29.2399826  18.1719437  21.9383850  30.5466442
  60.3582954   5.9022532  48.2024231  61.0578766   6.4938054  48.4797020
  60.6162376   5.6211333  47.3245468   8.1371651   5.3289666  19.8692894
   8.5473375   4.4762115  19.7250729   8.8646345   5.9508085  19.8510551
  82.4334335  34.6975479  16.5401440  82.5949936  35.6317253  16.6722279
  82.9360352  34.4760551  15.7562027  58.8965492  35.7595825  35.2413292
  58.2757187  35.0635681  35.4566612  58.3655434  36.5556755  35.2188950
  47.8155174  68.1912689  86.9734497  46.8693962  68.1150970  86.8498230
  47.9117661  68.7203598  87.7653122  60.4880371  45.5843506  87.0857697
  59.7884712  44.9455223  86.9488907  60.2461052  46.0347748  87.8949814
  13.3351870  39.5850296  19.8650703  13.2485361  39.1603699  20.7185268
  14.2485466  39.8693199  19.8306332  15.4077473  33.2345581  73.4318237
  15.6833286  32.6990318  74.1757965  16.2176094  33.6279182  73.1068268
  24.1268024  65.1965027  73.2540588  25.0760975  65.1019363  73.3323441
  23.8168068  65.2570038  74.1576462  24.7389545   5.7078176  39.0865784
  25.1019802   6.3728399  39.6715508  25.4541512   5.0844626  38.9594803
  79.0418091  11.9038105  29.6341400  79.9473495  11.7155972  29.8807316
  78.7575836  11.1258307  29.1543503  37.4229965  53.8556595  38.4649315
  37.4962234  53.4753227  37.5895958  36.5653305  54.2806435  38.4704361
  74.3861313  19.0034027  17.0157318  74.1230011  18.6752434  17.8755608
  74.4663696  18.2183266  16.4740238  66.5334778  44.1032677  36.8607025
  67.1623230  43.5387573  36.4111290  66.8417206  44.9923630  36.6854057
  40.5151367  63.5458069  74.9821854  40.1782112  62.7015076  75.2819748
  40.9905853  63.3416672  74.1768875  54.7810974  56.4387856  50.5668755
  54.3457184  55.6319580  50.8420258  55.3279800  56.1754227  49.8267441
  48.6088486  16.3823891  43.9410782  49.1721687  15.6496944  44.1901932
  47.7407265  15.9926624  43.8375969  41.5094872  12.3590641  27.9430847
  41.9764366  12.9670353  27.3698845  40.6918831  12.8095446  28.1548061
  60.1086655  52.4212189  60.3978539  60.8887978  51.8830910  60.5321808
  59.4039574  51.9314537  60.8218231  59.3152122  67.7039261  29.7295971
  60.0841255  67.4023132  30.2133713  59.5879860  67.6880188  28.8122253
  42.1824265  69.7923965   9.1411257  41.8592758  69.6356049  10.0283794
  41.5600967  70.4155884   8.7662001  20.5899677  60.7872734  54.5095444
  19.7562561  61.1281357  54.1855507  20.4967804  60.7922440  55.4621811
  73.7419510  14.7917318  70.1608276  74.1093216  13.9121428  70.0737076
  73.7873840  14.9784727  71.0985336  74.7339478   9.9686584  20.9590073
  74.8055573   9.4542027  21.7630215  73.9945679   9.5803785  20.4912682
  70.9899979  36.5438805  63.8299408  70.9534988  36.5354576  62.8734741
  71.8909836  36.7952766  64.0330429  77.8859787  51.0764084  84.8352966
  77.3340759  50.3304672  84.6003418  77.5268173  51.3877945  85.6661301
  35.2174606  23.0389404   4.8482890  34.8651428  22.8016758   3.9904964
  36.0477638  23.4738770   4.6542249   3.6864464  31.8853588  79.2462540
   3.4047384  32.7622223  79.5069885   4.0536251  31.5046444  80.0440445
  59.0764885  51.1296921  24.7390366  58.2358208  51.1853561  25.1933632
  58.9556618  51.6530266  23.9467278   9.4662962  53.1873360   2.5166752
   8.9124765  52.5397606   2.0805991   8.8635340  53.8866196   2.7694860
   2.4432185  21.8341255   9.4400978   3.3210962  21.9469872   9.0756464
   2.4663663  22.3077583  10.2715836   5.2694435  37.2981262  39.7448387
   5.8263888  37.8036079  40.3368950   4.8125267  36.6799545  40.3152122
  40.2613831  71.4066467  55.3367386  39.5601883  71.4575043  54.6871452
  41.0639343  71.5472870  54.8343811  20.2913818  55.1538773   4.4401712
  20.7529182  54.3196640   4.3546805  20.8255539  55.7749748   3.9450703
  42.7935600  14.3804855  26.3255558  43.7432251  14.3350019  26.4364681
  42.5229874  15.1149988  26.8764744  81.1129990   7.5007892  62.2835732
  80.2498474   7.9103355  62.3424568  81.4381104   7.7505665  61.4186172
  31.2827778  67.9527817  39.8064461  31.0425434  68.4639206  40.5792656
  32.2190056  67.7840271  39.9124336  12.8639936  42.6441879   7.4777374
  12.7295923  42.6098480   8.4248323  13.4317865  41.8970070   7.2891545
  70.8990555  13.7808838  25.8647690  70.8125458  13.0367918  26.4606514
  71.5810776  13.5155916  25.2477665  71.7945328  61.1606865  17.9510727
  71.2784576  60.5106888  17.4742088  72.2549133  60.6559792  18.6215553
  13.5660944  32.9296112  78.5036087  13.4174032  33.7243919  79.0158997
  14.0792675  32.3647499  79.0813751  61.8631973  47.4616356  48.7330551
  61.0702095  47.0159225  49.0309525  62.0361748  48.1188049  49.4071770
  71.2983704   1.9189525  41.5802803  71.0575638   1.1991398  42.1634750
  70.6491776   1.8853819  40.8776741  65.0020447  11.3454056  82.7589951
  64.3991852  11.5547667  82.0455780  64.8702316  12.0462980  83.3974304
  49.3346367  55.3488960  33.7712326  49.6873245  55.8841171  34.4821320
  48.3850861  55.4025269  33.8794479  74.4870758  66.0015259  85.4870224
  75.3816299  66.0495148  85.1498260  74.0484619  65.3727798  84.9138489
   8.7533808  46.5520210  48.3888092   9.5257654  47.0079803  48.7231026
   8.6233435  45.8239708  48.9964828  33.1924973  68.9739380  20.5143852
  33.5396500  69.7260818  20.9939594  32.4501686  69.3252563  20.0226955
  69.1754227  38.3901329  37.2006721  69.6717682  38.5529785  38.0027657
  69.6417542  38.8837509  36.5260544   7.9375792  60.8787613  47.6587677
   7.6163921  60.6105347  46.7978821   8.3280106  61.7401390  47.5110283
  59.3687439  57.6239929  63.1034355  58.4656219  57.3226967  63.0043297
  59.4465637  58.3537674  62.4889374  60.1822205  30.3321877   4.0535064
  60.9225845  30.9346333   4.1253052  60.2110138  30.0242081   3.1476636
   4.0895061  40.4312248  67.0644379   3.6709056  39.9078331  66.3810120
   4.9655452  40.0553703  67.1511612  21.6471786  57.5656776  82.5231476
  20.8225288  57.1280479  82.3118134  21.9989319  57.8362694  81.6750412
   3.8502793  22.1288776  19.9581966   3.2489555  22.6917171  19.4704952
   3.6161189  22.2666779  20.8760262  62.9183617  66.3810883  48.6628952
  62.9107857  65.7967987  47.9047508  63.5252838  65.9683456  49.2773209
   6.0089698   3.8545971   6.3378386   6.6933732   3.5985811   6.9561257
   5.6955867   3.0276551   5.9715190  74.9644699  32.9882545  39.3766251
  74.3474808  33.5806503  38.9469414  74.6457901  32.9222679  40.2768059
  26.5008469  34.9657784   3.9472229  27.0786228  34.5376091   3.3154976
  27.0762386  35.2062645   4.6733932  43.9540672  65.1378098  33.3903198
  44.4620552  65.0805969  32.5810547  43.0483055  65.2393036  33.0978775
  50.7942162   1.2122911  45.1917877  50.9664116   1.8386722  45.8948021
  50.4276962   0.4479797  45.6364479  16.4312019  65.5370636  31.2477417
  16.0582657  66.1527557  31.8786716  15.6774349  65.0514374  30.9127274
   1.0752507  41.0611687  45.3352470   0.9782407  41.9289398  44.9430847
   1.4054348  41.2324638  46.2172165   0.4623942  68.3942719  35.0789833
   0.8122419  67.7916718  35.7352676   1.0618271  69.1403656  35.0951691
  57.9607697  41.5562859  32.9259644  57.3930779  42.3057556  32.7463799
  58.1006355  41.1512375  32.0700417  31.3176880  60.9366379  72.3291321
  30.6561108  61.5750389  72.0626907  31.1724052  60.8187485  73.2678680
  35.6379776  51.7418671  34.0316696  34.6944046  51.8187637  34.1730576
  35.7799072  52.1074677  33.1585007  43.4870224  47.0826912  85.6898422
  43.7282524  46.3324623  85.1465225  42.9894562  46.7035866  86.4143677
  25.5294228  58.0900345  16.5376072  26.3031902  57.9688911  15.9872980
  25.3290863  57.2133522  16.8655186  53.0701942  18.1783295  70.3123779
  52.8167877  19.0480118  70.6216888  53.4175873  18.3286247  69.4331970
  70.4763260   4.6650572  48.3601913  71.1365509   4.1895051  48.8643646
  69.7221832   4.7221737  48.9469070  71.2209396  67.9949417  26.6355057
  71.5059280  68.1060104  27.5425205  70.6971893  68.7747955  26.4518051
  65.9794617  39.8294182  76.5876770  65.0282898  39.7645798  76.5022049
  66.2325821  39.0341263  77.0563660  78.6681671  18.0075970  63.1195374
  78.1536865  18.2845039  62.3613396  78.2252884  17.2197037  63.4346809
  77.1760483  52.7472572  26.6414547  77.0864716  53.6892471  26.7859001
  76.6006317  52.3490143  27.2945461  56.8401070  54.1458626  44.5613937
  57.5860634  54.5355415  44.1054039  57.2146759  53.7759972  45.3608513
  59.5074768  52.5099030  53.9345436  59.5220337  52.8823433  54.8161926
  58.7208328  51.9647942  53.9177704  36.0474167  25.6080303   5.1519771
  35.3956566  24.9553566   5.4078269  36.4305305  25.9008503   5.9788446
  42.5489845  67.9009247   6.7950373  42.6426163  68.5927429   7.4499083
  41.6873016  67.5219345   6.9685249  52.1147423   5.3125129  79.9476776
  52.7012329   5.9875007  80.2892227  52.5531578   4.9904447  79.1600952
  75.7313232  26.5128975  78.2148285  76.3252182  26.3420238  77.4838562
  75.2482300  25.6942444  78.3273392  12.1295576  27.3882923  78.3591309
  11.6790638  28.2236633  78.2348633  12.9571028  27.6226177  78.7792358
  40.4814072  28.0094223  77.8328094  39.8736458  27.2970467  78.0312500
  41.3290405  27.5780296  77.7248917  72.5597992  31.8701134   6.3733044
  72.0379105  31.4705715   7.0691681  72.4393387  31.2908192   5.6208835
   5.0016971  53.2005157  72.3837128   4.1800170  53.4786110  71.9790726
   5.2775421  52.4421272  71.8689423  57.2378044  22.2421017  64.5728760
  58.0223427  22.1511917  65.1136856  57.3712311  21.6267262  63.8519478
  65.0121384  37.9130020  89.2092361  65.3778229  38.6870651  88.7810669
  64.5947113  37.4223824  88.5012207  61.5900497  17.5230083   1.9876359
  62.0406456  18.3013325   1.6599048  60.9170647  17.3417912   1.3315247
  18.9217606  54.3440895  39.0361977  18.0867062  54.5072060  38.5976677
  19.3352890  53.6555786  38.5154495  12.3464985   2.7241321  49.9751511
  11.6374083   2.5579693  50.5962906  12.5908499   1.8565556  49.6529160
  30.4201736  55.6457558  36.4793892  31.3703423  55.5797005  36.5745087
  30.2266083  55.1694527  35.6719856  31.9418354  52.2401543  78.8377075
  31.4587555  52.6924744  79.5292816  31.3192863  51.6024551  78.4884262
   9.0975084  68.7651978  48.6496620   8.2831440  69.0904922  48.2659607
   9.5137749  69.5423279  49.0225182   7.8076801  40.7077370   7.9072208
   7.7673178  40.4429665   6.9882545   8.7435818  40.7486305   8.1038084
  55.3664246  59.2190094  39.4348793  54.5624962  59.1850967  38.9164429
  55.2872581  58.4879608  40.0476875  77.7868271  67.9927063  16.5456886
  78.5935135  67.7852783  17.0173550  77.9152527  68.8885651  16.2339611
   7.2322650  13.8243132  69.7950516   7.7246909  14.1440506  70.5510330
   6.3209276  13.8188009  70.0877380  47.5632286  64.4143448  74.1574783
  46.6985435  64.7388687  73.9060135  48.0999908  65.2025070  74.2406235
  70.4921570  26.9966068  43.7523460  71.1246338  27.7109489  43.6754036
  69.7496262  27.3831024  44.2165756  15.8036566  40.7041473  72.6385574
  15.0361528  41.0501709  73.0940094  16.0651836  39.9418564  73.1550293
  34.6601868  33.9564667  20.3628540  34.3218956  33.8771782  19.4709435
  35.1659927  34.7690811  20.3558121  57.2086868  48.6179733  72.4475098
  57.3683701  47.9420280  73.1061707  57.0462685  49.4132042  72.9549179
  73.8561554   4.9174008  12.5805521  73.8176422   5.8497491  12.7938032
  74.2954941   4.5179348  13.3313150  16.5597610  32.3937874  57.6499138
  16.0321579  31.5958385  57.6160583  17.3423328  32.1428413  58.1406670
  50.4533234   5.8768110  59.0445557  50.4155388   5.8848786  58.0881348
  50.3295670   4.9576697  59.2813988  48.6064568  17.4622192  71.9747925
  48.5361824  16.5077515  71.9578705  49.1300354  17.6775494  71.2029572
  56.1547050  64.3218002  70.1237869  56.9022713  63.8466873  69.7609558
  55.7248917  64.7100296  69.3617096  27.3288422  11.6714373  87.7409134
  26.6923084  11.1313801  87.2725143  28.1622181  11.2154026  87.6236496
  25.4327393   0.3005913  87.0946426  24.9774208  -0.2775632  86.4825516
  25.6851978   1.0577407  86.5662231  45.0671539   1.2212895  49.1698799
  44.6558762   0.4160970  48.8556404  45.2540970   1.7207450  48.3750038
  59.7190475  18.4483032  51.0420799  58.9086533  18.9347210  51.1933746
  60.3176155  19.0920582  50.6632271  36.8147240   2.9483593  64.3461380
  37.6120338   2.5031931  64.0591660  36.4847603   2.4090779  65.0648346
  40.3955956   5.9300208  88.5380325  39.4528694   5.9886079  88.3829041
  40.7540665   5.6017241  87.7134399  66.8479462  62.1777153  33.5359192
  66.3191605  61.4810486  33.9248505  67.0106812  62.7858353  34.2569885
  10.3793287   1.8387091  63.1861877   9.5613880   2.0420222  63.6399155
  10.3945255   0.8829159  63.1365852  65.4921722  66.1572876  45.4065285
  66.0683975  66.0683899  46.1656685  65.4874649  65.2877960  45.0062790
  84.9031601  32.3846436  29.7336884  85.1071854  32.6173706  30.6394711
  84.7203751  33.2216072  29.3067074   5.7061357   0.0570304  80.1287842
   5.3505955   0.4873592  80.9063721   6.6154194   0.3529988  80.0859070
  73.1463394  27.9240551  34.9068298  73.7002869  27.1823254  34.6634903
  73.6570740  28.6953049  34.6607399  11.0471945  55.2801895  85.9672165
  11.8812761  55.6844978  86.2061234  11.2911282  54.5314865  85.4230042
  13.7900095  21.4745903  15.9819031  14.1226845  20.8459969  16.6225529
  14.5085545  22.0950718  15.8597269  76.6157303  16.3754196  67.3162766
  75.7071991  16.1451435  67.5106354  77.1245117  15.9420214  68.0015106
  16.3701229  26.3979359  58.8268242  16.6384449  27.2678528  58.5310555
  15.7269106  26.1122169  58.1780777   1.9131734  40.0863533  85.7210388
   2.4532409  39.3347244  85.4768753   1.0660610  39.9165535  85.3089752
  33.8665962  47.2648659  66.7608337  34.6468391  47.0938606  67.2882919
  33.8445358  48.2172585  66.6675873  80.6807098  28.0458908  15.4778490
  81.4992371  28.4953804  15.6880903  80.0541916  28.7516308  15.3177233
  49.4082451  60.4028931  52.3907204  48.5420456  60.8089561  52.4229813
  49.3159637  59.6918221  51.7566109  55.7376747  16.6715393  50.9795494
  55.1018410  17.3862934  50.9467354  55.4182549  16.0986385  51.6766777
  69.6295624  17.9236908   2.5811651  68.7748184  18.3007946   2.3727562
  69.6508331  17.0972843   2.0986400  25.4658680   3.3866186  87.6304245
  25.7760696   4.1893926  87.2114258  24.6355038   3.1944976  87.1947479
  78.2409210   1.7257094  85.1922302  78.6339340   2.3434050  84.5756073
  78.9509964   1.1228817  85.4127350   3.0797262  45.1164131  10.9361467
   3.5875483  44.3540230  11.2138319   3.5509593  45.4534912  10.1742077
  23.6875381   5.6923718  36.5075340  24.2748547   5.6799383  37.2632713
  24.2722931   5.6910172  35.7497139  27.6268749  48.3397636  86.0653839
  28.0218353  49.1863174  86.2741623  26.8786926  48.2717323  86.6585312
   6.8859506  39.3576698  78.5729828   6.2539363  39.7556686  79.1716385
   7.3416395  40.1005898  78.1771927   0.9992445  38.1477013  73.4918289
   0.4605884  38.8973999  73.7448883   1.5482963  38.4766388  72.7800827
  65.9541855  10.0463438  18.4381561  65.7338562  10.4722939  17.6097527
  65.1403046   9.6253414  18.7149010   7.0738521  37.8813438  13.9507971
   7.5458722  38.7138748  13.9686718   6.1501303  38.1287918  13.9924965
  76.8663025  44.3807068  35.6101799  76.1625900  44.8232727  35.1356735
  76.4186783  43.8896790  36.2992058  56.3165665  19.2878895  18.2602406
  55.8878670  20.1200962  18.4599419  57.2110443  19.3955936  18.5835743
   3.8884141  23.4063988   6.4712849   4.0928440  22.4713593   6.4832320
   4.0110159  23.6899681   7.3772593  84.2407303  62.9926033  68.4720383
  84.6016006  63.8070869  68.8222046  84.8795929  62.7092628  67.8179703
  73.1746445  50.8161125  76.9900131  72.3034134  50.6828842  77.3634338
  73.5961990  49.9591141  77.0538406  43.0023727   9.4902678  35.0952911
  43.3850403   9.0022011  34.3661880  43.6850433  10.1095715  35.3534622
  86.5048370  26.6150875   1.3417864  87.2271271  26.0285912   1.5666480
  85.8489914  26.4587936   2.0212448  30.9549580  11.2202806   1.5291102
  30.2169952  11.2562571   2.1376724  31.6431007  10.7644625   2.0137966
  69.3323288  68.0656891  61.1089592  69.5499039  68.4968109  61.9354134
  68.4352036  67.7546539  61.2299919  82.4261017  47.5442123  37.8158722
  83.0919189  48.1449585  37.4811592  81.6968918  48.1109505  38.0674553
  14.5253334  59.1482086  15.5877037  14.3013020  58.4971924  16.2527008
  14.7234945  58.6332245  14.8055544  55.7074127  59.0663719  20.9376965
  56.4017029  59.6617813  21.2199707  55.6607056  59.1855087  19.9890900
  52.0906181  46.6812363  84.3946915  51.5752754  46.5954666  83.5926361
  52.7675362  46.0088844  84.3174973  10.0956125  64.5988312  66.7150650
   9.2803621  65.0765305  66.8680573   9.8604908  63.9203491  66.0821304
  78.9497681  51.7672348  32.7064934  79.8342743  51.5684319  32.3993073
  78.3795242  51.4932327  31.9881802  84.5289536  50.7242584  34.3313217
  83.6761093  51.1585007  34.3494110  84.3216705  49.7899475  34.3133316
  76.9165573  67.1280823  25.1963139  77.3238297  67.2727280  26.0503864
  76.7227783  66.1908569  25.1790161   8.0094090  59.5145836  86.0461807
   8.2822733  59.0805893  86.8545303   8.8287363  59.7803192  85.6286621
  46.2177391  64.5955963  44.5320206  46.2177620  64.2845917  43.6267586
  45.3980942  65.0824509  44.6179924  83.5694046  54.1513748  84.9077759
  83.2939682  54.8900871  84.3649445  82.8655777  53.5094910  84.8137436
  55.2184143   8.5090513   6.4826789  55.5813942   7.6530666   6.2551589
  54.3201447   8.3232622   6.7562256   5.7019725  10.5477037  69.4053574
   6.5326676  10.0722132  69.4146042   5.9544129  11.4709969  69.4114075
  47.0583878  68.0897369  46.0214653  47.6263542  67.7263031  46.7008476
  47.6533737  68.3113327  45.3051376  18.6363239  17.2479305  59.5497589
  18.9897556  17.4856148  60.4069786  18.4966145  16.3024273  59.6020775
  67.5333633  61.8903084  58.3934898  67.7202759  62.4013596  59.1809692
  66.5776978  61.8647156  58.3457947   1.6926402  55.1741562  87.0480576
   1.0429316  55.0397644  86.3580933   2.5273798  54.9465218  86.6386414
  55.7741661  15.0168219  44.7636070  55.2073097  15.7880774  44.7719765
  55.2692604  14.3435211  45.2196426  26.4398365  60.0790939  18.1390190
  26.0090714  59.6552124  18.8813114  26.5638905  59.3764687  17.5009270
  66.0061493   1.0627508  26.4000969  65.1013412   1.2709622  26.1672688
  66.2100525   1.6561122  27.1229916  71.8440552  18.1667042  83.5001602
  71.7995758  17.3056221  83.9158478  71.5502090  18.7753448  84.1779861
  65.1522141  61.5963936  87.2943420  64.3868332  62.0579796  86.9517746
  65.4471283  62.1341400  88.0292511  38.9069939  58.7676620  31.5656528
  38.7427025  59.1799316  30.7175541  38.0512276  58.4402504  31.8425961
  47.0897827   8.2184629  68.0630188  46.3018913   8.4914875  68.5330429
  47.5477982   9.0360565  67.8680954  81.2594528  13.7069330  72.2589951
  81.7337189  13.8549852  71.4408340  80.4592133  14.2243710  72.1689606
  53.4085083   3.2974072  34.2746925  53.4813271   4.2517819  34.2648048
  54.1226158   3.0085890  34.8429070  60.8670807   1.7817169  26.0626202
  60.7218018   2.6019785  26.5341053  60.0284462   1.3233128  26.1154671
   1.4699214   6.6899509  41.3426094   1.4073739   6.2771654  40.4812584
   0.5778685   6.6591101  41.6883278   4.9098859  47.0745125  28.3836327
   4.7346311  46.1861267  28.0733261   4.9940586  46.9844131  29.3328571
  17.1710167  10.7530155  67.2476578  16.4136524  10.1723995  67.3219223
  17.9248466  10.1848602  67.4063187  41.0211334  15.5445595  37.7669754
  41.6792450  15.2115469  37.1568756  40.1883621  15.2271996  37.4176750
   3.2408879  11.0350285  34.0674133   3.7769232  10.6494732  34.7604103
   2.3396161  10.9129534  34.3658066  80.1173172   7.8362584  59.0001526
  80.3629990   8.6615992  59.4181061  80.8062134   7.6805882  58.3540726
   7.0327196  68.2801514  76.6712799   7.3179369  68.3751297  77.5800476
   6.3966432  67.5652008  76.6933517  25.2449455  33.7604980  79.1462402
  25.9179878  33.0873871  79.2470703  24.8432617  33.8291931  80.0123596
  13.9170017  70.8012009  84.6607132  13.1870050  71.3261871  84.9889374
  14.6395082  71.4231110  84.5744247  13.9610186   7.0458837  71.8866272
  13.6851587   7.2997246  71.0058899  14.5303841   7.7595420  72.1742859
   8.1563778  40.4043770   3.2004018   8.1686058  40.0817223   4.1014991
   7.3578439  40.9292336   3.1447499  74.5728302  39.7686615  52.8549728
  73.7651215  40.2518997  53.0291061  75.0652695  40.3323288  52.2583046
  21.8291931  50.5378456  85.4885101  22.4356461  50.9325676  84.8619003
  21.1102276  50.2069893  84.9501343  74.6080170  61.7394295  35.4461250
  73.7450638  62.1479874  35.3780518  74.5917206  61.2841415  36.2879562
  38.3043327  63.4490662  81.3970261  37.9278526  64.3215256  81.5124130
  38.6557503  63.4556885  80.5066910  16.9562912  15.5031862  41.1803551
  16.4075966  15.0060062  40.5737419  16.4859486  16.3269405  41.3085747
  30.4003601  67.8509064  65.3771591  31.1913433  68.1906662  65.7956543
  29.8664474  67.5260773  66.1021805  36.3986778  33.4433594  31.6156197
  36.4882736  32.9069290  32.4033012  36.6681480  32.8663826  30.9009743
  46.3925285  40.8316345  76.8924408  46.3914223  40.3725204  77.7323532
  47.0986443  40.4191666  76.3949432  60.9550972   0.8922092  88.8224716
  61.3716240   0.0309181  88.8526993  60.9227257   1.1100432  87.8909531
   9.5936890  29.1951275  26.2588634  10.4019079  29.0461693  26.7496033
   9.4094782  28.3544369  25.8398914  64.9735336  21.6264477  31.2846260
  65.2713242  21.0992889  30.5432396  65.7744751  22.0072403  31.6448059
  79.4905701  19.9157619  11.3008165  78.8305359  19.3211727  11.6572475
  79.1296463  20.7900543  11.4477148  19.2890968  28.9509754  14.9856501
  18.8133736  28.2868633  15.4845200  19.1142197  29.7698479  15.4494362
  80.6520157  53.5958214  64.1125412  81.3836441  52.9805870  64.1619186
  80.8715973  54.2803116  64.7445908  31.5824852  70.7158661  43.8955536
  32.5318184  70.6834412  44.0136528  31.3059788  71.4880524  44.3890114
  54.1960411  22.5841732  65.0146255  55.1346741  22.4835415  64.8562775
  54.1094170  23.4591808  65.3928986  11.0133400  50.1522598  17.1164188
  11.1067924  51.0024490  16.6866779  11.4157915  49.5314026  16.5091324
  16.9762249  62.1434593  10.3524504  17.4334888  62.0529633   9.5164165
  16.4572067  61.3428802  10.4294586  63.3969231  67.9024582  10.3972731
  64.0038986  68.5102844  10.8195992  63.0056686  67.4131470  11.1209660
  73.4384232  12.2642269  63.3878822  73.8552856  11.4276943  63.5944481
  74.1075592  12.7535505  62.9092865  64.3490601   5.9341950  75.4807816
  64.8823166   6.7264147  75.5460358  64.6521606   5.3814530  76.2010880
  17.3706188  32.0996933  33.6705627  17.3573437  31.8454285  32.7478447
  17.5043545  31.2782784  34.1434517   1.5693626  34.5081291  24.0926323
   1.7891080  35.4300919  24.2265263   2.4149859  34.0598221  24.0794983
  12.8076754   1.9611075  56.6853981  12.0666819   1.8694987  57.2843742
  13.5396442   2.2158778  57.2471352  73.1964951  71.4748840  47.7953377
  74.1208954  71.5056839  47.5488358  73.1386108  70.7499847  48.4177513
  19.2429256  15.7180777  88.3415146  19.6915836  15.3137617  87.5989075
  18.9281273  14.9792280  88.8623199  72.6048737  58.5359840  86.8345184
  71.7605743  58.5196190  86.3838348  72.3967133  58.3111267  87.7413483
  16.5783558   1.0855474  35.0628510  16.2601414   0.6628647  35.8605423
  17.3139534   1.6242231  35.3543243  49.4985924  30.0307026  84.1403046
  48.7436981  30.5480938  83.8598099  50.2511749  30.6014252  83.9849625
  84.4162827  66.0949249  21.0077915  83.6009750  65.6001129  20.9261322
  85.1055603  65.4352646  20.9305153  27.4314079  64.7890778  53.8547325
  27.4447289  63.9153633  53.4640007  26.5169830  64.9270706  54.1017494
  42.1359978   0.7707428  82.1080170  42.8773117   0.3439658  82.5376053
  41.8829117   1.4722886  82.7080231  61.1627083   1.4661410  17.8183041
  61.2989769   0.5416854  18.0257778  60.2568092   1.6382436  18.0751266
  26.3106079  25.2885094   1.9991739  26.7729874  26.0387020   1.6254803
  26.9720974  24.8358250   2.5223770  64.5290146  39.1688728  83.5307999
  64.9643173  38.7257347  82.8025284  64.9685059  40.0169945  83.5922241
  79.2546082  54.6370811  56.6444931  79.7808990  54.6227798  57.4438934
  79.2132263  55.5620003  56.4014931  83.4750977  42.4079094  88.4884491
  84.1709137  42.2312317  87.8553238  83.0873108  43.2321472  88.1943741
   1.5233897  33.4947853  27.6268482   2.2361274  33.5976753  28.2574444
   1.8988988  32.9621353  26.9257736  85.2797699  31.9805546  73.5235367
  84.9703598  32.4384193  74.3051147  85.4608688  31.0898552  73.8236923
  76.9880981  19.3277855  58.7554512  76.2459946  18.7828732  58.4935570
  77.7051315  18.7078743  58.8888931  57.3348198  -0.0829509   8.0285597
  57.0792809   0.8377113   7.9710021  58.2910194  -0.0691564   7.9871058
  66.5241547   2.7787590  79.4220734  66.9179535   1.9071546  79.3838577
  66.9003220   3.1773403  80.2068405  61.8931007  65.3394699   5.8141508
  62.6919899  65.3796692   5.2884216  61.6828232  66.2544785   6.0006599
  30.1540184  34.7502785  22.3367958  30.3997402  35.3182487  21.6065483
  30.5841827  35.1394653  23.0981922  62.0123940  47.7198334  86.7717514
  62.1220322  47.7586708  85.8216476  61.3657303  47.0278015  86.9101410
  78.1713638  11.9440355  61.5597191  79.1214905  11.8602962  61.6401939
  77.8295746  11.1077204  61.8759346  62.7395325   8.0976229  76.0796814
  63.1740685   8.4306412  76.8648605  63.2232628   7.3021264  75.8573761
   1.2735187  26.8844795  37.0042000   0.9507315  25.9938889  36.8667641
   1.4212538  26.9426918  37.9481354  45.2688942  70.1548386   6.5523024
  45.5884705  69.7140656   7.3395915  44.3153648  70.1107025   6.6234465
   9.3382549  42.9862251  67.4848404   9.2241240  42.9418221  66.5354996
  10.2815332  43.0925217  67.6079559  83.1190109  57.3824615  20.1296558
  84.0279541  57.4738693  19.8438225  83.1200867  57.6939316  21.0347633
  63.1672859  28.9148102  26.6883831  62.9952087  28.1973324  26.0785904
  62.4154625  29.4989033  26.5892677  68.7001038  52.9593124  78.4205322
  68.4787216  53.6575623  77.8043594  68.0489044  53.0395355  79.1174774
  69.7842255  30.6638775  71.9797058  69.7458115  30.6769829  72.9360428
  70.6236420  31.0723343  71.7680969  12.7786713  55.3906097  37.3263245
  13.0841637  54.8203468  36.6208420  12.1910868  56.0111923  36.8952179
   6.6715446  69.4349899  66.1451645   7.3165364  70.0841904  65.8645325
   7.1818957  68.6388702  66.2933655  80.5636139  71.5531158  37.0218315
  80.9984207  71.2506485  36.2245331  81.1377487  71.2653885  37.7316322
  36.3810730  38.2040253  88.1534119  35.9777069  38.3612823  87.2997208
  35.6761284  38.3555450  88.7829590  18.8038387  42.3402901  33.1871948
  19.4223499  43.0510330  33.3560753  19.3411064  41.5481415  33.1957550
  71.1990128  43.9962425  82.6695480  70.4774780  44.5511208  82.3733521
  71.9791183  44.5405807  82.5629807  86.4034576  35.8430138  22.6443081
  86.7384644  35.6160469  21.7768478  87.0140381  35.4273911  23.2531433
  14.5483580   7.3543139  55.9047775  13.8287668   7.6384649  55.3411446
  15.2313814   8.0113935  55.7707748  84.4862900  61.4670448  46.7502899
  84.6119690  61.6537971  47.6806450  84.1931381  62.2981186  46.3766479
  61.4406509   5.3854833  15.2394152  60.6837997   5.6148586  15.7786674
  62.1933746   5.7142720  15.7308807  24.0614510  21.7839508   2.2635837
  24.5698814  21.4538670   3.0043769  23.7186432  22.6255207   2.5643718
  54.7369347  58.6537781  60.8552399  54.9638557  57.8823929  61.3745728
  55.5732346  59.0931206  60.7009354  32.3443298  34.7554550  17.8274708
  32.5380745  34.1790886  17.0882149  33.0962257  35.3459587  17.8742580
  30.0345325   9.8103886   4.2028065  30.3932724  10.6924095   4.1049514
  30.5872803   9.3993864   4.8674698  36.0159416  65.4336472  38.2660751
  35.7980614  66.2066650  38.7868500  35.2555046  65.3046112  37.6992264
  30.8633881  12.3400402  72.0085602  31.6198864  12.8464651  72.3043213
  30.4105453  12.0929050  72.8148422  39.5532455   2.6647372  41.8077774
  40.1447639   2.7314949  42.5573654  38.8169327   3.2336533  42.0322990
  22.0150681  44.4977989  77.0015030  21.1588211  44.1158066  77.1942673
  22.5457497  43.7585869  76.7045593  34.3935165  58.4825249  38.0924072
  34.0454483  58.7947731  37.2571983  34.8149414  57.6497612  37.8799400
   2.4578514  25.1395664  50.0723763   1.6182401  25.5159740  49.8085518
   2.8509355  24.8342381  49.2547607  46.7367821  17.4005966  41.7607155
  46.4922409  18.1982384  42.2299690  45.9880333  16.8155880  41.8763657
  19.2518425  12.3906889  25.1469212  18.4838181  12.8020000  25.5433979
  19.0183678  12.2864990  24.2244968  65.0540009  64.8719101   1.7535305
  65.7414169  65.3039551   1.2465522  65.2123108  63.9368782   1.6235585
  62.3327408  65.0063019  27.3020420  62.6445770  65.3764572  26.4762249
  61.8107491  65.7053375  27.6958790  72.0963287  37.5746384  57.2879677
  72.8804855  37.0977478  57.5598373  72.1892242  38.4378777  57.6909828
  30.7501030  44.7216530   9.3404245  29.8749352  44.6091537   9.7114449
  30.6338692  44.5703049   8.4024401  67.9473953  41.8884048  44.3281860
  68.3432236  41.0340767  44.1559105  68.3320465  42.4676323  43.6703339
  71.6400757  48.6876984  51.3635902  70.8722305  48.5153732  50.8186607
  71.2831192  49.0627174  52.1686859  68.9386139  34.8308945  30.0071297
  68.3988342  34.2397308  29.4823494  69.7244110  34.3226624  30.2082672
  36.1966438  65.7106247  84.2627029  36.1158180  65.7391739  85.2160568
  36.6894188  66.5005417  84.0403442  43.7060928   8.5375214  87.8090897
  43.6166992   9.0127621  88.6351547  43.0879250   8.9668484  87.2176666
  76.2943420  12.9604740   1.0302336  75.4884796  12.5731258   1.3719752
  76.7485733  13.2910805   1.8052205  75.0398407  17.2457962  63.0172157
  74.2846603  17.7816868  63.2596169  75.5909576  17.8301220  62.4965858
  65.2522125  28.3070755  72.8943176  65.5236893  27.7812214  73.6466522
  65.4023361  27.7392311  72.1385117  49.6784897  14.3651476  39.9413261
  49.4356918  13.4447260  39.8408051  48.9201622  14.8498631  39.6154099
  76.7146606   9.2814455  65.4757538  77.3115082   8.7462387  65.9987793
  76.3477631   9.9091072  66.0983734   3.5739274  67.8028641  20.4334507
   4.0514979  67.2115631  19.8516254   3.0073199  67.2273788  20.9472656
  52.2410927  37.6999550  13.5097294  51.4343338  37.7826576  13.0012674
  52.1593666  38.3604240  14.1977196  21.4608059  21.9522610  86.9354935
  21.6571941  22.6253319  87.5871353  21.4962139  22.4129295  86.0971832
  23.0119896  49.0129242   2.7489529  22.0732479  48.8444519   2.8302851
  23.0836201  49.6183929   2.0110443   4.7841959  28.4265118  80.3182220
   5.2801685  28.8449497  79.6145554   5.3012371  28.5916462  81.1066589
   3.6765254  31.3950424  38.7887154   3.5002680  30.7042961  39.4274940
   4.6047916  31.2949333  38.5776939  73.0320282  19.6024189  58.1669769
  72.3615112  18.9259396  58.2619095  73.4856644  19.6099567  59.0098190
  66.1244965  51.1102104  79.6352005  66.8133774  51.5342789  80.1468964
  65.4803085  50.8309975  80.2858047  74.9736481  59.7346916  31.9103832
  75.2398453  59.3954315  32.7649422  75.7117844  60.2737732  31.6261845
  28.7079716  18.8587246   3.1487036  27.8754539  18.4079723   3.0073936
  29.1780052  18.7587337   2.3208740  51.3939629  17.0819454  36.5533562
  52.2546120  17.3952217  36.8315201  51.3876190  17.2098351  35.6047592
  52.6757164  30.6534595   6.5453291  52.8822556  29.9020214   5.9895277
  53.3900032  31.2710152   6.3883195  39.7158356  19.4113693  39.5928688
  39.2819672  19.8573513  38.8654861  39.0028496  19.1640587  40.1816978
  17.6071873  13.8537741  27.2090225  18.0907230  13.3822193  27.8873005
  18.2391739  14.4799194  26.8557968  80.5519257  34.7832069  -0.1024728
  80.7284317  33.8429527  -0.1340599  81.3488693  35.1642532   0.2662016
  86.0727386   3.2971177  68.5970764  86.8080597   3.7593436  68.1947403
  86.2275772   3.3742740  69.5385132   6.1323442  69.8756180  12.0347204
   5.1984372  69.8394012  12.2414513   6.4405532  70.6766968  12.4584141
  81.1218262   8.3164501  35.9010429  80.3806458   7.7377343  35.7222366
  80.7789993   8.9601183  36.5210342   2.4481449  46.9088707  40.6663437
   3.3057430  47.1450119  41.0198898   2.5437717  47.0087852  39.7191887
  33.4789543  53.4206848  28.3205814  33.3544884  52.7869949  29.0271072
  34.3927956  53.6936493  28.4019032  67.0164642  65.5348434  47.5225105
  67.8959885  65.8413315  47.7432518  66.5100555  65.6622925  48.3247185
  41.1480141  30.1875286   5.8875432  40.7271194  29.4100971   5.5205593
  41.6831779  30.5305214   5.1718707  28.2326221  10.1358671  33.1101799
  27.8267689  10.2319736  32.2486229  28.9309559  10.7904339  33.1203308
  10.9587288   4.7266836  67.9007492  10.4077702   5.5074449  67.8451767
  11.0492716   4.4324307  66.9944077  20.1637745  18.2860508  82.7242737
  19.7737331  18.1458302  81.8614655  19.5160313  17.9411583  83.3388596
  19.7327480  52.9233780  36.8805580  19.1690693  52.4133339  36.2988777
  20.4137936  53.2744827  36.3068581  47.4382629  44.4190788   2.7261517
  47.5113564  44.1325455   3.6365302  46.8566093  43.7771149   2.3189721
  46.9755135  57.9819870  11.1021767  47.8365326  58.0444336  11.5156717
  46.3558769  58.1442223  11.8134880  73.4543915   1.1209023  38.4293518
  73.1531754   0.2297160  38.6062355  72.8553619   1.4473585  37.7579231
  85.4843674  44.1934509  73.3912964  85.4255219  44.0087776  74.3286743
  84.6245880  44.5463867  73.1622772  69.0021210   5.5649123  83.9173050
  69.4009094   6.3492360  83.5404282  69.7398376   5.0663238  84.2686081
  49.4758568  50.2039375   6.0745196  50.2508430  50.7605209   6.1509767
  49.2761955  50.1986351   5.1383901   3.3784750   3.8108456  18.6512356
   3.9525652   3.1305239  19.0031090   2.9588065   4.1924782  19.4222527
  58.9294243  68.7146835   5.6738453  58.8680496  68.6043549   6.6226830
  59.8590393  68.5966187   5.4786253  67.8528824  43.5395088  87.7600479
  68.7533646  43.4315338  87.4539413  67.7274475  44.4873581  87.8056641
  13.4077005  60.9805946  87.4611359  12.9177494  60.2306976  87.1237411
  12.9916162  61.1809349  88.2995682  66.6239319  62.4864311  18.7134933
  67.3183899  61.9861794  18.2848759  66.5257874  63.2708702  18.1738167
  62.5515976  48.8951645  71.3889618  62.9155197  49.7685623  71.2441406
  61.9085655  49.0164375  72.0875549  42.9172249  71.1604843  44.7733192
  43.4041252  70.4100113  44.4328041  42.6162910  70.8787460  45.6372032
   8.0653791  61.9928436  34.0505486   7.5993500  62.4135590  33.3280182
   7.8413138  62.5185165  34.8184624  73.5020676  42.0976830  49.7645149
  73.3118973  41.4569359  49.0793076  73.2217560  42.9346657  49.3942261
  17.2108250  33.9082184  60.5640373  17.8781681  33.2541809  60.7716980
  16.6959019  33.5104446  59.8619919  13.9120636  27.8040714  14.5488653
  13.9526711  27.9497833  13.6036930  14.7518730  28.1253986  14.8770437
  77.3106613  35.1646156  32.1637650  77.1084671  35.6716385  32.9500694
  77.7162552  34.3627586  32.4935417  51.9575958  66.5938950   1.6534142
  52.6770630  67.2207031   1.5778975  51.7969208  66.5259476   2.5945837
  81.7639694  67.2297058  50.1209793  81.8821030  66.4713516  50.6929703
  82.6469421  67.5794373  50.0014877  70.7676697  11.1170435  88.1678085
  71.4718170  11.0591955  87.5220032  70.3722763  10.2453279  88.1697693
  15.0940762  64.1017914  79.6746445  16.0370369  63.9610138  79.7597275
  14.7482796  63.2510071  79.4047928  44.9631386  33.3845634  24.7788544
  45.4534416  33.1942482  25.5786152  44.8604774  34.3362389  24.7816010
  48.1575317  18.1027336  32.8992767  47.9948044  17.7437267  33.7715530
  48.9216003  18.6682301  33.0117302  15.3761654  69.9017258  23.0061569
  15.7582741  69.8481674  22.1301689  14.5097733  69.5053253  22.9141884
  64.4798508  53.9237480  50.1760025  64.2320862  53.0133171  50.3371201
  64.2866287  54.3736954  50.9984627  41.3661575  19.5477295  10.7209330
  40.9923897  18.6860065  10.5366430  40.6944962  20.1664524  10.4340773
  73.5667419  30.6741219  88.9431000  73.3586121  31.4291954  89.4933548
  74.4908829  30.7871990  88.7208328  34.5513687  37.1746864  28.1148872
  34.2409134  37.9588165  28.5676441  34.7648888  36.5610046  28.8177662
  21.1170635  13.1927357  58.1866226  21.4560623  12.9830656  59.0568810
  21.7214546  13.8525953  57.8467293  38.4448242  32.4458008  86.9165115
  37.7382050  31.8081551  86.8148651  38.7715111  32.3017464  87.8046265
   4.2754922  49.7769585  27.4193096   4.4349771  50.3472786  28.1713276
   4.6140699  48.9235077  27.6898918  12.8238153  41.4569092  83.5346375
  12.9631395  40.6711769  83.0060196  12.6556721  41.1254272  84.4167252
   1.9738051  49.1500473  80.9027557   1.8385885  48.3047829  80.4744110
   2.2440560  49.7362251  80.1959381  77.7589111  45.0006485  43.1430779
  77.1603241  44.2838097  43.3530045  77.7221756  45.5751114  43.9078484
  14.1635132   2.2916946  62.6022720  14.9830132   1.8228632  62.4446335
  13.7406607   2.3300169  61.7443924  23.8238850  61.0818329  53.0242920
  23.9036999  61.9834633  52.7129745  24.1670532  60.5493965  52.3066711
  23.9918385  49.2055550  66.5236816  23.1716805  49.5279465  66.1500092
  23.9098682  49.3739243  67.4623871  50.8257904  63.5468025  86.7565460
  50.1439476  63.0798531  87.2395401  50.5311775  63.5261917  85.8460464
  61.6643600  59.3217850  72.5767441  62.6188545  59.2670174  72.5300827
  61.3559341  58.6592255  71.9585876  14.5333538  44.4734840   1.2756599
  15.2584801  43.9018402   1.5279477  14.7433443  45.3174057   1.6755729
  68.9457474  48.5593567  67.2101517  68.3727798  48.2432861  67.9087524
  68.4127502  48.4987221  66.4173965  17.0443020   7.8927860   7.5365796
  17.3137150   6.9791169   7.6306930  17.2481155   8.2909756   8.3828287
  53.8157310  15.8998661  15.4181557  53.1568489  16.2086201  14.7962389
  53.4881210  16.1798306  16.2728615  64.1269531  19.6585121  51.6447639
  63.3948631  20.2731953  51.5953598  64.7344818  19.9546299  50.9669342
  59.8919563  13.1293116   1.2436154  59.0026093  13.3936272   1.0081847
  60.2482605  12.7466421   0.4418400  58.8356743  16.4733315  41.5473213
  58.8637886  17.4299965  41.5625992  57.9084244  16.2626934  41.4374352
  34.9641190  19.9689445  87.7852936  34.6807442  20.8516979  87.5472260
  34.3887367  19.7195606  88.5084610  75.2905579  51.8628464  32.8401947
  75.9118118  52.5864410  32.7584190  75.8149338  51.0778885  32.6817551
  72.5155411  62.9800377  14.6847706  72.4574127  63.4971581  13.8813772
  72.0953674  62.1484680  14.4652843  29.4444160  20.9828854  77.1980133
  28.5082436  21.0104446  77.0003891  29.8536835  20.7008038  76.3799896
   3.7078757   1.7003407  45.6105423   3.9441891   1.8819290  44.7009201
   4.3869681   2.1356235  46.1259003  38.5300140  12.1483326  11.3282185
  39.2719154  11.9970837  11.9138288  38.0217628  12.8360729  11.7582502
  51.6424408  68.1356964  51.8606110  51.2287102  68.9982300  51.8937988
  50.9131927  67.5239868  51.7594261  39.9504395  32.3904648  14.0238667
  39.2813148  32.6740265  14.6468391  39.9117050  31.4343891  14.0494347
   9.2478714  26.4127884  77.6662445   9.0444651  27.3192272  77.4355392
   8.9889479  26.3354759  78.5845108   2.3412776  53.3818054  35.7710648
   3.2789958  53.1971207  35.7180786   2.1880014  53.5798645  36.6949234
  67.6001968  16.3211155  85.5379944  67.8576050  16.1338100  86.4407043
  67.9167709  17.2102089  85.3782349  76.3559036  25.1114769   4.3597269
  76.0253448  25.4775410   3.5393870  76.6715393  24.2394085   4.1228628
  76.7882004  59.5371857  82.0603027  75.9063568  59.2957306  82.3436279
  76.6756134  60.3783150  81.6175156  54.4731636  15.9663095  32.3800507
  55.1985741  16.3283157  32.8889351  54.0855217  16.7244473  31.9427967
   8.9395599  71.2847137  21.0430508   9.1132374  71.4557953  21.9686871
   9.8058281  71.2660828  20.6362782  29.9875298  47.5354652   9.2600317
  29.8317337  48.1645012   9.9644985  30.2832661  46.7428131   9.7077742
  61.7195587  22.6805363   3.7146547  61.8962822  22.7508640   4.6527672
  60.7961006  22.4340458   3.6627107  36.8192215  28.6071434  27.8044147
  36.7541809  28.1844692  28.6607723  37.6677094  28.3256989  27.4622307
   5.3416390  13.6006145  49.8023491   6.1914768  13.7174520  49.3776627
   5.5039134  13.8052874  50.7232208  35.6787338   1.8752307  14.3833294
  36.5374069   2.2777488  14.2533474  35.0543518   2.5642176  14.1560049
  28.1147404   9.1814423  15.4968243  28.1852131   8.3583050  15.9802608
  28.2060947   8.9282885  14.5782385  79.7365723  18.1361141  56.0639687
  80.3162537  18.4190483  55.3567543  78.8749390  18.0645046  55.6532440
  26.9674683  50.5325546  27.4039249  27.0506916  51.4827156  27.4845543
  27.1710205  50.3513031  26.4863491  65.6712265  58.5221138  75.3693848
  64.8492737  58.1214790  75.6524277  65.7266006  59.3353195  75.8712387
  81.6208420   2.6822395  56.1321487  80.9236908   2.7069578  56.7875900
  82.1270218   3.4790297  56.2907066  68.0684433   2.5407672  86.5209961
  67.7890549   2.1345971  87.3414841  68.0184708   1.8357085  85.8755264
  19.0263901  18.4735756  26.7603130  18.8359337  18.6229305  27.6864071
  19.8926640  18.8589268  26.6287632  72.2229309  58.2456017  50.2804489
  72.7159805  58.9118538  49.8016548  71.3281555  58.5843925  50.3092957
  79.2060928  54.2538261  21.8567963  78.5720596  53.8939476  21.2365284
  79.2248230  53.6208000  22.5745430  13.9586182  28.4741192  21.5198402
  14.0496855  29.3633957  21.8620796  14.7565746  28.0263977  21.8009872
  56.4841385  13.6752329  82.4582291  57.0492325  13.5752678  81.6921310
  56.1317825  14.5619392  82.3818817  68.5317688  22.1569881  70.7013168
  68.2325668  21.2890701  70.9723053  68.0307312  22.7639542  71.2460938
  22.2572117   4.2952909  29.6372662  21.7445126   3.5252600  29.3914566
  21.6071777   4.9876914  29.7567215  71.9302216  50.3468018  17.6801872
  72.2966766  49.6473236  18.2211819  71.6036530  50.9900589  18.3093147
  63.6579933   8.6889982  42.1490135  63.1052933   9.4614897  42.0306587
  63.0405617   7.9742961  42.3046112  38.5316544  13.5312548  53.5314102
  39.0242500  13.0444746  52.8706360  39.1650543  14.1502590  53.8945465
   6.8284450  47.5725746  75.9521408   5.9847035  47.1575623  76.1313019
   6.9265256  47.5152931  75.0017014  80.1971283  21.8959770  26.6977787
  79.3412781  21.5232601  26.9095173  80.1480789  22.8000908  27.0082703
  36.5444679   9.3012457  27.0363636  36.0544395   8.5076914  26.8210144
  37.0719528   9.4759321  26.2569542  18.4157829  59.0282173  33.2229729
  17.7013988  58.4373245  33.4611664  19.0238018  58.4808159  32.7260857
  13.0926723   1.7615932  65.3603287  13.1491528   1.5372163  64.4315186
  13.9966707   1.7198324  65.6722183  82.2217789   3.0554760  25.1838417
  82.5817337   3.4198852  25.9924641  81.2761002   3.1789243  25.2656536
  22.0914955   5.1924887  82.2020416  21.3886223   5.8283033  82.3359833
  22.5334568   5.1419439  83.0495987  12.8197346  65.5631714  38.6403999
  13.3650036  65.5089340  39.4252396  13.0260496  66.4187698  38.2640762
  77.2507248  60.4678879  29.9196720  77.7839127  60.7932053  29.1943378
  76.7537003  59.7410126  29.5443783  72.7849045  58.8823090  36.7310715
  72.8513031  58.0077057  37.1143417  72.3837891  58.7383842  35.8739700
  17.6742229  25.2547626   2.1529131  17.8909893  24.3240395   2.0981600
  17.8216324  25.4814014   3.0711379  15.2571220  71.2899933  46.0077591
  15.1163645  71.1130447  45.0776482  14.8873339  70.5287857  46.4550247
   3.1758153  42.7100220  23.9381351   2.3610842  42.3581047  23.5795269
   3.0111084  43.6483803  24.0307941  73.6676559  23.9847431  84.0088806
  73.0404587  24.2380714  83.3316193  73.1598892  23.4468937  84.6164322
  53.3576317  37.7462349  64.1870270  53.1513634  38.4993019  64.7407150
  52.5059776  37.4309120  63.8845596   3.2343903  13.8588228  34.7856598
   3.2923956  13.4228582  35.6358376   3.1491110  13.1437197  34.1551132
  72.5051804  46.9948463   5.5931845  72.2778168  46.0739212   5.7213626
  71.6837540  47.4660225   5.7327895   5.9376321   6.9914956   2.5164192
   6.8046231   7.0646858   2.1174192   5.3688965   7.5141301   1.9510654
  44.5522804   4.1713471  64.1723022  45.0703773   3.3731837  64.0686569
  44.2726822   4.3924470  63.2839470  39.3182602  64.7949142  42.9057312
  39.5916939  64.6103210  42.0071793  38.3650131  64.7097855  42.8882828
  48.7243500  64.9892960  67.0473328  47.7718277  65.0399323  66.9675217
  49.0490150  65.1827927  66.1679153  78.1869125  11.5373049  82.9473114
  78.3625793  12.4620857  82.7736664  78.7609406  11.3181763  83.6812820
  17.5078278  12.2377119  73.1497650  17.7822819  11.3612328  72.8801575
  17.3145351  12.1515989  74.0832825   3.6858182  35.0271416  85.6387024
   3.6532578  34.2480507  85.0835571   3.0931001  34.8294640  86.3638535
   9.6673594  41.1408005  12.1174726   9.1073275  40.3873711  11.9305468
   9.1486425  41.8980370  11.8458920  41.5602913  55.6291924  10.4185076
  41.2616806  56.4760170  10.7501001  41.7681351  55.1239777  11.2045050
  79.7965698  64.7710190  20.0779610  80.7016678  64.5481110  20.2955589
  79.3717957  64.9022598  20.9256477   1.5383302  47.3127518  11.1451883
   1.4971098  47.5561028  10.2203569   2.0812724  46.5246048  11.1615000
  83.4676056  65.0815048  75.0057526  84.3912964  64.8345642  74.9606323
  83.2987900  65.5298843  74.1770859  63.1343765  57.5647583  19.2769508
  64.0655746  57.7133636  19.1125603  62.9259300  56.7754097  18.7772369
  83.7586670   7.4996009  63.6562881  82.9174423   7.4299178  63.2049332
  84.3881912   7.1068764  63.0515633  50.9067307  40.3797112  21.2334557
  50.0261917  40.6590309  20.9827232  50.7751083  39.8496132  22.0195236
  49.5386848  53.9415817  85.6495514  50.4084091  54.0063896  86.0440292
  49.0471649  53.3758316  86.2450104   6.7485738  54.0711212  49.7031479
   6.6494646  54.0388298  50.6546555   7.5434160  53.5673904  49.5279007
  15.3735085  25.3481312  25.0078373  16.1929512  25.8299618  25.1200275
  15.1574879  25.4553890  24.0815201  42.1221771   4.8690767  58.2442055
  41.9277344   3.9727552  58.5181236  41.6454315   4.9767647  57.4211922
  37.4156761  61.1303253  73.7914200  38.1543846  60.6800575  74.2010574
  37.7819901  61.9586182  73.4816132  46.1497116   9.1370192  47.4704399
  47.0924835   9.1496391  47.3053513  45.7678490   9.5792875  46.7122803
  68.5665131   5.5761614  17.6693001  68.8312607   5.1743326  18.4967518
  67.7450638   6.0236268  17.8723545  84.5758743  42.7758484  14.3692207
  84.1532135  42.3563232  15.1186142  85.4133301  42.3207779  14.2808580
   0.5122282  58.5033989  28.2903042   1.3125696  58.9218025  28.6075172
   0.7761229  57.6065636  28.0846729  59.6761818  41.3428001  28.5360947
  58.7239189  41.3061981  28.4461403  59.8706093  42.2733612  28.6478424
  84.3136597  23.5049019  58.6294785  84.8800888  22.7335892  58.6511497
  84.9128723  24.2449245  58.7271576  73.2927780  35.7349854  83.1120987
  72.6385269  36.3098564  83.5092316  72.8433456  34.8962212  83.0085678
  83.6400299  38.8483582   0.4488267  82.7421341  39.1788673   0.4211825
  84.0976639  39.3409576  -0.2324623  33.8880463  43.0196877  11.4479694
  34.7885742  42.9890747  11.7709923  33.9087639  43.6654053  10.7416744
  10.6913519  60.8677063  18.0804310  10.3456898  61.7385216  17.8843937
  11.6399508  60.9897118  18.1192455   0.1261719  61.4159660  81.4490662
  -0.1172666  60.5343399  81.7313843   0.5143916  61.8177109  82.2263184
  86.2125778   8.1424923  48.9411278  86.0161438   8.4745884  49.8171158
  86.3743134   8.9276285  48.4180260  74.6376801   7.9927244   6.4940982
  74.3722382   7.0967941   6.7016582  73.8648071   8.5227480   6.6889939
   6.9181509  53.1074753  83.4453201   7.4308171  52.6730919  84.1270218
   6.1817260  53.5008354  83.9134827  30.1241169   3.6840069  11.6542673
  30.0557556   4.2715206  12.4068537  29.2890244   3.7824585  11.1969261
  71.4347763  62.6924019  37.5553856  71.5479813  62.5252495  36.6197166
  70.7458649  62.0852280  37.8255272  84.6921005   7.4469371  66.2273712
  83.9958878   6.9034328  66.5963211  84.5026627   7.4747748  65.2895203
  59.5078888  24.8755760  10.0903883  59.9221115  25.4696331  10.7162867
  59.3984985  25.4009991   9.2978001  60.7234612  20.2287521  71.2013092
  59.8959236  20.5534706  71.5562363  60.9743958  19.5177174  71.7909698
  79.7573166  24.0675583  47.6899796  79.3632202  24.8645668  48.0445175
  80.0970764  23.6066895  48.4570503  85.1496582  51.8654442  68.0531464
  85.2237473  51.1853752  68.7226639  86.0280533  51.9290848  67.6781693
  77.8148270  38.8242836  45.1177139  78.7525558  38.7892952  44.9288521
  77.7441559  39.4087448  45.8724632  76.6435394  25.8967896  80.9321671
  77.5775604  26.0227871  81.0993652  76.6012955  25.5940380  80.0250931
  64.5107346  12.9652548  40.1618500  63.6461906  13.2019129  39.8260078
  65.0222549  12.7560701  39.3803024  71.4929047  25.3227959  17.8076553
  72.2496109  25.6557522  18.2901077  71.7777557  25.3108807  16.8938999
   0.8081018  25.1913319  41.8121758   0.4292707  24.3549042  41.5417938
   0.2502344  25.4853020  42.5323143  12.1594324  42.7092781  10.1562204
  12.5367651  41.9022026  10.5061884  11.9478474  43.2303009  10.9308157
  69.5376358  30.4930153  10.5277119  69.8631439  29.7262497  10.9992485
  68.8832016  30.1425819   9.9234409  39.0631523  61.0924263  40.7631340
  39.7572746  60.7257957  40.2154007  38.4689407  60.3585548  40.9198952
  53.0278549  37.2687416  35.4647408  53.4139442  37.9669342  35.9935989
  52.3743286  36.8677368  36.0377426  74.7600327  46.3258781  35.0736542
  74.3185196  45.9560165  34.3091278  75.2602692  47.0647621  34.7271805
   5.3604312  47.6373825  48.1792755   6.2269483  47.8440437  48.5295219
   5.2342162  46.7108192  48.3836746  12.9225645  16.5903168  36.7076874
  12.6450176  17.3019047  36.1307602  12.1625710  16.4237804  37.2652779
  41.2447243  14.3193483  52.1221504  41.4500732  13.8728390  51.3007545
  40.8688583  15.1571465  51.8518715   0.5889299  71.1099167  17.3922768
   0.9521322  70.3806763  17.8948002   0.9176916  71.8926773  17.8343506
  36.1903496  63.7150497  35.1323586  37.0363770  63.4562302  35.4977074
  35.8382645  62.9110031  34.7505531  62.0421829  62.5910034  28.2695904
  62.1299667  63.4436417  27.8435154  62.0892982  61.9588623  27.5523682
  63.3608665  12.8958206  80.3365555  62.4547882  12.8958483  80.6451874
  63.3059158  12.5862818  79.4324570   6.0383677  52.0995712  33.4629021
   5.7879601  52.4382668  34.3224449   6.7695122  52.6541367  33.1906586
  75.2916260  64.9384232  53.5941811  75.9051590  64.6340027  52.9254990
  75.8101501  65.5235901  54.1463966   7.4552178   6.7437525  54.5208092
   8.3896189   6.5681190  54.6316223   7.2011409   6.2185674  53.7619553
  10.0959091  43.8803291  28.7052155   9.9127789  44.7705460  28.4048576
   9.3391037  43.3699265  28.4171791  29.5097198  27.8891792  19.0345192
  29.3921509  28.3203526  19.8809814  30.2326450  27.2778378  19.1754913
   2.6616564   9.5909624  31.0355473   3.4945021   9.3190880  31.4211426
   2.1402383   9.8922100  31.7795925  37.2544861  21.3234138  84.3029709
  36.8919487  21.7762032  83.5415344  38.1534843  21.6456738  84.3676529
  37.9474030  67.4052658  12.7776642  37.7230301  66.5404129  13.1210585
  38.4677620  67.8107376  13.4712381  45.0855484  31.9974442  10.0657654
  45.9587860  31.6071587  10.0288200  44.5883369  31.5363312   9.3902035
   9.5401182  41.9895096  15.9901934   9.6389208  41.2557945  16.5969315
   9.0440960  42.6429710  16.4833260  19.1537380  65.6482697  19.1658669
  18.9302731  65.2016296  18.3492870  19.6947956  66.3893204  18.8932247
  15.2199154  45.7868652  13.6820879  14.3539371  45.4954376  13.9673662
  15.2622080  46.7060432  13.9458199   8.6592484  34.4676514  84.1519012
   9.5283957  34.3819847  84.5436630   8.0858021  34.6857719  84.8866272
  65.8210983   6.8926921  57.6199379  66.0449982   7.8230515  57.5968552
  64.8846893   6.8667426  57.4232216   7.6609182  50.9445801   1.0541767
   6.9656458  50.4389915   0.6332164   8.1590118  50.2973747   1.5534376
  67.3974152  56.2045937  78.5762024  67.6967010  56.4638023  77.7047272
  66.8063583  55.4686165  78.4173813  85.2428894  66.2668915  85.4570389
  84.3486633  66.0759125  85.7400970  85.1374435  66.7263412  84.6239548
  46.8664131  62.6121025  42.1811523  46.4551582  61.7692604  42.3727837
  47.6291084  62.3904953  41.6469078   8.6714668   7.2954774  85.8871155
   9.3637152   7.8754334  86.2044067   8.1246252   7.1324382  86.6556244
   7.5794206  47.7465134  32.8975868   8.2901068  47.2145233  33.2555618
   7.1601958  48.1343193  33.6657600  51.4544868  51.0263672  70.7153168
  51.6842194  51.2877922  69.8236237  51.8382835  50.1552696  70.8159180
  52.0165024  63.8278923  24.4214611  52.4088974  64.5832520  23.9836330
  51.6012115  63.3313828  23.7163048  52.7735977  43.6102104  89.2258682
  52.1634064  44.2286377  88.8240662  52.9134865  42.9417572  88.5551758
  81.8321686  68.5626984  68.1745911  82.7073669  68.1887817  68.0723953
  81.9853821  69.4982376  68.3069992  55.0632858  25.4973717  68.4501953
  54.3778305  25.9306564  67.9416199  55.8435555  26.0325527  68.3052902
  68.8584824  70.4142303  70.5349655  69.5686340  70.2252045  71.1482925
  69.1547775  71.1886826  70.0567780  41.9046173  20.1352520  60.5856628
  42.5332260  20.0418854  61.3014603  42.3136215  19.6838226  59.8473129
  31.2574749  60.2629776  76.7561111  31.4447060  59.5605011  76.1334534
  31.4723148  59.8891182  77.6106873  81.2034073  25.4449978  43.9986038
  80.6792145  24.7050018  44.3049660  80.8969269  26.1874561  44.5192375
  54.7284775  47.1394920  86.3600311  53.9242554  47.3291321  86.8432541
  54.9483070  47.9646683  85.9276123  84.8580856  27.3114166  59.7619820
  85.4314270  26.5690575  59.5711479  84.5466690  27.1507454  60.6527328
   2.0525138  29.1149063  48.7324181   1.7951887  29.8917046  49.2290077
   1.7318704  29.2803364  47.8458214  76.3287735  28.5054092  28.1995296
  76.5089264  28.1492271  29.0695362  77.0771408  28.2319012  27.6690788
  70.7252731  11.7615376  72.4298935  70.0583420  12.4481173  72.4228210
  70.4384155  11.1420574  71.7589340  43.5038605  47.3935776  71.7784195
  44.0554581  48.1738701  71.8342972  43.6176720  47.0836487  70.8799591
  42.8692551   7.5053649  52.8663254  42.5507851   7.4691753  53.7682648
  43.3463058   8.3335533  52.8138123  27.8303833  11.7823400  17.2727222
  28.0339622  11.0804491  16.6545486  28.6054306  12.3439455  17.2611675
  77.6951904  43.3381157  63.3178558  77.4397812  42.4280739  63.4689331
  77.2268600  43.8330765  63.9901009  17.5868587  32.4705963  68.8724060
  17.2603283  33.3401451  68.6411209  18.2578106  32.6351242  69.5349655
   7.1415472  20.2321892  20.9185352   7.8080673  19.7999573  21.4525375
   7.6397495  20.7627888  20.2968521  17.3254051  32.9018822  15.1717634
  18.1159935  32.4156570  15.4058304  17.6093636  33.8150444  15.1300917
  43.6345558  21.2479115  75.4450989  44.1968498  21.5294228  76.1667709
  43.9886742  21.6957493  74.6768112  58.9031143  19.0650654  12.5492373
  58.3284302  18.6892319  13.2161083  59.5688591  18.3935337  12.4007044
  54.6262894  30.7593822  62.7044144  55.0209007  31.1896706  63.4629440
  55.2999306  30.1536522  62.3953362   0.7399316  26.3361568  87.3697968
  -0.0129045  25.8858871  86.9867477   1.3009744  25.6315765  87.6938782
   1.7925789  49.6928940  86.4832764   1.1776465  50.3933182  86.7012177
   2.2232618  49.9927826  85.6827698  50.6590843  26.9277954  70.8711700
  50.4831505  27.5967236  71.5328445  50.7457657  26.1150723  71.3693619
  83.4165115  12.3345757  33.5721970  83.4396133  12.7963495  34.4103279
  83.7445602  11.4579592  33.7725906  86.7396927  51.3674927  43.0442581
  86.0461197  50.9162865  43.5255089  86.5901184  51.1295853  42.1292419
  25.0402126  16.0608311  62.7223587  25.9792156  16.1049728  62.5419312
  24.9749851  16.1434612  63.6737556   1.6046506  28.2579651  81.1522369
   1.8962272  28.5493145  80.2883301   1.9303055  28.9278431  81.7534409
  80.4650803  24.2480202  28.1457233  80.1316452  23.8946781  28.9704647
  81.1834564  24.8248882  28.4053268  81.6791153  58.8550797  42.3149185
  81.2155991  58.1988716  42.8352737  81.8021164  59.5920334  42.9132500
  37.8902397   3.5627189  13.6736670  38.8172264   3.6938896  13.4743557
  37.4851418   4.4121752  13.4988823  59.1422882  56.4009857  30.5439930
  58.7983475  55.9397507  29.7790108  60.0891876  56.4216461  30.4054985
  58.2900658  12.7316122  70.8613205  59.0879135  13.2244778  70.6696091
  58.3072128  11.9991121  70.2453766  38.2268219  34.3114967  77.9279633
  38.8275375  34.8873329  77.4548950  38.7679863  33.5687103  78.1956253
   0.6290044  10.5821962  35.6474190   0.7498757   9.6440258  35.7939034
   0.0244393  10.8563519  36.3370361  77.6991959  47.5959053  61.0010071
  78.6125488  47.3577843  61.1601295  77.1976852  46.8412552  61.3095818
   8.3712196  52.9662399  58.3040886   8.5096045  52.2756996  57.6558342
   7.7210793  53.5436401  57.9038925  17.3514214   8.6170254  10.4824572
  18.1448727   8.6695614   9.9496288  17.5228271   7.9040313  11.0976744
  52.9973106  58.4866982  15.0816898  53.0722275  57.6528397  14.6176844
  53.6108437  59.0672989  14.6314526  23.0284119  58.8815193   5.9478106
  22.1932850  59.3010597   6.1546426  23.5599060  59.0053482   6.7342024
  31.2909336  20.4072266  22.7725029  30.5196190  20.9638844  22.6655540
  31.7080097  20.7269897  23.5725212  76.2449951   7.4261847  40.3143806
  75.7934494   6.6190448  40.5610847  76.6295929   7.2336936  39.4592400
  21.4596424   5.5464921   2.6825731  20.5818024   5.3355761   2.3645456
  22.0360451   4.9447551   2.2115045  58.1124382   1.0422242  49.0786896
  57.2944603   1.2286884  49.5395241  57.9159508   1.2226795  48.1594162
  29.4719906  26.1989460   8.0419350  28.9084015  26.6780415   8.6494417
  29.4251366  25.2898884   8.3379955  58.5155106   5.3136554  50.4671898
  57.9064751   5.8052435  49.9161453  59.2245102   5.0622110  49.8753052
  41.1716843  26.8965664  37.7466927  40.7562141  27.3370266  37.0053329
  41.2244263  27.5689888  38.4258804   3.7106845  33.2021675  15.7511272
   3.2199042  32.4300423  16.0325356   3.2309585  33.9407043  16.1261711
  13.9331436   9.5911655  42.9624100  13.8125782   9.3993282  43.8924065
  14.7648859   9.1741066  42.7376900  39.6785011  11.9144974  51.4997864
  38.9407768  11.3155317  51.6148262  39.8718262  11.8792171  50.5629768
  18.2955322  66.3055496  85.7396011  18.0510559  66.5147324  84.8380966
  18.4385586  67.1570892  86.1527100  86.7681427  25.8729267  79.2429428
  87.4161835  26.3918324  79.7193985  86.1543274  25.5794563  79.9162445
  42.8787880  18.1467648  87.6356583  42.3171005  18.8881702  87.8616104
  43.5095787  18.5056458  87.0115280  18.0718307  18.6569462  14.2019100
  17.1195393  18.6319561  14.2954359  18.2964745  19.5836449  14.2855606
   8.7886972   7.2321887  51.1135216   8.4065437   7.7412877  50.3986740
   8.0396471   6.8095398  51.5336723  39.2460213   4.1006780   3.0867290
  39.8210869   4.7602482   3.4746709  39.7599869   3.2934067   3.1063943
   2.6514151  43.7148628  36.2288361   1.8077054  43.2850647  36.0886307
   2.6378911  43.9742928  37.1501083  41.3944893  24.8111820  40.5585289
  42.0885010  24.3202763  40.1185417  41.7957153  25.6534119  40.7727699
  40.5793839  60.3145103  46.1087723  41.5358124  60.3147812  46.0703163
  40.3538399  61.1730270  46.4669685  53.5821686  39.7429352  37.0759315
  52.7629280  40.2354469  37.0258713  54.2265587  40.3805504  37.3832474
  14.0616598  56.8129387   1.4543988  14.0425930  55.8577042   1.5126556
  13.1404276  57.0684052   1.4064504  80.3537216  18.6398449  14.3882971
  79.5141373  18.9603710  14.7178221  80.9582443  19.3696880  14.5228949
  40.9747963  13.8445253  44.8159752  40.2162743  14.0179386  44.2584801
  41.2235298  12.9437695  44.6086006  12.0268612  67.9858246  33.0959892
  12.8460417  68.4206161  32.8590698  11.3880806  68.3184814  32.4654922
  66.6839371  46.0466042  62.0160980  67.2980728  46.7788773  62.0694313
  66.2170639  46.0642281  62.8515320  15.5265379  19.9287910  47.1329041
  14.5931559  20.1409912  47.1332664  15.9219923  20.5868626  47.7045593
  27.3255692   8.9913082   0.1359067  26.6051636   9.4613590   0.5557877
  27.9342308   8.7992077   0.8492509  71.1137543  26.4554882  87.1161499
  71.8844910  26.5045452  86.5506439  71.0928192  27.2999840  87.5662842
  47.6956673   4.1584864  28.7016907  48.2927971   4.6489758  28.1368084
  46.8477135   4.2163143  28.2614002  52.8786964  25.2017345  31.8300266
  53.3076744  24.3474083  31.8783951  53.5083008  25.8082924  32.2197914
  74.3265686   9.3714056  58.4512863  74.4894791   8.5497684  57.9880333
  73.3758392   9.4785681  58.4217682  23.3404732   5.3115392  84.6824646
  23.4417133   5.6806264  85.5598221  24.1710796   4.8673220  84.5121841
  52.9570885   5.7180429  75.1879044  52.3934021   5.1656327  74.6463013
  53.8464279   5.4953480  74.9127426  11.0899105  14.8499460  67.0348969
  12.0076790  14.9295959  67.2948761  10.6101866  14.8004227  67.8617249
  61.0629539   5.4907589  20.8096046  60.4057198   6.1814337  20.8947067
  61.6248627   5.5989761  21.5769253  31.9149818  57.9681778  61.0483704
  32.2060051  57.9551468  61.9601631  31.0361118  58.3458443  61.0828438
  26.3760433  68.6030273  66.1520615  27.0054703  69.2808838  65.9059525
  26.2497196  68.0918808  65.3526840   5.8378596   2.9411428  47.1237030
   5.6947560   3.7988851  46.7236633   6.3499746   3.1264255  47.9108772
  67.4556274  19.5792999   1.8709755  66.9218216  19.3224964   2.6228597
  67.2435532  20.5021038   1.7306727  59.8969307  54.7677460  59.0526886
  60.3939438  54.0661736  59.4734077  59.7063332  54.4338303  58.1761017
  17.9594383  17.2940998  38.9718933  18.0513992  17.9524326  38.2831459
  18.3652210  17.6939335  39.7411194  48.2961349  64.6522903  52.5246506
  49.1442680  64.9768295  52.8272743  47.9673882  64.1256409  53.2532082
  67.0037460  46.2744904  28.6349602  66.3672791  45.9883118  29.2901287
  66.7491684  45.8127937  27.8360519  29.5479641  12.5896740  83.6964874
  29.0357132  13.2456045  83.2236328  29.0375366  11.7838831  83.6165161
  34.9051132  61.4975891  42.1573448  35.2683945  61.2457428  41.3083229
  34.0298767  61.1101875  42.1677895  67.0266113  22.1337833   7.3212872
  66.7330170  22.9423523   6.9014621  66.8005905  22.2474995   8.2444439
   5.4757133  29.5102921  30.8302555   5.3295622  29.2694893  31.7450695
   5.6719050  28.6817608  30.3929005  42.3352585  54.8732338  18.7715836
  42.0387421  54.6439247  17.8908291  41.9137611  54.2298126  19.3413029
  49.7449913  31.4349861   2.4886832  50.1749191  32.0624580   3.0697813
  49.6384048  31.9073181   1.6629868  68.3217239  58.0575676  27.4666481
  68.7834244  58.7496147  26.9932251  68.9548035  57.7465935  28.1137428
  74.4960785  43.0084610  46.6212006  73.6250992  42.6179962  46.6930847
  74.5317612  43.6471100  47.3333015  37.5527000   8.7069206  45.6206093
  36.6121216   8.6180096  45.7743568  37.9598885   8.3037767  46.3873596
   4.8359852  14.7951574  73.7743835   5.5222607  14.2506189  74.1600494
   4.0276866  14.4885168  74.1853104  26.5019817  68.9331055  32.0028305
  26.7948818  69.7882919  32.3176308  26.2856331  69.0781708  31.0817566
  85.3097305  69.7281418  29.8939323  85.5773544  70.6129913  29.6456299
  84.3797302  69.6877670  29.6709957  56.6066780  34.8874855  62.5041428
  56.6264687  34.0498276  62.0413589  57.3677139  34.8587990  63.0839996
  84.4595490  70.7841110  21.6821766  83.6868057  71.1441269  22.1174774
  84.5959473  71.3546371  20.9257832  74.4682922  48.3418198  74.8312683
  74.2840805  47.4151382  74.9847488  75.1908417  48.5440292  75.4256363
  66.4833450  66.1665344  49.9492455  67.0201492  65.7524261  50.6249619
  65.8632584  66.7098770  50.4355583  81.4908981  26.0272636  49.9062653
  80.6400146  26.3726025  49.6361122  81.2792969  25.2917728  50.4811668
  75.4563980  12.4530439  42.0358162  74.6799850  11.9220695  42.2132263
  75.2050018  13.3392906  42.2958145  64.8307266  20.4727459  43.4860229
  65.4564056  19.7661228  43.6455345  65.3441696  21.2743816  43.5859909
  51.9086342  36.2521896  82.6230316  52.1242256  35.3431015  82.4149170
  50.9640617  36.3129997  82.4805069  18.6883278  47.6647415  69.4559784
  18.9649086  48.1402359  70.2393341  19.4092007  47.7824593  68.8373413
  46.0757866  62.3118439  82.3594131  45.6732292  63.1788177  82.4097672
  46.4971237  62.2929535  81.5001373  41.1809196  58.4097137  34.4951782
  41.0796661  58.8792343  33.6672096  42.1214447  58.2456818  34.5640373
  28.0167637  27.7886086  79.3706741  27.2057590  28.0858994  79.7831268
  27.8023758  26.9262505  79.0148544  54.3379288  62.5685158  11.1387920
  54.2329941  62.2472725  10.2432337  53.4700241  62.4725304  11.5309134
  17.1837139   3.5063169  77.6592636  17.7911530   4.0079179  77.1155319
  17.4360752   2.5934401  77.5206909  61.7383003  23.1445827  85.8609390
  61.0558510  22.5802021  85.4976730  62.4207115  23.1575928  85.1898422
  64.9485168  54.7048035  20.7239819  65.4634399  54.7643394  21.5286827
  64.1948166  55.2740707  20.8792458  37.4532127  34.8811607   4.2661672
  36.5551910  35.1488037   4.0708237  37.3721161  34.3099136   5.0299273
  75.8678970  41.8351784  51.4123421  75.0579300  42.0531960  50.9512138
  76.0519104  42.6051865  51.9503593  79.9990845  24.3807354   5.2928276
  79.4267578  23.8086128   5.8040481  79.9127655  25.2388477   5.7080665
  45.7582512   9.5529795  63.8203583  45.6250267   9.0835724  62.9968643
  45.6862793   8.8779516  64.4951782  24.3969631  61.0562325  66.1319122
  23.6189613  60.7201729  66.5768890  24.9114037  61.4673157  66.8265991
  75.3203049  61.7949371  13.7496738  74.9349136  61.5597229  14.5937014
  74.7998047  62.5393944  13.4478521  63.7274551  64.9442215  68.1734085
  63.6860046  65.1837692  67.2475891  64.5469971  65.3291321  68.4839401
  71.3518524   4.3448877  38.4240150  72.3004761   4.2998304  38.3043823
  71.0106735   3.6124165  37.9108696  24.5518456   0.7982529  68.7714844
  25.1924686   0.1059364  68.9343719  24.7983589   1.4994218  69.3746643
  84.7608109  66.2020340  32.0339775  83.9042435  65.8672409  31.7685642
  85.3759842  65.5139542  31.7803478  73.6558380  48.4165001  65.6291275
  74.1231461  47.7695847  65.1005936  74.0373535  49.2560692  65.3725967
  24.1966038   8.6202288  64.0885239  23.6060181   8.3481960  63.3860703
  24.6453934   7.8159027  64.3490601  27.5819550   6.9748406  52.2245216
  28.3859386   6.4583240  52.1692581  27.3780251   7.1984324  51.3164177
  59.5507317  44.3082924  84.7880630  60.3954849  44.5805283  85.1465530
  59.7639732  43.5919838  84.1900177  80.9017105  70.3164978  70.4901428
  80.4507141  70.9713287  69.9571991  80.8187027  70.6394501  71.3873825
  61.0998116   9.1817226   0.6313191  60.7648087   9.1166868   1.5256205
  60.9258842  10.0876102   0.3756871  50.2886963   1.0884330  29.5281010
  49.7004280   1.5822091  30.0993786  49.9413414   0.1965614  29.5399799
   3.7363420  11.0469255  79.5077209   3.6723323  11.9722357  79.2712097
   2.8425624  10.7973213  79.7424240  24.2165222  67.0523224  75.3544617
  23.7080727  67.6834564  74.8451614  24.7642727  67.5910568  75.9253922
  68.4500580  10.3797531  33.7152710  67.8570404  10.8215799  33.1075325
  67.9333725   9.6567974  34.0710869  14.7745075  21.9201832  62.9170952
  14.8219910  21.3094215  62.1816025  14.7690439  21.3602543  63.6934242
  60.5446510  53.0729065  10.8237629  60.3202286  52.5423851  11.5882311
  59.7310295  53.5237045  10.5978556   7.7827382  29.3935757  84.1326218
   7.8825331  29.0624905  85.0251770   8.6794367  29.5170803  83.8213120
  76.8686905  21.2832546  62.3071136  76.0941849  21.8327751  62.4271088
  77.5260773  21.8731480  61.9382057  62.3764992  21.8239098  29.9848995
  63.0510864  22.2078991  30.5450058  62.2630997  20.9350586  30.3215218
  61.8691902  18.2979965  41.0027390  62.3196831  18.3852062  41.8427887
  60.9548454  18.5022106  41.1989632  59.1324615  53.6012344  15.0782328
  58.6005554  52.8712044  14.7614288  59.8231201  53.6966629  14.4224005
  65.2251129   5.2755699  35.5004921  65.0637360   6.2010536  35.3169975
  65.2047729   5.2136440  36.4554710  79.9670792  22.1276951  49.7714157
  79.4549561  21.4361172  50.1905518  80.8720551  21.9399605  50.0204277
  20.1742535  44.6272316  33.4077377  19.5297165  45.3024750  33.1959419
  20.9832458  44.9307213  32.9958420  13.0936432  10.2358608  52.7151604
  12.4551210   9.5357056  52.5798683  13.1062593  10.7122116  51.8850021
  32.2903137  16.1187286  39.7180290  32.9257889  15.9815235  40.4205818
  32.8204918  16.3662987  38.9604950  73.5902939  61.3027763  40.0792160
  73.6779251  60.4815636  40.5631180  72.7192459  61.2567329  39.6850319
  71.2934113  58.1452751  56.5865097  70.7082825  57.9813766  57.3261070
  70.7461929  58.5962639  55.9435501  50.2872658  70.7594604  59.3417053
  50.0708313  69.9355927  59.7783203  50.5956573  71.3298569  60.0458107
  26.5922222  62.4876022  77.9779358  26.3734779  63.1871910  78.5935364
  26.8069267  62.9432564  77.1639862  64.0083694  17.4497681  60.9820862
  63.5225182  17.4203777  60.1578789  64.9276199  17.3984852  60.7201958
  74.9494400  35.2429047  63.7272797  74.4984283  34.4380455  63.9822769
  74.3367004  35.6848984  63.1395531  30.2931805  58.5985374   8.1769571
  29.4201412  58.2376137   8.0227900  30.1376095  59.5182037   8.3920002
  11.5642080  38.0281105   7.0548000  12.0786886  37.2212105   7.0761118
  12.1400185  38.6895103   7.4385009   2.5239944  65.3379211  12.8680887
   3.0864451  66.0178757  13.2389593   2.8918748  64.5174408  13.1962738
  42.4244995  19.4090519  26.7206898  42.5158119  20.3103561  26.4115868
  41.5192795  19.3512478  27.0264168  12.4963245   5.0762992  18.1516972
  13.2697077   5.6203361  18.0029240  11.7705679   5.5894713  17.7965012
  79.4179916   4.2178264  77.4730072  79.1328049   5.0813107  77.7718353
  79.1564331   3.6227677  78.1756668  21.8069553   5.4583607  12.4316072
  21.3760147   5.1182113  11.6475029  22.4782696   6.0530453  12.0970631
  71.7100830  60.4756470  13.9695444  70.8579712  60.4574318  14.4052010
  71.9739609  59.5568161  13.9210138  69.2171631  27.2003345  14.1681099
  68.5970840  26.6171646  14.6058846  69.9612503  27.2525883  14.7679729
  76.0208435  20.0289116  78.0169983  76.2683105  20.2990131  77.1326675
  75.7621460  19.1120567  77.9238129  49.9022903  12.4301014  34.4396095
  49.1800232  12.0032558  33.9787827  50.0716934  11.8659697  35.1941223
  58.1378860  39.1990891   4.7710314  58.4613190  38.3845787   4.3860688
  58.8470192  39.8271446   4.6335173  20.6247406   4.3205638  37.5225868
  21.3567047   3.8045719  37.1846313  21.0334816   4.9697433  38.0950623
  75.9122086   2.8647361  62.4239922  75.3714294   3.0090647  63.2004967
  76.7708588   3.2146564  62.6616936  76.5986862  20.0519714  80.5917282
  77.5461426  20.1579876  80.5062180  76.2678299  20.1241341  79.6964264
   1.5747513   3.7450199  56.1700439   2.1505260   3.9070194  55.4227371
   1.6726454   2.8099103  56.3495407  21.4034042  48.2330399  31.1856289
  20.5571289  48.4380074  30.7880859  21.7613316  47.5331306  30.6395130
  79.2009964  38.5349617  11.8626213  78.5887299  38.7537079  12.5651207
  79.0551987  37.6031227  11.6993599  79.3782806  64.8848724  86.1759109
  80.0163651  64.8681564  85.4626007  79.2103195  63.9624519  86.3686829
   9.9746437  12.6292286  17.4906311   9.9079380  11.9976578  18.2068024
   9.1029959  13.0207977  17.4346371   1.9179028  49.8542213  49.4389267
   1.1104248  49.3552055  49.3156471   2.4446547  49.3154488  50.0292549
  33.2817879   9.4703655  83.0743866  33.6504517   9.8755741  82.2894516
  34.0374641   9.3142366  83.6407852  52.5593071  19.2182884  39.0606079
  51.8932610  19.4912949  38.4296722  53.2803268  19.8340073  38.9292526
  71.9551392  18.7314453  32.6845703  71.9461594  18.0533600  33.3601074
  71.6243362  19.5137081  33.1260109  40.3863487  52.9612389  72.1341705
  39.8557396  52.2423401  72.4774933  40.9745560  53.1897278  72.8539200
  24.8125839  13.1483402  67.2961731  24.4711933  12.4082928  66.7941666
  24.4133568  13.9177399  66.8901215  85.9145203  14.3073311  77.9798660
  86.0039520  15.2597160  78.0144653  85.0539932  14.1616974  77.5867767
  50.5400848  59.6525307  49.2169724  50.4908028  59.2194633  50.0691833
  49.6614075  59.5581856  48.8492012  50.5460243  10.7279491  24.4100132
  50.1952934  11.3027754  25.0903034  51.4730682  10.9598703  24.3549862
  23.1131878  69.0479889  73.6573563  22.4598026  68.8244247  72.9945374
  22.6003590  69.2595673  74.4374084  63.6462746  49.4617348  26.2938709
  64.3823929  48.9605675  26.6448517  63.8562431  49.5787239  25.3673401
  77.1057587  49.0625801   7.9860678  77.3089294  49.7445488   8.6262770
  76.1965027  48.8257408   8.1688032  44.7081985  24.1990166  27.2601585
  43.8073425  24.5169830  27.2002316  45.2445602  24.9493599  27.0041656
  33.5581665  38.5390701  18.2886353  33.4086571  38.4423447  19.2291260
  33.0945892  39.3429375  18.0538464  80.3426514   8.1316509  74.8146286
  79.8608017   7.3121853  74.9265671  80.9715195   7.9463773  74.1171799
  13.0692396  49.2135239  47.7947807  13.6276741  48.9574966  47.0607300
  13.6619444  49.6524773  48.4049072  10.8194494  56.8285675  65.3643494
  10.2070684  57.5318184  65.5803680  11.6516581  57.1106453  65.7439499
  82.1859741  62.9863777  76.3362961  82.6410522  62.1450844  76.2993774
  82.7030640  63.5632629  75.7741089  86.1183243  37.6820564  81.3463898
  86.2446213  38.5984154  81.1002884  85.6793289  37.2896919  80.5916977
  23.6112900  18.4388561  66.5839386  22.7657986  18.8875256  66.5924301
  23.5627575  17.8506832  65.8303299  34.6304131  59.9063492   5.9216008
  34.8840637  59.8173103   5.0029249  33.9053040  59.2910614   6.0305829
  41.8167038  43.1632805  21.2300739  41.8444710  42.2178116  21.3768826
  41.1122780  43.4734344  21.7991257   4.1533852  58.9337425  53.2326202
   4.4893765  59.3634872  54.0191727   4.8912711  58.9392624  52.6229248
  51.7281685  69.4116745  76.6476517  51.9915009  69.6236267  77.5431747
  52.3604889  68.7523880  76.3617477  81.6867218  17.6005497  68.4281235
  82.4099426  17.1273270  68.8395233  81.7666092  17.3969784  67.4962387
   7.4260678  13.5923061   2.8116283   6.8194103  13.8187838   3.5165441
   8.1498613  14.2108221   2.9105821  14.2243729  50.0108871  50.4015350
  14.6480989  50.7368889  49.9437027  13.4657278  50.4077759  50.8295174
  81.7726059  70.9254532  10.8580055  82.0704498  70.6228943  11.7158995
  81.2782516  70.1871338  10.5020103  51.7325439   7.5052567  71.8485947
  51.6933403   7.3617115  70.9030304  51.4901810   6.6611052  72.2292480
  18.0846443  41.4371223  86.4315414  18.9033775  41.8160400  86.7514420
  18.3228893  41.0134697  85.6069336  23.5844059  -0.2387326   2.8918421
  23.9030628   0.4948948   3.4176567  24.0508900  -0.1576109   2.0599496
  65.3541183  53.9486198  77.2836838  65.2317963  53.0013847  77.2203140
  65.3303528  54.2543793  76.3769455  43.0015450  46.3087997  58.9087906
  42.4557877  45.7867165  58.3207321  43.0574379  45.7874718  59.7096176
  77.4571838  54.4290352  32.2315903  77.0673752  54.5136528  31.3614635
  78.3450089  54.1116524  32.0664673  52.5878830  68.4086609  25.4496231
  51.9326401  68.0878906  26.0693016  52.7478867  69.3136368  25.7172909
  51.8193588  60.6877861  39.4092064  51.6270485  61.2492599  38.6582108
  52.1509094  59.8769608  39.0233765  66.8831482  28.1749554  19.5086689
  67.4799194  27.8145866  18.8527489  67.3964920  28.1910305  20.3164139
  52.8600502  50.7164917  19.8933945  53.3284874  51.1075478  19.1559181
  53.1651230  49.8095169  19.9171104  26.4145489   5.5378990  77.4545746
  25.8213577   5.0304093  78.0084839  26.0412159   6.4192710  77.4483871
  22.9839516  63.9352531  83.5239334  22.4896202  64.6935272  83.2126617
  23.8823376  64.1013641  83.2383804  71.9266205  64.6380615  44.9958534
  71.0468750  64.4917450  45.3435135  71.9039917  64.2561646  44.1184273
  71.4963074  26.7052383  67.1149521  71.6599197  27.4351711  67.7121658
  71.4090500  27.1149044  66.2542648  61.6529503  62.8296814  60.8637352
  60.9868164  63.0521164  61.5141335  61.2057228  62.9200745  60.0222778
  17.1867447  16.3252525   1.1820148  17.7997799  15.9913635   0.5270827
  17.5806999  16.0883427   2.0216005  39.7187271  13.6830521  40.3821106
  40.5378265  14.1620779  40.2562561  39.9929085  12.7873268  40.5789146
  73.6444626  23.2936859   3.6007953  73.4799042  22.5156403   4.1335187
  74.5736847  23.2390213   3.3776517   6.4371681  35.8296585  85.9070740
   6.0870471  36.7158432  85.8158493   5.6622653  35.2701035  85.9585953
  64.3858109  25.3839626  29.8254395  63.8190880  26.1438828  29.6928482
  64.4681625  25.3095779  30.7761841  36.8717346  67.7584152  16.6738586
  37.1204720  66.8460617  16.8220997  36.9680290  68.1750946  17.5302105
  15.6690340  62.8960190  51.2653465  16.5363255  63.1117134  50.9225464
  15.6598349  61.9398689  51.3092308  47.9349365  36.2059860   7.9329038
  47.3090744  36.0647888   8.6432495  48.7876167  36.2337456   8.3669472
  68.0124512  13.4392281  57.5787697  68.9554596  13.3301229  57.4560585
  67.9346924  14.1386595  58.2276001  13.5094805  30.4314327  85.3831635
  13.8948021  29.5812721  85.1710663  12.5678844  30.2641850  85.4238586
   2.9353485  52.1000481  50.7027130   2.7539124  51.4807816  49.9957352
   2.3237340  52.8208885  50.5525513  76.1004715  46.6899223  23.6313019
  75.9072571  47.6110840  23.8055553  76.7655334  46.4579315  24.2794571
  71.6891708  26.2748642  29.7092648  72.1347656  26.9918728  29.2580719
  72.1016464  25.4824524  29.3654919  16.5645447  59.1111298  62.4067192
  17.3000240  58.4985962  62.3964233  16.0069752  58.8039093  63.1215363
  25.1839390   1.7862890  84.0100250  24.2453709   1.9546345  84.0935669
  25.5562763   2.6290717  83.7505722  85.5830917   4.5783854  34.7445145
  85.2849045   3.8251412  35.2543602  85.6470947   5.2891784  35.3824081
  43.0880928  68.2010727  13.2679796  44.0207901  68.0597610  13.1056938
  42.6715240  67.3820953  12.9996901  24.7229156  19.6249352  23.0913830
  25.2377987  20.3813286  23.3724422  24.8008919  19.6232491  22.1373653
  20.9958992  38.1194954  17.3293362  20.3922710  37.3849869  17.4405422
  21.2022495  38.3971672  18.2218323  33.1205826   6.9980264  21.5717907
  33.9578552   6.8487535  21.1325588  32.7258720   7.7272048  21.0935307
  67.2994003  57.9841347  11.9570789  66.5799789  58.3031769  11.4122210
  66.9278107  57.2420235  12.4339638  53.9969025  56.7618332  65.7183914
  53.6354485  56.7640724  66.6047211  53.8276138  55.8777275  65.3929291
  63.1524391  16.2011604  45.8144608  62.2161713  16.3113747  45.9802551
  63.5294952  17.0637779  45.9875221  51.8682976   6.8456140   0.7894639
  51.6486549   7.7706375   0.6784661  51.8584938   6.4888663  -0.0987180
  81.3869095  58.7042503   3.5631731  81.4586563  58.2420883   2.7280152
  81.9833374  58.2365265   4.1477561  17.4325008  25.6490421  39.9207001
  18.0119076  26.2929001  40.3280907  16.5649796  26.0521336  39.9547043
  41.5085640  61.8062286  56.6284676  41.9038887  60.9392052  56.7191315
  42.1998787  62.3457375  56.2447472  25.1042347  19.3583412  53.3354912
  25.8391399  18.7566299  53.4542007  24.8218384  19.5699883  54.2252579
  29.2906475   8.6217222  62.1847954  28.5056744   8.8332596  62.6900673
  29.8559017   9.3871717  62.2887535  42.3678932  70.2695618  57.9573708
  41.7386513  70.9426117  57.6979561  41.8707657  69.4521713  57.9262619
  25.1280746  54.5548363  67.9234085  24.4439888  55.2237167  67.9527130
  24.9054508  54.0177116  67.1630402  31.3722858  54.0761147   1.8522494
  32.0374718  53.4410515   1.5868084  31.6462154  54.3594360   2.7245591
   6.7168546  64.2578430  35.4087944   5.8883548  64.2440186  35.8879929
   7.3697662  64.4983139  36.0661469  26.4302597  59.9057274  78.7578125
  26.3387871  60.0350571  79.7018127  26.5021343  60.7908821  78.4006500
  83.8393478  10.2581434  36.1639175  83.6627197   9.5735197  35.5186882
  83.7389755   9.8216381  37.0098610  16.3027935  64.6559906  87.0875778
  17.0248795  65.0699463  87.5603027  16.1149902  65.2549591  86.3649521
  27.9888000   2.8574612  73.3316269  28.0149422   3.7651725  73.6342926
  28.4480667   2.3648620  74.0118103  53.7197075  35.4614258  65.9532623
  53.0073242  34.8690643  65.7127457  53.5845413  36.2338715  65.4043655
  23.8795528  13.1685619   9.4371367  24.1701183  12.5405264   8.7757950
  24.6459332  13.3004618   9.9952545   6.3692894  20.5477257  58.2620506
   6.4764090  19.5994568  58.3365173   6.0167346  20.6805668  57.3821144
  65.5420456  13.3849182  65.8998108  65.3002319  14.3086386  65.8327408
  65.4184341  13.1715183  66.8246918  24.2666416   4.8114123  44.5010414
  24.8361568   5.4340811  44.9528885  24.8679199   4.2393107  44.0241814
  48.8239288  29.8592167  86.5843353  49.0949020  30.6567955  87.0389481
  49.1151466  29.9874020  85.6815720  86.6464005  19.1312447  63.8343315
  85.9605408  19.5856361  64.3235779  86.9289780  19.7640839  63.1741066
  67.7074738  20.3198624  54.6083069  67.1664276  19.8748970  55.2606087
  67.9957275  19.6220474  54.0199203  85.0347977  43.9316940  29.7713223
  85.5149536  43.3952103  30.4020901  84.9274063  43.3648682  29.0075111
  23.5494804  65.4865036  61.3268280  22.8819695  65.2142334  60.6971207
  24.2458744  64.8364182  61.2337799  23.2685242  69.8553467  10.3442078
  24.1719398  70.1716614  10.3404312  22.8685017  70.2638855   9.5765429
  58.2905502  33.6308899  84.6067200  57.9244156  34.0928001  85.3609161
  59.0360718  33.1464653  84.9613495  56.2380943  44.8566399  24.8720493
  55.7809563  45.5576591  24.4074783  57.0528564  44.7374763  24.3839970
  50.1727676   1.0698193  37.7727203  50.6225281   1.8332741  37.4106636
  49.5292664   0.8320497  37.1051865  41.6723938  64.2104797  68.9330063
  40.9743500  63.9708748  68.3234482  41.6208801  65.1643982  68.9931412
  41.0610428  66.9175186  88.5133667  40.6863480  66.0551910  88.6928558
  40.3041039  67.4743500  88.3311157  19.6936207   9.7356386   0.8568183
  19.1198654   9.0085773   1.0985138  19.2717133  10.5086164   1.2319602
  47.2451096  68.0525665   1.0344321  47.9549522  68.6542358   1.2588136
  46.7491035  68.5099182   0.3554381  -0.1282951  46.4906120  63.0272751
   0.6652299  45.9643555  62.9292641  -0.1495373  46.7212524  63.9560280
  86.0149078  28.3507557  88.6356964  86.1795349  27.9275856  89.4783401
  86.4997406  27.8209724  88.0028458  72.6014099  39.1802368  67.4024658
  72.0211258  39.9078293  67.6263199  73.1538925  39.5220451  66.6995010
  60.3545952  24.8238201  44.6481400  59.5613136  24.3170547  44.8217087
  60.8517685  24.7776585  45.4647903  13.5753288  34.9567947  82.7587509
  13.0739260  35.6120377  83.2440186  13.4949570  34.1586418  83.2809906
  14.1597366  35.4513550  32.3193283  13.9729767  36.3855019  32.2259216
  13.4598799  35.1224213  32.8834496  13.5435610  64.9346619  34.1980972
  14.0940638  64.5749588  34.8936501  14.0496254  65.6672897  33.8468285
   3.5867822   5.2888002   6.3375988   3.3894608   6.2034950   6.5391660
   4.5369525   5.2222505   6.4323611  67.3110733  38.3236504  19.6674805
  67.0874786  38.9362411  18.9667892  66.7980728  38.6214447  20.4187298
  17.8066101  48.8430176  15.5489664  18.0678577  48.8469810  16.4698162
  18.3418884  48.1564293  15.1510954  68.4557571  34.1986732  51.0773888
  68.6763916  34.6873512  51.8703232  68.9912949  33.4068718  51.1272316
  82.2126617  19.9470692  11.3849831  81.3167343  19.6108055  11.3634109
  82.4861603  19.8417091  12.2962084  17.8947372  24.7410984  75.9171600
  18.4243965  23.9481277  75.8341599  18.2138290  25.3161469  75.2216492
   0.7622625  34.2945862  53.7856331   1.1001726  33.4268837  53.5639648
   0.7087173  34.2938042  54.7413330  30.5422745   7.0499072  79.9081039
  30.7379627   6.2341728  79.4471054  30.8999023   6.9203529  80.7864838
  58.7030334  48.9859161  17.6954727  57.8621521  48.5890923  17.9227982
  58.4968491  49.5937958  16.9854012  74.2865067  47.8647346  55.6922035
  73.5192032  47.7134018  55.1403198  74.1381378  48.7285194  56.0770378
  62.8302307  14.2683105  51.3932152  63.2562180  15.1235685  51.4506607
  63.4903679  13.6978998  50.9994087  56.9602737  49.3441238  77.3574219
  56.3696480  48.5911140  77.3765945  56.8547821  49.7089539  76.4787827
  79.2212219  53.1968651  16.8660355  79.3839188  54.1184387  16.6648846
  79.9769516  52.7353439  16.5025826  66.2631836   9.3365269  25.4335308
  66.7334061   9.3807812  24.6009655  66.4427872  10.1769619  25.8550091
  68.0440063  35.7859650  88.0821609  68.2256927  34.9203758  88.4481888
  68.5580826  36.3868179  88.6215439  29.5196190  70.1821365  35.6406059
  29.0789471  70.6602707  36.3430519  29.2254791  69.2773209  35.7455826
  64.7749023  33.4836845  17.6971283  63.9488411  33.2320824  17.2841492
  65.2348099  32.6558876  17.8366680  78.5768280  14.6281538  17.5769310
  79.2922821  14.8850956  16.9952641  77.9794083  14.1321869  17.0171604
  13.2067327  64.0812225   4.6087923  13.3276987  64.7223663   5.3091698
  14.0910769  63.9112091   4.2843494  71.9657059  62.7832184  69.1335754
  72.4464493  62.0748444  69.5617371  71.9967957  62.5649643  68.2021103
  50.3835869  38.2130394  11.3734550  49.6457024  37.6391830  11.5794783
  50.1175728  38.6676521  10.5742073  86.3082657  28.8921738  17.2144337
  86.4544296  28.2354755  17.8953285  86.4702225  28.4265900  16.3939247
  65.4690628  28.1916218  35.1034546  66.1332550  28.4346657  34.4584656
  64.6639786  28.0973873  34.5943375  58.0685425  25.5101566  80.8180771
  58.0461845  24.8308258  80.1441040  57.1619415  25.5810223  81.1168823
  76.8843536  46.9139481  29.1617451  77.7200165  46.9032059  29.6284275
  76.2473602  46.6007423  29.8039055  59.8431282   1.9396424  42.9279900
  60.0781975   2.6631970  42.3470917  60.4532318   1.2391660  42.6970482
  64.7839279  20.2385063   9.8489552  64.9229584  20.2797966  10.7951040
  65.1570511  21.0547657   9.5161943  61.9006653  10.0493088  53.3304749
  60.9572716   9.8933535  53.2867126  62.1029205  10.5223818  52.5233040
   2.4858048  70.1728821  29.6720829   3.2094407  70.5750656  29.1916351
   2.3065825  69.3602524  29.1990700  10.3977509  24.2364998  81.4504700
  11.0315914  24.1082954  82.1561890  10.8661814  24.7595463  80.7999115
  78.6191025  63.5857239  81.2726822  78.3074722  64.4680328  81.0710678
  79.5473480  63.7002678  81.4763107  59.5430489  32.7799225  72.2549744
  60.1503792  33.0268822  72.9523926  58.8982582  32.2191849  72.6863098
  70.8057632   8.2621708  31.2194366  70.9830856   8.8976650  31.9129314
  71.5015640   8.4069777  30.5782433  20.5927773   0.3792290  23.7133560
  20.5179825   0.9687968  24.4637203  19.7606926   0.4746284  23.2499275
  72.5686035  42.9111824  35.3006668  73.4603577  43.0031013  34.9651642
  72.1987915  42.1829414  34.8015327   2.7151062  29.1369247  45.1862411
   2.5397382  28.7451878  44.3306580   2.0349858  29.8026180  45.2888107
  39.2079163  69.7100525  40.4188728  40.0536766  69.3411636  40.1642303
  39.1422234  70.5247803  39.9207382  41.2076073  56.7811012  61.4555893
  41.6959038  55.9849548  61.6652412  41.1976624  57.2783356  62.2734451
  35.0717239  66.9154892   1.6153895  35.7878761  66.8834763   0.9810917
  35.5065880  67.0068054   2.4632022  10.6592646   9.6145964   4.0843120
  10.3386736  10.1765051   3.3788252  11.5435619   9.3693457   3.8120935
  47.3191338  21.2324257  15.5864410  46.5505562  20.7629051  15.2622995
  48.0618629  20.6952095  15.3107872  28.4125481  30.1036472  78.0596237
  28.3820190  29.3535690  78.6534882  29.3459282  30.2877884  77.9541321
  84.4849625  13.0141735  36.4284706  83.6539001  13.4501047  36.6169930
  84.2899628  12.0807114  36.5112877  53.7770271  67.4609909  48.5292664
  53.3165398  66.6725006  48.8164482  54.2414246  67.7646179  49.3092499
  19.2662621  46.6368027  64.6471024  19.9401569  47.0932922  64.1434021
  19.5905914  45.7394180  64.7229004  53.6459312  65.3784180  82.0000763
  54.4561996  65.4937439  81.5036926  53.2096748  64.6383743  81.5778809
  66.2718048  35.7759933  83.5403519  66.7013474  34.9761314  83.8435669
  66.9800186  36.4160004  83.4692612  52.3729210  44.8552170  26.5267391
  53.1742630  44.6646347  27.0143471  51.9387627  44.0067215  26.4384365
  55.2485504  59.0664978  54.6894760  55.1573486  59.7823296  54.0605888
  55.5344238  58.3200264  54.1628990  67.7455750  39.6202660  42.5941010
  66.9426346  39.1859016  42.8819466  67.5291214  39.9774361  41.7328186
  73.8171921   2.1789651  21.6139927  74.1165314   1.4067547  21.1340752
  74.3060760   2.9055271  21.2275581  85.5075760   9.9791718   4.7380018
  84.9803467   9.2214117   4.9911056  86.2468796   9.9703941   5.3459358
  25.6467133  10.8675871  62.4734421  26.4646854  11.1086292  62.0386429
  25.8999157  10.1920881  63.1025848  59.9502296  49.7913666  53.0782814
  59.5916519  49.3420792  53.8436546  59.4905243  50.6306572  53.0560417
  15.0071955  46.9400902  72.6437912  14.1279926  46.8660278  72.2726440
  15.0994234  47.8685036  72.8577499  55.0889359  17.5743637  40.6423073
  54.8376923  18.2286987  41.2941933  55.3046303  16.7956276  41.1554108
  30.7464619  12.3715439  21.6665382  30.1702614  12.8210211  22.2847576
  31.2375374  13.0749750  21.2419662  59.9726677   2.3829291   5.8276849
  60.0395660   1.5494249   6.2935467  60.8711510   2.7113101   5.7940717
  16.8033104   5.0910454   7.2061195  16.0132160   5.3814235   6.7504172
  16.4822407   4.7118964   8.0242834  64.0920715  18.7281208  79.2760696
  64.6630478  17.9607201  79.3123245  63.5841293  18.6110153  78.4732513
  55.1201973   1.5347097  82.0957489  54.3520699   1.0005537  82.2979660
  55.3192940   1.3316106  81.1817780  59.8138695   4.3557510  26.2745819
  59.4806137   4.2345667  25.3854885  59.0355263   4.5459509  26.7982597
  73.9232254  21.8558006  63.0336609  72.9911423  22.0631104  63.1006241
  74.1831512  21.6300869  63.9268112  83.5495605  17.3215408  82.4844742
  84.0356369  17.9634113  83.0021286  83.5818939  16.5194263  83.0058136
  43.0627289   9.5950155  26.0723419  43.1005936   8.7706451  25.5873566
  42.9525757  10.2649956  25.3976364  49.2055168   6.9198313  45.4051590
  48.9083748   6.0345926  45.1947021  49.6585197   6.8274951  46.2433052
  24.8224773  29.4107761   5.9187922  25.3108997  28.7374783   6.3924441
  24.0262413  29.5367508   6.4349027  13.8595953  29.3212204  24.7995548
  13.7359610  30.2698727  24.7678337  13.0235376  28.9607124  24.5041370
  23.7170601   6.9754577  11.0016966  24.0279980   7.8806963  10.9920912
  23.5963230   6.7538719  10.0783577   0.4312162  39.8813858  49.2280655
   0.0165286  39.1069145  48.8479805  -0.2949941  40.3874359  49.5924301
  74.9087219  39.3032875  75.4753647  74.6303177  39.6444588  76.3252563
  74.2833633  38.6051636  75.2809982  60.2838783  33.4071426  34.0193672
  59.7014198  33.9971771  34.4977303  59.6946259  32.8416672  33.5201111
  41.8647728  59.1978455  80.6273499  42.2155914  59.8530846  81.2305222
  42.3463020  58.3974953  80.8366241  14.0989180   8.8738422  33.0987968
  13.3402758   8.3225222  33.2904778  14.6932993   8.3026447  32.6123047
  13.4083900  52.8509636  14.8295221  13.1068125  53.6247063  15.3055496
  12.6181803  52.3266563  14.6995068  35.6304207  15.6882982  57.0248528
  34.8803940  15.3534946  56.5333290  35.3724747  16.5735188  57.2819176
  34.5157471  22.0791855   2.4136393  34.1277847  22.2747402   1.5607170
  34.2128067  21.1943359   2.6173544  13.3389482  24.8490410  82.0178070
  13.3084269  25.3503666  82.8326569  14.1199083  24.3020439  82.1022415
  65.7242889  43.8700371  18.5700245  66.4798508  44.4207153  18.7752247
  66.0322723  43.2909164  17.8728886  16.1656857  12.5057278  47.1418686
  15.3723335  12.9913826  47.3676186  16.5181885  12.9640875  46.3790588
  70.2822952  55.2873192  14.6162138  70.0819550  54.3758888  14.4031610
  69.4580536  55.6421776  14.9492874  43.3748741  18.5756321  29.3527317
  42.7554398  17.8462257  29.3751431  43.0720901  19.1248569  28.6296082
  37.8461037  29.1405106  14.6720076  36.9466896  29.0103855  14.9726048
  38.3555946  29.2388783  15.4763527  86.2303238  39.3768425  85.0176849
  85.8324585  38.5577049  85.3125610  85.8596344  39.5235062  84.1474533
  30.3696175   1.9649717  60.3733215  29.9725723   1.1888859  59.9780006
  31.2585220   1.9861604  60.0188751  73.0372620  15.2277012  10.7559195
  73.3738861  14.8528376   9.9420452  72.7210236  14.4739399  11.2539854
  18.7714920  65.2240143   4.3438210  18.5065670  65.7790833   5.0772676
  19.1655025  65.8292084   3.7155499   1.0403060  57.4702530  24.9028282
   0.9142134  56.5815506  25.2353001   1.9897707  57.5651703  24.8270664
  44.6182671  58.5617981  78.4016647  45.1993027  58.6767540  77.6497269
  43.7862091  58.2811203  78.0207062  10.4409199  31.8125572  17.3780231
  10.5824289  31.7701588  16.4322910   9.7852526  32.5006409  17.4914875
  83.8238144   2.8752940  79.3755264  84.6618729   3.2596462  79.6327515
  83.6028671   3.3113444  78.5525589  71.6728134  35.6772728  77.0546951
  70.9411163  35.2555199  76.6041641  72.0780411  34.9747429  77.5631027
  78.8367157   4.6531925  15.9513569  79.0978928   4.1633067  16.7311192
  79.6628723   4.9201527  15.5483408  82.2377014  30.5422344  18.7619667
  82.2426529  29.7760487  18.1882343  81.4459991  30.4407196  19.2902966
  47.0605850  67.8574677  57.8155823  47.9532013  67.5625458  57.9958305
  47.1274643  68.3301849  56.9859428  69.7237167  42.3335571  64.2504044
  69.7640533  42.4511414  65.1995010  69.9952774  41.4265366  64.1096802
   4.6601691  59.8075790   7.3344707   5.3112879  60.2812843   6.8169012
   3.9300106  60.4206009   7.4199343  37.4459991   5.6279259  39.1948051
  37.2653694   6.4712901  39.6099472  38.0672493   5.1993451  39.7835274
  44.6472015  60.4273911  37.0343971  45.1241570  60.3046532  37.8551750
  43.7573814  60.6527100  37.3058472  37.3476982   2.0881157  55.8606377
  37.9684906   2.4900203  56.4683571  37.1904793   2.7614336  55.1987038
  17.9220715   5.1348128  63.9393654  18.0881920   5.8985472  63.3867836
  18.2704334   5.3792105  64.7967682  79.6094437  31.7728939  24.4398766
  80.1006241  31.3344154  25.1346474  79.7696152  32.7053490  24.5851440
  10.2018919  66.6316376  54.6607742  10.8655577  67.3079300  54.5250969
  10.1833277  66.5010605  55.6088448  78.2290192   8.3908339  20.9181805
  78.1411514   8.6414633  21.8377972  79.1612778   8.2031097  20.8091202
  38.7910767  51.3705673  31.1323967  39.5206070  51.6133804  31.7025356
  39.0667305  50.5479965  30.7278919  16.7743721  43.5622025  34.7586784
  17.1367321  43.4607391  35.6388092  17.4037724  43.1210098  34.1882019
  74.3445282  50.4582329  63.5959625  73.6045609  49.9586716  63.2508240
  74.7997894  50.7803001  62.8179893   8.1902685  37.3975029  51.0295753
   7.7692733  37.6644783  51.8467178   7.8954244  38.0422478  50.3864555
  69.5240784  18.3816032  13.0519686  69.4368744  19.3235188  13.1983242
  68.6252747  18.0527153  13.0666046  79.1476822  41.3515778  19.5588779
  78.8717804  40.8078728  18.8209820  79.3259125  40.7277107  20.2626190
  44.5654526  54.9299812  83.3176117  44.0057335  54.5429611  82.6444397
  45.4411812  54.5970230  83.1214600  67.7269440  13.1629019  44.1943741
  68.4353638  12.5334892  44.3293266  67.1215286  12.7184858  43.6009140
  52.3500557   2.3646042  54.8735809  51.9959412   3.2160339  55.1302986
  52.7313919   2.0115652  55.6774330  59.4030533  40.4897614  88.6193619
  59.7816315  41.3543968  88.7784576  60.0493355  39.8770599  88.9702835
  13.5459871  42.1921043  65.4546127  14.4029331  41.9137001  65.7776642
  13.2313023  41.4492340  64.9394913  58.9302711  41.1232529  82.1659393
  58.2583160  40.4790726  82.3889694  59.6266136  40.6106339  81.7553787
  78.0563049  46.9080963  51.5762978  78.8233795  46.9207726  52.1487198
  77.5532379  47.6809883  51.8328018  35.5434036  56.9945717   5.1791558
  35.1134911  56.1498795   5.3129439  35.3680763  57.2101402   4.2631736
  27.1310959  21.1730099  21.6192226  27.0857258  21.2645779  20.6674919
  27.2420826  20.2334194  21.7644196   9.9766502  10.0305910  52.8212700
  10.4319553   9.2591457  52.4839249   9.9371920   9.8907623  53.7673798
  46.6103668  47.3558578  78.3734512  46.7083969  46.9694290  79.2436752
  46.4828072  48.2899361  78.5391541  39.8574104  60.2660675  74.3294678
  40.7808266  60.3564873  74.5647507  39.7048912  59.3211823  74.3167725
  82.7183456  69.6958923  50.9572296  82.3649063  70.4300003  50.4548378
  83.0405426  70.0926056  51.7665787   1.1534377  10.5438957  59.1496506
   1.1095557  10.5919752  60.1046371   0.3002688  10.1978168  58.8878059
  61.2276154  11.4475365  71.2292633  61.1217766  11.3596230  70.2820053
  61.4503288  12.3691158  71.3608704   0.6181223  41.3048058  35.6016655
   0.8786604  41.0914040  34.7056656  -0.1911002  41.8064117  35.5027618
  66.7870712  61.6154480  30.3579597  66.9187317  61.6314049  31.3059273
  67.4841614  61.0480156  30.0288486   5.5842986  50.9527626  85.2974930
   6.4244699  50.8071136  84.8626022   5.5052471  50.2259636  85.9153519
   6.1107259  32.7628708  47.0895615   5.6072249  31.9653091  46.9264221
   6.8910460  32.6694794  46.5431099  76.4692612  37.8881569   6.5400271
  75.6249695  37.4390526   6.5813575  77.0909653  37.2064133   6.2852049
  61.7094765  33.6396332  57.4905701  61.8743477  32.8387947  56.9928665
  60.8353729  33.9166451  57.2159157  75.1900101  51.7136993  59.5409660
  75.1655045  51.9685249  58.6186333  75.9823380  52.1278534  59.8829041
  59.5183601  36.9357796   0.6109532  60.4348907  36.9542046   0.3355128
  59.0856285  37.5761185   0.0462055  78.3470459  57.4763680  24.1425686
  78.4273071  57.3816452  25.0916824  79.2490921  57.5577087  23.8328495
   9.5403728  50.5826912  43.6325226   9.5311499  51.2183342  44.3481369
   8.9748926  49.8724098  43.9357758  24.6280251  40.5141678  87.8901367
  23.8947659  40.4706650  88.5038681  24.2327442  40.7927284  87.0640640
  77.0550461  61.5001755   9.9626827  77.3572311  61.3744278   9.0631809
  76.1662979  61.1447449   9.9686756  12.9540033  11.0981960  10.7511168
  12.8169155  10.1911230  11.0243492  13.9038219  11.1821365  10.6672611
  65.0777588   4.7054162  77.9835129  65.5882034   4.1247840  78.5479050
  64.1841125   4.3666396  78.0370026  74.6776047  30.0759754  33.8487816
  75.0791550  29.6996098  33.0656242  74.3428345  30.9255009  33.5616112
  45.7160568  14.5644102  39.4152412  46.3147964  15.3066607  39.3327065
  45.4166412  14.5980864  40.3237839  73.1831284  49.8175850  57.4507446
  72.8398285  49.6749001  58.3327980  72.4509430  49.6060028  56.8716278
  85.0853119  58.1906357  13.5223579  85.2067184  58.6433372  14.3569555
  84.2931061  58.5797081  13.1518679  33.9129562  69.8390656  80.8225708
  33.8942833  70.3238831  81.6476974  34.1935272  68.9576950  81.0689316
   6.3623257  22.5787334  18.9816036   5.6033211  22.2704029  19.4766541
   6.0272293  22.7275314  18.0974083  84.0203323  33.7954102  86.7042084
  84.4191971  33.7676201  85.8345184  84.5566483  33.2043839  87.2326813
  33.5065346  65.6911926  48.9640999  33.4373779  65.4847336  48.0319901
  33.1254311  66.5655441  49.0446739  53.4179573  48.1055679  60.5766830
  53.9420013  47.9664993  59.7878418  52.5454941  47.7881699  60.3436699
  17.6744843  45.8596458  85.6357803  16.9743519  45.7123146  84.9999084
  18.0605793  46.6965179  85.3773117  68.7206192  16.5295906  56.8003197
  68.5436172  16.5239067  55.8596458  68.8410034  15.6074333  57.0269585
  76.4832611  46.1091881  77.8316650  77.3163605  46.4670143  78.1385040
  76.7274704  45.3355598  77.3236313  85.2157822  14.9622145  29.9765797
  84.7398300  14.5160313  30.6770191  84.6373825  14.8997631  29.2164574
  26.1876583  67.0105362  19.5046329  25.2866745  67.1722183  19.2247810
  26.1366138  66.9602737  20.4591484  86.7385254   0.0227568  55.3370934
  86.8810577   0.0890624  54.3928909  85.9946671   0.6003700  55.5081711
  77.6638641  39.3799057  57.7906685  77.9392776  38.5153885  58.0956154
  77.2700958  39.2172966  56.9335022  24.2051487  56.1583099   5.1217413
  24.0803356  57.0881653   5.3115349  24.0544853  55.7205315   5.9595251
  25.2135086  12.1998940  17.8625851  25.0651321  11.6910353  17.0655422
  26.1646252  12.2956066  17.9120598  45.0689468  57.4629745  68.7838974
  44.7022095  56.7065849  69.2417297  44.3763924  58.1228218  68.8185272
  67.2092896  17.8651752  60.6225929  67.7009583  18.3583279  59.9658585
  66.8523026  18.5341511  61.2067680   3.3777320  45.3254623  13.7614975
   3.0144370  45.4277763  12.8818493   2.9932878  44.5112114  14.0861931
  19.1476269  43.8986130  26.1584072  19.2072582  44.0386200  25.2133808
  20.0436993  44.0139008  26.4746265  57.1940994  64.8302689   4.6764092
  57.0596809  65.7527695   4.4592757  57.3755379  64.4102859   3.8356194
  47.4363213  49.5887604  12.6812563  46.5748558  49.2235184  12.4795065
  47.7329407  49.0946808  13.4455414  64.6268158  42.4410095  81.5382385
  63.6899681  42.2605743  81.6156769  64.6711349  43.3169136  81.1547546
  21.7588768  15.8622561  85.1238022  22.1438007  16.6815071  84.8125229
  21.4230804  16.0713692  85.9954376  81.2666550  32.1465225  87.8743286
  81.5007019  32.6968460  87.1269379  80.6875610  31.4783306  87.5077286
  38.4742203  50.9890671  72.9946060  37.6973953  50.9608459  73.5531616
  38.2808304  50.3772850  72.2842865  71.2765503  67.5847626  38.4461021
  71.1509018  67.9828568  37.5847244  72.2254715  67.4922562  38.5310860
   9.8680449  35.8870468  34.4255142   9.1090565  36.2800369  34.8564758
   9.4934826  35.2751160  33.7918930  28.6696548  70.6440353  70.5124130
  29.4790344  70.1504364  70.3801498  28.6170311  70.7682800  71.4600525
  41.5614548  16.5675526  49.2276649  41.1339798  16.1998634  48.4541626
  42.2009583  17.1870041  48.8761749  49.0967751  10.4360037  40.7448387
  49.1584702   9.4811811  40.7720299  48.7662468  10.6793804  41.6095657
   3.9427011  50.7469254  32.1924591   4.6531105  51.1678047  32.6766205
   3.2114978  51.3611679  32.2578735  53.5204659  57.8397484  35.1887932
  53.8488197  58.4393311  34.5187798  54.3088188  57.4757195  35.5915565
  13.4352236  51.3735542  77.9642334  12.9481030  50.5516167  78.0221939
  14.3194017  51.1104622  77.7088013  38.6730804  10.4936905  82.4525681
  38.9222870  10.8216839  81.5885391  38.3456917  11.2645273  82.9160995
  75.9341660  19.6040840  54.0774841  75.7022324  20.4529133  53.7007446
  75.1882477  19.3765278  54.6325150  65.1212387  49.3119316  55.9984589
  65.2682877  48.7285004  55.2540016  65.5785065  50.1194649  55.7638779
  25.2434101  56.4868011  45.4789124  25.4130211  55.7105446  46.0126648
  24.8400650  56.1452713  44.6808510  30.8016720  12.9906931  66.3760071
  30.6122227  12.1249886  66.0142136  29.9559002  13.4388971  66.3800964
  83.3730698  35.0633507   8.6468172  82.6855698  35.1293716   9.3095493
  84.0548248  35.6638145   8.9482956  36.1530113  45.5738449   3.5416276
  36.7784157  44.8498764   3.5727687  35.2996674  45.1495094   3.4523163
  71.9137344  18.6167469  63.4253159  71.4036407  17.8388767  63.1995964
  71.5071335  18.9454479  64.2271042  52.9974670   7.2788515  49.2965584
  53.2295761   7.4067049  50.2163467  52.1070709   7.6226425  49.2242088
  67.5955429  54.3839760  19.5860863  67.6284180  53.9080086  18.7562637
  66.6615829  54.5129356  19.7513905  83.2043152  35.8017464  89.1308136
  83.3872070  36.7400589  89.1792984  83.2427826  35.5982018  88.1962967
  13.0133190   2.6037045  85.9910812  12.0932598   2.8105209  86.1552505
  13.3109989   2.1803131  86.7962875  79.0259094  37.0378799  30.5120926
  78.5269165  36.3942299  31.0150375  78.4168625  37.7648201  30.3823032
  37.7411613  42.0483322  88.6226883  38.3210945  42.6555481  89.0822525
  37.0381012  42.6008034  88.2810593   8.6775246  15.6096439  10.6803808
   9.3173437  16.0482178  10.1195631   9.0098152  15.7381868  11.5688019
  28.2531567  13.0910034  51.4069748  28.3236580  13.6499414  52.1808319
  27.9631023  13.6808281  50.7111244  27.3178997  54.4696312  34.0300179
  27.9758778  54.4446335  33.3352737  27.4826527  55.2947655  34.4863548
   8.1485872  35.5618248  14.9361992   7.8492379  34.9899788  14.2293663
   7.8435717  36.4335175  14.6845016  44.7121658  67.3195953  54.2933807
  45.2815933  68.0159302  54.6206398  43.8385658  67.7106247  54.2808723
  56.2419319  69.9244843  73.1198578  57.0496368  70.4279785  73.2215118
  55.9648247  69.7327805  74.0157852  72.3124237  15.6211424   1.7903805
  73.2353592  15.5457029   1.5480210  72.2249756  15.0766764   2.5727742
  15.0436497  37.5418167  77.1252289  14.2135105  37.9832458  76.9456711
  15.1144123  37.5438271  78.0798035   7.7704082  32.4632149  36.2806053
   8.6833420  32.3867493  36.5579796   7.4927068  33.3201447  36.6043091
  59.2314682  12.6830988  46.8297424  60.1839218  12.7781515  46.8346519
  59.0833473  11.7480679  46.9712029  12.2775898  11.1866598  25.1323795
  13.0708017  10.7439728  24.8305931  12.5733624  11.7435923  25.8525028
  58.4060059  63.4772034  55.6687660  58.4815025  62.7442589  56.2797699
  58.6866112  63.1174355  54.8273048  52.3290138  62.7576828   7.8090224
  52.7158127  62.0035095   8.2538185  52.2275734  62.4738312   6.9005237
  48.5328903  67.8716583  23.9422226  47.6630936  67.7395630  24.3193626
  48.3651466  68.2590256  23.0831337  61.7222977  60.5890884  74.9846039
  61.3532944  60.2628822  74.1638412  62.3484077  61.2611771  74.7153244
  71.0551682  52.7574501  70.8769150  71.1926727  51.8215027  71.0229568
  71.5468903  53.1841316  71.5786133  -0.2635105  58.3909798  41.2276993
  -0.1068033  57.4483070  41.2828484   0.5928298  58.7861137  41.3913536
  75.8093033  62.6515083  31.0364265  75.1388092  62.9274254  30.4114914
  76.2262650  61.8959312  30.6223297  13.9780865  54.1211090   2.1409745
  14.2579155  53.3284073   2.5987425  13.1946306  53.8556366   1.6593595
  12.4068356  15.3880997  77.5183258  12.7806959  15.4521027  76.6394806
  11.4606895  15.3654671  77.3750534  77.6926956   2.4695561  50.3004570
  77.7582169   1.5298772  50.4705811  76.8106842   2.7042561  50.5889091
  61.2333832  48.4710388  66.8139801  60.9839249  48.3191833  67.7255402
  61.0221977  49.3915329  66.6580276  22.8294773  15.1169500  33.7974663
  22.5651588  15.2653522  32.8895340  23.0190506  14.1797495  33.8416023
  78.5277405  31.7623711  66.9376373  79.0263901  32.4808083  66.5485001
  79.1288757  31.0176353  66.9221268  27.6609020  12.8209524  25.0164108
  26.9929543  12.2763329  24.5999184  28.1790257  12.2077703  25.5377426
  62.1603394  64.1928329  33.4089317  61.5229454  64.8865967  33.5782089
  61.6778564  63.5441322  32.8964615  49.0519867   3.9958496  20.3484898
  49.2381058   3.2406237  20.9063663  49.8110886   4.0582342  19.7687416
  14.3447714  48.0994835  16.7253075  14.6805410  48.1118584  15.8290157
  13.4121599  47.9066048  16.6290550  84.4955673  13.1038961  49.1794586
  85.0788879  13.3885145  48.4759216  83.6169281  13.1788721  48.8071632
  48.4675446  15.1220102   0.7061293  48.8570290  14.4191103   0.1860663
  48.7075195  15.9242544   0.2423984  25.8043213   8.5592775  55.0742722
  25.3215961   9.3831491  55.0076065  25.1576843   7.8852062  54.8651772
  79.2370987  70.0493698  39.9774857  78.4717484  70.3636856  39.4961472
  79.8155823  70.8101273  40.0307465  24.8157272  19.4271793  11.2248449
  24.3844929  18.9232407  11.9149990  25.7046375  19.5678997  11.5508347
  15.6155920  17.8812008  50.8482323  15.0465651  18.5772343  50.5196342
  15.3287334  17.7434998  51.7509956  83.4880524  13.1219654  70.7495651
  84.2282486  13.1523552  71.3557205  83.0556641  12.2897453  70.9410782
  54.2684822  31.1997108  13.1153364  54.5582008  32.1005630  13.2594271
  53.3323593  31.2144127  13.3145666  54.7074356   5.5938063  27.1359901
  55.1404076   6.0113192  27.8806038  53.7806740   5.5794773  27.3750210
  85.2488022  18.8477821  34.8660278  85.3269424  19.0955257  33.9447517
  85.3915863  17.9013138  34.8724747  22.4275799  68.6695786  27.3549881
  21.6762199  68.7142410  27.9463367  22.4310989  69.5159225  26.9078484
  50.2523270  11.4113483  28.3044949  50.9695625  10.8558149  27.9992294
  49.7161293  10.8334370  28.8473969  48.2885933  54.4862251  28.1368275
  48.2306442  54.2070465  29.0505733  49.2004128  54.7555695  28.0260468
  70.2305069  27.4214058  48.1637344  70.8944321  26.8290539  48.5166550
  69.4617615  27.2752476  48.7150002   7.3755178  22.6779461  51.6373291
   7.2139997  23.4404316  52.1929893   6.6444192  22.6726360  51.0195122
  68.0367737  39.7277336  25.9583626  67.6758118  39.6734238  26.8432293
  68.3356781  38.8388443  25.7666473  60.5165482  46.8149643  40.3735313
  60.6896248  46.9018211  39.4361229  59.5649261  46.8854179  40.4489288
  83.5784531  54.7712250  77.9657516  83.1341324  55.4944458  77.5233002
  84.1601562  54.4043083  77.2999954  10.6273499  60.1571083  68.8298416
   9.9289751  59.5028229  68.8094101  11.2164745  59.8570671  69.5220413
  86.2440567  60.1688652  78.6871719  86.4146957  60.7615852  79.4191513
  86.1734238  59.3038445  79.0908813  30.1984100  63.4430275  43.3498764
  29.2855167  63.2030487  43.5088348  30.2962933  64.3003922  43.7640991
  14.7039795  48.9417191  61.6355400  15.0658846  49.2838783  60.8181152
  14.9799442  49.5712509  62.3017006   1.8503969  42.5911789  54.9689522
   1.6050367  42.0477524  55.7177658   2.2807786  41.9862175  54.3647766
  55.4373283  61.0351143  52.8135223  56.0007477  61.7744217  52.5850143
  54.6262779  61.1938362  52.3305740  68.7577667  20.0333023  19.5120106
  69.1098557  19.4245605  20.1613960  69.3715820  20.7677746  19.5146675
   5.5557919  69.1361237  21.6825886   6.0639591  68.3535004  21.8959007
   4.7450700  68.7987976  21.3015709  34.8090591   1.4525605  58.2246170
  35.2037697   1.5791185  57.3618202  34.3132668   0.6377445  58.1439972
  64.0869522  41.6475830  63.5184822  64.9728088  41.2875328  63.5615654
  64.1215820  42.2840881  62.8044167  46.4947319  50.5152817  44.0211601
  46.4210091  50.2097855  44.9253006  46.1921692  51.4229584  44.0496140
   2.1243992  49.8850594  89.1731415   2.0733037  49.5677795  88.2714996
   2.0733976  50.8377037  89.0950699  26.5005112  50.9297791   1.8458259
  26.8046188  50.0397072   1.6682869  25.9506721  51.1495094   1.0937432
  52.4956322  14.5386133   3.0732505  53.3116074  14.1518230   2.7557490
  52.7089577  15.4599361   3.2211926  73.6078110  33.0295029  41.9727592
  72.6727600  32.8290977  41.9308090  73.9155655  32.5735970  42.7561302
  37.3915787  22.0965004  13.9299269  36.5788155  21.6248722  14.1121826
  37.1106110  22.9892750  13.7293177  52.9064522  14.2819071  48.4773178
  53.7695045  14.1467209  48.8685951  52.2897224  14.0533457  49.1727600
  82.5491104  45.1817818   3.3416820  81.9081955  44.6806755   2.8373458
  82.3831482  44.9356804   4.2516937  71.0032578  23.4499512  59.2342873
  70.5192642  22.8129368  58.7087402  71.7761993  22.9731274  59.5366478
  77.4826355  18.6349163  18.0133324  76.5859146  18.3278408  17.8798237
  77.3832474  19.4879150  18.4361191  33.8398743  58.7349434  68.7515182
  33.8793182  58.4861259  69.6749725  34.7392197  58.6375465  68.4385986
  63.4291649  28.4782104   5.2168112  63.4759331  29.4013653   5.4654689
  63.1187248  28.4894657   4.3114204  40.9993095  67.6100693  73.1219482
  40.2559471  67.3495865  72.5780792  41.7667465  67.4415894  72.5752411
  11.0676737  25.6772003  75.6615372  10.4556427  25.9989719  74.9996414
  10.7302046  26.0227604  76.4879379   2.5466352  17.5893040  34.1809006
   3.3276963  17.0605984  34.3441391   2.7024977  18.4018211  34.6623116
  49.2581596  18.4690495   1.2233611  48.3671608  18.8187962   1.2287164
  49.7200203  18.9799862   1.8880869  84.3427277   8.5248098  84.9563828
  85.1822739   8.0718622  85.0353241  84.3631897   9.1889591  85.6453781
   6.0519562  50.8170395  70.9775543   6.2196960  51.1427765  70.0932541
   6.8930573  50.4624596  71.2657471  17.8115425  71.6540451  22.9704418
  17.1236649  72.2454453  23.2758942  17.3411446  70.9490051  22.5255985
  79.7843475  26.1037521  78.5955124  79.0105057  26.6666031  78.5710373
  80.4957962  26.6608486  78.2797318   0.9821004  45.0214386   1.7199703
   0.5151288  45.8520508   1.8108395   0.7716680  44.7239532   0.8348424
  26.3166027  39.1226540  86.0103226  25.5885124  39.3845673  86.5738144
  27.0212002  39.7319221  86.2306900  29.7367554  64.7231216  58.9640236
  30.3314171  64.4001160  59.6409874  29.2539425  65.4326019  59.3880005
  75.9219055  54.7721481  58.8950462  75.0536575  54.8553200  59.2893257
  75.8961105  55.3525620  58.1343307  23.7239609  63.8259010  68.5657730
  24.3540192  63.3341866  69.0925369  23.6065598  64.6492844  69.0395813
  81.1274796  14.6952667   0.7030146  81.1397400  15.6313734   0.5035506
  80.2940216  14.3857117   0.3484013  57.9698524   7.7252035  58.2920494
  57.1975594   7.7524610  58.8568954  58.4361649   6.9340296  58.5619164
  84.9178238  47.9685516  36.6863861  85.7196808  47.6952095  37.1319733
  84.9266510  47.4858246  35.8598671  49.3647232  35.6816330  82.0371704
  49.2250938  34.8486366  82.4875565  49.0058250  35.5431137  81.1606827
  43.6387329   6.2457590  34.5981178  44.1733780   5.8919621  35.3089027
  44.1552620   6.9718151  34.2484436  59.8017387  27.1858730   4.0823040
  59.4895668  26.3436394   4.4130926  59.3659859  27.8360176   4.6333609
  29.3888893  23.3781166   8.6779070  29.5447521  23.2863255   9.6178608
  29.0260410  22.5333138   8.4116688  29.2201881  69.0677338   7.8777828
  28.6766624  68.4010315   7.4578853  29.9292660  69.2260361   7.2545786
   7.8645272  16.7617493  78.6893463   7.1532569  17.3306808  78.9836960
   7.5834270  16.4529819  77.8280258  52.7040939   4.5738006  10.7663145
  52.9468155   4.0943341  11.5584183  51.7888718   4.3380256  10.6146135
   7.8855271  37.2994919   8.7120495   8.4723501  37.3607712   7.9583144
   7.8774486  36.3684731   8.9342365  28.9575386  65.2444916  37.4274902
  29.2950191  65.5195770  38.2799377  28.0272484  65.4682159  37.4546509
  12.6823826  45.8757248  40.9795265  12.7927523  46.6443100  40.4197655
  11.8946018  46.0624657  41.4901733  77.8203354  52.7229576  23.9401417
  78.3538818  52.0115967  24.2944412  77.5409393  53.2189560  24.7096596
  43.0878525  39.7086411  20.8863525  43.3531799  39.7935638  19.9705906
  43.8800774  39.4200363  21.3394756  31.0921497  47.4860153  74.8005219
  30.5011921  47.3176689  75.5344543  30.6128883  48.0987968  74.2428131
  10.2891140  18.3848572  79.5739822   9.8543940  19.2043266  79.3379364
   9.8289251  17.7152119  79.0679932   3.5356123  61.8695450  72.7897720
   2.7268603  61.6862526  73.2678452   3.9155192  62.6229439  73.2417603
  50.1067924   3.4882438  10.9187899  49.1765747   3.7107341  10.9565716
  50.1339073   2.5444613  11.0761776  43.8119659  30.0851460   4.3842659
  44.2859039  30.6807499   4.9646688  44.0946846  29.2115936   4.6548328
   9.3339596  32.6198006  10.6738501   9.4772892  32.0976524  11.4631834
   8.9125032  32.0170670  10.0612183  34.6493454   5.7798820  50.0953979
  35.3551559   5.2378254  49.7429237  34.8718605   5.8915663  51.0196533
  69.5475235  54.8181992  30.0522728  68.5993118  54.6897278  30.0274620
  69.8987808  53.9625854  30.2988129  59.7461739  36.3664551  66.7814178
  60.6943855  36.3360252  66.6541290  59.5513191  37.2948837  66.9090195
  13.2954712  35.7425575   6.8616080  13.8347616  35.1475220   6.3407130
  13.9070826  36.1389732   7.4821048  74.9910965  66.9572220  65.9265900
  75.4839401  67.4108810  66.6103516  74.1394882  67.3941040  65.9152603
  25.8111324  69.5843048  83.7632065  26.5441914  69.9832458  83.2944794
  26.0497341  69.6569824  84.6873322  60.7278061  56.3817329  55.4512482
  60.7561951  56.4630890  54.4979324  60.7157478  57.2847710  55.7684402
  55.0072327  29.9742603  10.4133930  54.9892311  30.9308872  10.4412060
  54.7795792  29.7044525  11.3031178  18.1052685   9.9904089  21.0949478
  17.7604733   9.5152121  20.3389492  18.9239750  10.3756628  20.7826500
  78.8693008  10.2033138  75.8044128  79.6072159   9.6681013  75.5124207
  78.5872574  10.6715117  75.0186157   6.2120233  67.3432388  47.7613106
   6.6139679  66.9575729  46.9828911   6.4493880  68.2695923  47.7194366
  14.9254103  64.9231186  20.5716820  15.2134180  64.5719681  19.7290802
  14.3143559  65.6235199  20.3430157   9.9435053  19.5754585  84.8685532
   9.0672359  19.9554882  84.8056107  10.3942232  20.1185417  85.5151901
  15.2019873  33.9262047  13.8764000  14.7508097  33.3271675  13.2815685
  15.9793730  33.4438705  14.1579227  11.6956577  22.2096615  26.8738861
  12.4651451  22.7138252  26.6094284  11.9836178  21.2974453  26.8396091
  16.4441223  69.9106369  83.2182693  16.2133293  69.9258347  84.1471024
  16.2848778  70.8051987  82.9172363  14.8477135  45.9489098  28.4768448
  13.9648380  46.0559235  28.8308372  15.3356209  46.6976509  28.8197231
   0.5686642  57.1347656  61.1529427  -0.2384382  57.4917984  61.5235405
   0.7021111  56.3098068  61.6197052  67.6686096  51.8451920  33.2826843
  66.9835739  52.2131500  32.7245026  67.2786942  51.8218498  34.1565552
  82.8934174  35.9823151  52.2875061  82.1441498  35.3964882  52.1796379
  83.5331116  35.4653435  52.7771606  63.1549187  38.1601028  19.8421574
  62.3859329  37.7422600  20.2298431  63.8888168  37.6074753  20.1109009
  51.3992195  61.3758430  74.8977661  50.6794395  61.9905167  74.7552109
  51.0503654  60.5294914  74.6180878  17.7922421  41.4057922  12.8295050
  18.5360947  42.0007057  12.9243488  17.8470001  40.8303261  13.5924397
  20.1949940  21.9504433  63.7427597  21.1029587  22.1492538  63.5140533
  20.1649742  22.0310574  64.6960831  45.5069695  55.8186150  10.4572592
  45.6836243  55.7728577   9.5176144  45.8353119  56.6781464  10.7211199
  12.8574982   8.9320164  78.5636520  12.3204308   8.1566029  78.7265167
  13.2084026   8.7996635  77.6829758  74.8364410  34.1527023   9.1014709
  75.1912766  34.9298515   9.5331621  75.4440308  33.4507713   9.3346214
  31.0349197  49.1502953  20.4189777  31.8565216  49.1687317  20.9097557
  30.8622532  48.2197418  20.2758541  82.5553131  26.5309410  73.3071976
  81.9548950  26.3127842  74.0200348  83.4189682  26.5517101  73.7193909
  15.4522867  59.3683853  58.8336639  15.6632948  58.6149483  59.3850594
  15.6225977  59.0672188  57.9411812  56.2768898  20.3783627  71.3259735
  56.8938828  20.9836922  70.9147186  55.5486526  20.9325638  71.6066208
   7.9664588  34.0223122  33.4732933   8.2211790  33.3717613  34.1276131
   7.0413156  33.8432999  33.3050804  68.2571259  15.6244116  35.0529594
  67.3210373  15.4317179  34.9996719  68.5231628  15.7727423  34.1455154
  38.2241402  10.3502111   4.9787698  38.6997452  10.8349266   5.6533675
  38.9056358  10.0341473   4.3855553  25.5211449  62.1430740  59.0484772
  25.4451504  61.3714561  58.4871712  25.8037071  62.8416901  58.4582863
   8.3801870  53.2220879  32.8432274   8.9129152  53.4335175  32.0765877
   8.9559488  53.3911324  33.5889854  58.2322159  12.6435385  27.7792530
  57.3081398  12.8839235  27.8465767  58.3605804  12.4429226  26.8521576
  19.6578217  65.9515991  32.5400505  19.9279060  66.3600388  33.3625221
  19.6480808  66.6701050  31.9076881  42.6749725   3.2513189   2.7618546
  43.5996437   3.4926622   2.7073689  42.2822342   3.6283517   1.9745578
  69.6852036  63.1234169  29.3281269  69.1514359  62.7925987  28.6057129
  69.4276886  64.0411758  29.4154816  12.8835011  15.5925617   5.2319908
  13.3028059  16.1697712   4.5938330  12.1221046  16.0858879   5.5371747
  59.6132736  67.2208328  51.5483780  59.0212059  66.4998474  51.7625275
  59.4522934  67.8734283  52.2298775  46.6593361  12.5646305  74.3175201
  47.2136497  12.4490976  75.0892792  46.3502350  13.4685411  74.3777847
  40.5419540  40.2845764   9.6020632  41.4296227  39.9561806   9.4591236
  40.6206856  41.2343483   9.5128288  28.2299919  14.2007084  88.2268143
  28.2192879  13.2776995  87.9734955  27.3914948  14.5436506  87.9177094
  69.8337021  51.3390656  89.3032227  69.7428436  51.5124741  88.3662567
  69.5224533  50.4404144  89.4117661  22.0065632  34.3077660  26.2617512
  22.8866844  34.6757469  26.3405647  21.6879997  34.2536926  27.1627655
  43.3500481   3.1324606  23.7472153  42.9645767   4.0003786  23.8670616
  44.2912140   3.2718165  23.8521938  20.1206055  58.8891106  23.5576649
  19.3700523  59.4452095  23.7666111  20.2857151  59.0488319  22.6284389
  85.7825012  29.1466579  78.1257629  86.7205429  29.2983894  78.2410278
  85.3716049  29.9656467  78.4026337  73.8768005  26.2618523  32.6190414
  73.7363510  26.9828663  32.0053253  73.0037460  26.0605927  32.9559517
  31.6087341  66.6468582  36.1419563  32.4656792  66.4288025  36.5084686
  31.2177486  65.8000565  35.9267998  36.9363518  58.0432663  58.2400017
  37.3251114  58.7956696  58.6860847  37.6178932  57.7428970  57.6387367
  65.8164825  61.4025536  79.7282410  66.0922012  60.5736732  79.3368759
  64.8990021  61.2631912  79.9628296  39.9562531  56.5297890  30.5545444
  39.8158875  57.3658524  30.9989853  40.8119049  56.2340012  30.8653584
  27.0264530  11.4749937  66.0526810  27.1596298  11.9033222  66.8982773
  26.7895565  12.1868811  65.4582672  64.6176453   7.8730288  35.0656776
  64.0667801   8.5459566  35.4656067  65.1904907   8.3555212  34.4696236
   0.3461150  56.6492767  89.0786819   0.8429885  57.4637489  89.1560364
   0.8120985  56.1470032  88.4102402  68.4120712  58.9571342   3.5794771
  68.8178558  59.6823921   3.1045284  68.8284149  58.1733131   3.2209816
  32.6419067   9.6291876  72.7709503  32.2455292   9.9069605  73.5967560
  32.0538673   9.9694023  72.0966415  38.7274208  66.2682953  38.1296082
  37.8140335  66.0027084  38.0227585  39.1559334  65.5033188  38.5135612
   9.4303684  60.1410713   6.4309001  10.3143988  60.5038834   6.3753214
   9.5238008  59.3664627   6.9854131  32.1533165   3.5287831  53.0259666
  32.7666779   2.9937479  53.5297089  31.3564281   3.0004902  52.9800415
  11.2487040  51.5705719  80.3438950  11.6272221  51.4382019  79.4747391
  11.9129639  52.0676918  80.8212433  19.7291737  60.4641800  49.6126137
  18.8409328  60.7140617  49.8672180  20.2502251  60.5910072  50.4054909
  72.8972015  15.2605524  44.6724854  72.3276443  15.9370985  45.0387077
  72.4829712  14.4357119  44.9260292  80.0157089  43.7942886  29.7643948
  79.1145020  43.5421028  29.9655380  80.4631042  42.9660873  29.5907574
  32.8446312  61.7784500  37.0570297  31.9096050  61.5875320  37.1312599
  33.2481041  60.9307289  36.8704681  22.0525093  34.6321602  20.7358780
  22.4786148  34.4593124  21.5753956  21.5498657  35.4333916  20.8828773
  48.9379959  53.2157440   0.3016755  48.5664406  52.7079544  -0.4196634
  48.2702065  53.8716965   0.5017110  84.4781265  67.7152405  50.3240891
  83.9077148  68.3977203  50.6777611  85.1968079  67.6538925  50.9533463
   9.0369997  35.5708008  67.6302109   9.6601362  36.2601204  67.8599243
   9.5322008  34.7576294  67.7290115  31.4767399  33.7773094   2.2063825
  32.2455597  33.2122192   2.1301024  30.7735081  33.1891098   2.4815476
  81.2163162  57.3925896  36.3972015  81.4039688  58.1875916  36.8961906
  80.3117599  57.5018616  36.1038208  68.7950974  36.8358459  25.1383915
  68.4085999  36.7630653  24.2657204  68.8358307  35.9345818  25.4582272
  85.5444565  43.6114540  67.3868256  84.8687210  44.2807922  67.2791290
  85.1961823  42.8442497  66.9325867  86.3887482  25.1833801  58.8303642
  86.9553909  25.3985538  59.5712090  86.7030334  24.3313007  58.5280037
  64.2583923  65.9913864  76.7801819  64.6973801  66.3393860  76.0040283
  63.7822380  66.7390366  77.1414719  28.5818291   1.5155669  57.4723930
  28.7898560   0.7283630  57.9756508  28.3403168   2.1651075  58.1326981
  73.9733124  16.2203293   4.2272625  74.3522339  15.3569078   4.3920417
  73.8645782  16.6041889   5.0973549   6.0380278  54.9064713  39.4901543
   5.5499101  55.0640526  40.2983284   6.9040923  55.2783737  39.6570435
  59.2207680  15.7533741  30.7415180  59.8904762  15.6270170  31.4136486
  59.5210457  16.5141582  30.2442532   0.6214933  49.0123177  13.2580452
   1.1112779  48.3411484  12.7827826  -0.0304285  49.3230286  12.6298018
  70.1392212  63.6296158  71.4414673  69.9846115  62.6861458  71.3946152
  71.0662766  63.7095375  71.6660233  38.0561829   1.0300322  19.3698044
  38.5743637   1.7975372  19.1276112  37.7668076   0.6630850  18.5344353
   4.3157983  31.1497574  76.6821442   4.2019677  31.6071167  77.5152664
   3.6653206  31.5445061  76.1013794  57.3500824  58.1502228  36.8595352
  57.1079750  59.0724335  36.9440880  57.7154579  57.9192429  37.7135735
  15.5717602  41.0850067  19.3053608  15.4502039  41.5659943  18.4867611
  16.5205956  41.0581245  19.4287338  66.1433640  12.1230507  12.3738108
  67.0802765  11.9611683  12.2632704  66.0201645  13.0260563  12.0811777
   5.0419502   7.7155147  31.8469830   5.3444638   8.1322031  32.6538849
   5.0103316   6.7821126  32.0567284  69.4220200  27.1386147  18.8293877
  69.9882278  26.7234287  18.1787987  69.6030655  28.0744743  18.7421017
  31.3397751   3.0589981  65.9373627  31.9231148   3.2987766  65.2173309
  31.6230965   3.6083498  66.6682358  63.0493202  30.4356937  79.3905945
  63.0118027  31.1912479  79.9770813  62.5216484  30.6929283  78.6345367
  26.9705963  62.0560112  27.1879902  26.7632637  61.3129158  27.7546062
  26.2236462  62.6467209  27.2847500  40.6772614  46.6177750  84.9972153
  41.5100822  47.0767288  85.1067810  40.0120697  47.2898712  85.1456604
  82.0088043  48.1654434  81.0042267  82.7053604  47.6148376  81.3618393
  81.9073105  47.8665237  80.1005859  30.7224789  51.8760071  74.9826889
  30.7683449  52.8280640  75.0705261  30.6879311  51.7239952  74.0382690
  64.9403763  32.5714531  66.9809036  65.4325485  31.7505703  66.9931564
  64.2900085  32.4711800  67.6760178  84.7705612  66.2558746  23.6647892
  85.3183289  67.0074387  23.8913326  84.7359924  66.2643509  22.7082500
  38.4799843  56.3158989   2.5785699  37.9664307  57.1226692   2.5384233
  39.0491676  56.4319000   3.3393638  84.8396225  17.5146160  19.2303791
  84.2705154  17.3673172  19.9857903  84.3280869  17.2079334  18.4817066
  76.6412888   5.0367327  72.6930923  76.9103775   5.4757733  73.4999771
  76.6719589   4.1040645  72.9062119  34.4456902  52.9884567  78.3234024
  33.6967773  52.5655861  78.7435684  35.1897392  52.4256287  78.5375214
  13.2164021  59.4702682  43.2647018  14.0421705  59.9392738  43.1448097
  12.7716055  59.9442215  43.9673805  58.7876396  13.6354446  80.3613968
  59.2607498  13.8795652  81.1568909  58.9920731  12.7087774  80.2359924
  42.4526825  38.7776718  15.1255646  41.9514008  38.1559715  15.6532354
  42.0852394  38.6957512  14.2455034  17.3091106   0.1585896  59.5427322
  16.8788090   0.9780513  59.2986946  18.0615215   0.4304268  60.0682945
  17.2623100  62.8537712  26.5739574  17.1340446  61.9225616  26.3933239
  16.9121075  63.2979889  25.8017788  63.0320396   4.5025563  12.4517088
  63.2285461   4.3966479  11.5209026  62.9781799   3.6081491  12.7884083
  77.6476746  34.4964905  69.9248199  77.3991852  35.0507965  70.6645660
  77.8479233  35.1128159  69.2203522  80.3332214   3.1207228  87.1365891
  80.0394897   2.6257937  86.3717346  79.6665802   2.9509981  87.8021774
  73.1250992   2.4590521   5.1772180  73.0068893   2.2956145   6.1129246
  74.0417480   2.2400916   5.0097594  81.7170868  31.4408569  26.4968872
  81.6299057  30.6801109  27.0712528  82.6405640  31.4463196  26.2451344
  39.9023323  33.7935371  85.0591660  39.9760704  33.2858086  84.2510834
  39.4708214  33.2016640  85.6753769  24.5188446  52.1235046  80.6400528
  24.1137161  51.9643440  79.7875443  24.4953442  53.0749130  80.7425232
  77.5792236  66.6569595  82.0327148  77.9434891  67.2080078  81.3399734
  76.9749680  66.0696030  81.5787125   7.7961307  32.8899574  24.3969402
   7.9993582  32.7048111  25.3138103   7.7570963  33.8451309  24.3484268
  26.1477871   3.1756244  28.2724380  25.8713245   3.7020662  29.0225449
  26.9403572   2.7300401  28.5716362   0.9786218  41.1596718  39.2352715
   0.4368052  40.5659828  38.7154617   1.7212692  41.3652496  38.6674309
   4.9190345  25.9334049  18.7891827   4.4760137  25.9761753  19.6366119
   4.6454096  25.0946369  18.4179325  21.3343601  35.8758698  85.5765762
  20.5743561  35.4757767  85.9991226  21.0431004  36.7578506  85.3452606
  61.6032372  19.8479958  60.2356796  61.4231377  18.9083939  60.2664146
  61.9832687  19.9907970  59.3688354  43.6234093  67.6794815  30.4674473
  43.8838501  67.8663559  29.5655136  43.3814278  66.7534103  30.4598866
  73.7433090  67.8733215  48.0337677  73.6709366  66.9974899  47.6544151
  74.3171082  68.3481216  47.4324684  74.2920685   1.4381521  26.6655960
  73.9959641   2.0396466  25.9823971  74.7189941   2.0008922  27.3115730
  59.4346428  66.7922668  43.4189758  59.3318977  65.9472885  42.9811554
  58.5885124  66.9493332  43.8380508  41.1202927  66.9171448  48.2675781
  41.9156494  66.4148865  48.4447021  40.4069748  66.2963486  48.4159851
  80.4581146  29.7906628  69.5460739  80.5982285  29.0040321  69.0189972
  80.8266830  30.5002899  69.0199432  40.6524696  68.0303650  57.8036613
  40.3321228  67.9812698  56.9029961  41.3080063  67.3353958  57.8629341
  75.6534042  65.5449982  45.9043808  76.4299774  64.9907990  45.8267136
  75.7721939  66.0089874  46.7331352  62.0158615  38.3115463  68.5837784
  61.8579521  38.1058998  67.6623611  62.7222672  37.7201462  68.8435211
  11.3927441  38.9873695  43.7448692  10.6150665  38.7062225  44.2269554
  12.0525904  38.3240280  43.9468880  19.9301624   5.6683402  65.8977737
  19.6032352   5.3532486  66.7404327  20.8279419   5.9470162  66.0782242
  32.3861465  71.7830124  39.9588089  32.3032494  70.9161911  39.5613289
  33.1444016  72.1740112  39.5247650   7.7300954  13.6573591  67.0335922
   7.5685372  13.9535656  67.9293594   7.1435690  14.1894541  66.4959183
  22.3535385  21.3920956   9.8650637  22.4890289  22.0956059  10.4998455
  22.3047371  20.5968876  10.3956223  85.6143265  30.9869537  51.2664795
  84.9378281  31.6342888  51.4653397  85.3908310  30.2320023  51.8108368
  49.7957039  15.7813292  30.8714886  48.8412933  15.7133417  30.8448029
  50.0219765  15.6176233  31.7870388  54.0938530  69.7594223  63.9937172
  54.7652740  69.7310791  64.6753540  53.8385887  70.6807785  63.9471245
   7.9061217  24.0364494  60.9461441   7.0552588  24.2064800  60.5419731
   8.1993389  23.2155266  60.5507431  63.7396851  38.6729889  51.0081139
  64.6045914  38.9729462  51.2877502  63.7293129  37.7398796  51.2212677
   4.4532247  71.1002731  36.6542130   4.2739644  71.9750824  36.3095474
   3.9264274  70.5155869  36.1093597  81.2777557  65.4668427  84.0524139
  81.3715439  66.4192123  84.0729980  80.7853775  65.2919388  83.2504044
  67.6676102  32.0540428  81.5562744  68.5428772  31.8194218  81.8646622
  67.1800766  32.2605476  82.3536987  60.9301262  58.6870117  56.9720879
  61.7239647  59.1203918  57.2855186  60.2316017  59.0380859  57.5243950
  32.8558197  67.8394547  42.2025414  31.9723892  68.1062393  42.4567184
  33.4304771  68.3015594  42.8128395  40.4019699  45.6937447  36.6537094
  40.1715736  46.4998703  37.1155663  41.3589706  45.6939621  36.6343346
  12.5857630  32.4618721  73.3917160  12.3755817  32.2984848  72.4722824
  13.5358973  32.5773773  73.4033432  21.8508987  71.4940567  62.0264702
  22.4514656  71.1693039  62.6973572  21.5109158  70.7038956  61.6066055
  34.8668747   6.9732347  67.3785172  35.0972977   7.3376904  66.5239410
  34.2872238   7.6270652  67.7693405  69.4015961  43.9917908  28.8040142
  70.0310440  44.6461067  29.1071644  69.9144669  43.1882668  28.7171650
  68.5803146  64.4871445  40.0030060  67.6603241  64.6873779  40.1755104
  68.5581818  63.6711006  39.5031929  53.6469040   7.5082426  84.3856430
  54.0701027   8.3633261  84.3084030  53.8147392   7.0811763  83.5456009
  38.0674210  35.3621330  31.1206264  37.3704605  34.7476540  31.3506031
  38.8749428  34.8595505  31.2281322  63.1046562  45.7205544  26.8711357
  63.8178940  45.0867577  26.7948494  62.9537506  46.0203629  25.9747124
  70.1759033  23.3424988  31.7605591  70.1082001  24.2225208  31.3901367
  71.1166382  23.1693840  31.7962742  61.0727768   6.9470692  82.4196701
  61.6525497   7.6933193  82.2673340  61.4180603   6.5330625  83.2106247
   4.8579807  67.6918259  34.5968513   4.0098767  68.1344070  34.5640945
   4.6511130  66.7672882  34.4602013  79.8885803  39.0841522  84.5119476
  79.1744690  39.7179947  84.5791855  80.1123962  39.0733261  83.5813446
   9.0033159  48.4995537  37.4059410   9.6971531  49.0983200  37.6821632
   9.2714615  48.2079201  36.5345726  78.3861237  20.3026848  47.1723633
  77.4616318  20.3146229  46.9245644  78.4721069  19.5366707  47.7398682
  49.7354736  12.1247921  67.9969711  50.4208031  12.2761250  68.6478577
  49.1219406  12.8487186  68.1224213  67.5285110  69.5822296  85.8101883
  67.4840851  68.7910919  85.2732010  66.6161270  69.7794342  86.0220718
  19.9438610  50.8876991  59.4098244  20.6473312  51.5353165  59.3656197
  19.2077236  51.3026237  58.9601936  72.7747650  29.0566120  43.0068169
  72.9822006  29.0669403  43.9412155  73.5753555  29.3622475  42.5803528
  48.2164803   2.7441919  83.9652786  47.9089241   3.1873102  83.1745300
  49.1189003   2.4956994  83.7649689  12.4276705  58.1298561   8.0128317
  13.3282461  58.4394913   7.9162774  11.9074907  58.7389641   7.4887781
   6.3187623  15.1625738  18.9509239   5.4206915  14.9568577  18.6913471
   6.2976298  15.1617537  19.9078903  77.1297760   2.3818254  73.2287369
  77.8454514   2.4723272  73.8579025  76.4760971   1.8512849  73.6842117
  36.6757164  23.4774857  77.3214417  36.5915947  24.3011932  76.8411713
  37.3003731  22.9641876  76.8090363  81.9152832  41.9429131   8.7947960
  80.9941788  42.1445808   8.6301146  81.9051056  41.0585327   9.1608610
   1.9045494  67.8453445  46.5876656   1.2831308  67.7879639  47.3134613
   1.5335176  68.5093842  46.0066147  34.5783958  62.0615654  69.8251877
  33.8966637  61.4709282  69.5048447  34.5218964  62.8259315  69.2517929
  13.3335819  55.8297539  72.8511734  13.9202175  55.3397598  72.2749863
  13.3419380  56.7202759  72.5002747   6.2169585  33.5189056  78.4166412
   5.2951350  33.4912186  78.1603088   6.6803613  33.1034012  77.6894226
  71.0116043  24.3116360   2.6900134  71.2963867  25.0389252   2.1366761
  71.8147278  23.8270130   2.8807020  31.7711201  64.4949493  65.0179214
  31.7852669  64.4004059  65.9703293  30.8431396  64.5808945  64.7995148
  70.3592758  15.7535610   9.1428728  71.1794662  15.8399315   9.6287346
  70.4431915  16.3742294   8.4190207  46.9655304  19.7459507  86.8114319
  46.4355621  18.9659653  86.9757080  46.4606323  20.2482414  86.1718903
  37.0733185   5.5829821  10.7033081  36.8075218   5.5538797   9.7842121
  37.9352455   5.1668868  10.7166605  46.9007874  27.8397675  62.3500137
  47.7342339  28.3104095  62.3596382  46.2610359  28.4914265  62.0631485
  84.1347580  10.3651381  61.9816399  83.8246078   9.7029095  62.5992889
  83.7542419  11.1845331  62.2979164   4.8546691  40.5570641  75.9623642
   4.6556411  41.4420662  75.6567688   4.0325065  40.2431068  76.3388138
  24.9761982  28.8068428  80.3535004  24.3621407  28.5019283  79.6855240
  25.3741436  29.5900326  79.9733887  21.3235226  57.3696594  48.6304436
  20.5584698  57.3815346  49.2055817  21.8130054  58.1575928  48.8666687
  38.0564613  47.0776291  78.7660980  37.5362701  46.3019180  78.5565643
  38.2847748  47.4501266  77.9144287  80.3243256  42.6102104  80.7395172
  80.4784775  43.1526184  81.5129852  79.4000854  42.3679390  80.7972031
  51.7885742   1.0840442  71.8483429  51.6064491   0.2216423  72.2216034
  52.7375565   1.0955265  71.7237015  35.4797974  47.4739037  88.8331223
  35.7307167  46.6290474  88.4596481  34.5316010  47.4125061  88.9488373
  74.8283844   4.2347708  15.5257292  75.2789001   3.9510825  16.3212090
  74.2307892   3.5159984  15.3196411  44.5154457  45.4631920  17.2355576
  44.0989189  45.0795403  16.4638386  43.9739418  45.1725426  17.9694004
  73.0748444  30.8492317  79.9015121  73.9869003  30.9579601  79.6321259
  72.6890182  31.7190132  79.7973480  52.6764832  41.1967697  31.5889931
  52.5568771  41.5119438  32.4848671  52.0766335  40.4546089  31.5141010
  40.9975243   1.4059862  72.9427338  40.7654762   1.0814346  73.8128204
  41.5959549   2.1339972  73.1103973  63.8229866  27.6431465  77.6547241
  63.3372993  28.4676399  77.6781845  63.2217560  27.0002155  78.0307388
  83.4168854  48.7035637  52.1201363  84.1996307  48.7363510  52.6701050
  83.6070099  48.0241966  51.4731865   5.9613037  21.4042625  74.7530594
   5.9421802  21.0510578  75.6425018   6.2610478  22.3069801  74.8602219
  34.4976387   6.3777413  80.6460114  34.8907280   5.7971654  79.9943695
  33.8928757   5.8173575  81.1322861  59.2591515  25.8088150  31.5683136
  58.4241829  26.2756901  31.5353642  59.1145592  25.0220642  31.0426235
  76.5326614  59.1031036   2.7710497  77.1623001  58.5764313   3.2633953
  75.6783371  58.8282700   3.1039569  39.8307762  14.1913109  28.8233452
  39.1418571  14.1399174  29.4859028  39.3617249  14.3279114  28.0002041
  16.9055424  46.5811348  23.6173820  17.7635956  46.7921181  23.9854336
  16.5264626  47.4305077  23.3913403   8.3023090  28.7935905  79.2704849
   7.8358073  28.9959278  80.0814514   7.6730804  28.9907532  78.5766373
  59.1786919  15.2979574  64.4992599  59.8044968  14.5752850  64.4508362
  58.3269539  14.8713503  64.5929565  52.5438461  28.7323532   4.4674220
  51.6829529  28.3531151   4.2905760  52.6286430  29.4415493   3.8301775
  60.7962151  40.0441933  17.6299458  61.1956978  40.9072418  17.7385216
  61.5340385  39.4583015  17.4608917  35.8415756  66.7858505  77.2530670
  36.5957260  67.2343903  77.6355591  35.8500633  65.9173584  77.6553955
  87.0482178  11.6306868  29.5684166  87.0558624  11.4971199  30.5162220
  86.1828003  11.3300085  29.2911415   0.8311948  18.5853615  69.7666550
   0.6432025  17.7110939  69.4252701   0.8004211  19.1544952  68.9976501
  48.0869179  71.1507416  80.3279724  48.5068130  72.0096359  80.2809296
  47.3547783  71.2081146  79.7140427  77.2181549  68.2005386  76.4135818
  77.8792725  68.8595963  76.2019501  77.2361298  67.5963287  75.6713943
  79.0654068  24.7973652  87.9073868  79.1351547  24.9784546  88.8447113
  78.6665955  25.5862026  87.5400696  45.3542213   0.3310389  72.1452332
  45.6529694   0.7526464  72.9509811  46.1385002   0.2747330  71.5993729
  70.3566284  48.0653152  63.9545555  71.2655945  48.1419182  63.6644859
  70.1708374  48.9006958  64.3833313  69.3047104  61.0886078   2.2730596
  68.7219391  61.8304405   2.4352043  69.4782715  61.1215286   1.3323011
  82.4225006  69.3839951  63.3695374  82.0012283  68.8632278  64.0533218
  83.0967560  68.8072433  63.0104065  78.2236938  24.1624012  30.1801949
  77.6961288  23.8898678  30.9309521  78.9333954  24.6794739  30.5612373
  67.0100784  44.5919647  49.4126015  66.3542557  44.0480118  49.8487701
  66.6462250  44.7542381  48.5422516  23.4496384  39.8796463  29.2340794
  22.8414307  40.1009026  29.9393177  23.9591198  40.6784477  29.0977745
  23.1443958   4.1104932  53.5858421  23.0896416   4.1762724  54.5392075
  24.0829697   4.0718780  53.4019356  56.4547768  66.6796875  51.3177948
  55.5186958  66.5269699  51.4468765  56.5061646  67.5682297  50.9655533
  86.3866272  38.5300941  87.8691177  86.9739914  38.8431816  87.1812134
  85.8715057  37.8413010  87.4490662  67.3521576  22.5773964  32.5861931
  68.2805252  22.8069153  32.6271400  66.8954544  23.3820343  32.8315811
  17.2216949  42.7306442  79.2841949  16.7543812  42.0546875  79.7750397
  17.3840160  42.3355522  78.4275742  69.4386444  11.0552568  46.1993523
  69.0104675  10.4617376  46.8163071  69.1561584  10.7493820  45.3374481
  22.5860157  43.2852974  80.3601608  21.8081627  42.7496605  80.2043762
  22.2660961  44.1869202  80.3291397  41.0154839  19.6737556  84.8815918
  40.3983307  20.3757668  84.6753540  41.7407303  19.8053551  84.2709122
  42.4367752  57.9708519  76.6839828  42.4460144  57.0933800  76.3016281
  41.5364761  58.2739220  76.5663147  74.2814331  56.0604553  79.3781891
  74.2770386  55.1231995  79.5725174  73.4737854  56.2067413  78.8857117
   7.5503321  24.9748993  87.2151718   7.8476582  24.5389252  86.4165802
   8.3498821  25.3228912  87.6099548  53.4683418  52.0717735   9.7580385
  52.7848587  51.4016380   9.7586536  53.0731735  52.8165054   9.3047781
   4.6042271  65.7532578  55.3283920   4.5912108  66.7037506  55.4407997
   3.9053030  65.5769730  54.6985855  50.5891380  50.5167923   0.9830658
  50.0076027  51.2518806   1.1771989  51.2101669  50.8651505   0.3433742
  23.8662033  49.6983528  12.9357529  24.7592258  49.6156349  13.2702684
  23.5370522  48.7999878  12.9069567  80.8314590  60.8310471  19.0678368
  80.1463318  61.4994850  19.0640354  81.3044510  60.9682007  18.2470455
   0.9625268  66.5918579  42.6812820   1.2835610  66.7076950  41.7869911
   0.0134758  66.6942444  42.6102104  44.3512611  39.8715820  32.2961426
  44.7249374  40.5389595  32.8716431  44.7218475  40.0634117  31.4346905
  33.2759285  63.8252525  11.8493986  33.8204384  63.9034958  12.6327372
  32.5720634  63.2292595  12.1055222  61.8007812  20.7216263  57.5787506
  62.7323608  20.8833447  57.7278824  61.7806358  20.0072193  56.9420052
  11.4806910  60.8017960  11.4560575  10.5421362  60.7920647  11.2683010
  11.5461559  61.1869278  12.3299112  34.1491280  54.9669456  88.1515808
  34.3961411  54.0425911  88.1795807  34.2118454  55.2036972  87.2262421
  83.2600708  24.6720638  42.4421082  84.1817245  24.6564484  42.7000732
  82.7992020  24.9884586  43.2191086  67.1485596   6.2709870  47.0499115
  67.6943436   5.8086529  46.4138298  66.6468201   5.5798669  47.4821663
  20.8913326  50.2179642  15.6454525  21.4680977  49.6521301  16.1586838
  21.4466648  50.5489120  14.9395409  13.5954390  16.1817455  12.7323017
  13.8948364  16.3157883  13.6315374  12.6601887  15.9961014  12.8164120
  82.0785217  31.1611137  22.3698158  81.7058029  31.7285175  21.6950092
  81.3802872  30.5381851  22.5714397  18.9801159  20.2287617   8.4033279
  18.3098736  20.0284901   7.7499542  19.1365070  21.1680584   8.3058739
  18.2103920  32.0416641  85.0058212  18.8170967  32.7198448  84.7088165
  18.1347923  31.4450932  84.2610931  43.6419525  55.8090439  75.3096085
  43.5846863  56.2349510  74.4542923  43.2912941  54.9304314  75.1636124
  24.8658047  64.2112961  20.1109753  24.0800228  64.2924194  20.6515274
  25.5230179  64.7406082  20.5627804  10.7633152  62.4338264  47.3804512
  10.4840164  62.0962257  48.2314796  10.0197840  62.9521484  47.0726547
  64.3774185  39.0504532  66.5938263  64.6957245  39.8063087  67.0873871
  63.4844131  39.2869110  66.3431168  53.9976120  15.3362484  38.5990067
  53.7098618  14.6601143  39.2124214  54.1080093  16.1185818  39.1393776
  50.1006546  10.5437145  43.9247894  50.4924011  11.3835144  43.6849976
  50.3256035   9.9591179  43.2009964  48.4882698  62.0494385  87.2583008
  48.0360985  62.8894997  87.3362198  47.9283409  61.5285339  86.6826553
  57.1624985  41.8303375  72.5586014  56.8013840  41.7900887  73.4441605
  57.2867203  40.9147072  72.3087540  54.7203789  32.9443855  43.0871277
  54.7874718  33.1494560  44.0196915  55.6092453  33.0610809  42.7516785
  11.4919615  54.9536667  78.6418076  12.3523159  54.5881577  78.4358292
  11.6647844  55.6041603  79.3224106  42.7175522  65.1656265  42.4645119
  42.6243477  64.2201920  42.5815735  43.5036240  65.2640991  41.9272728
  10.1633596  10.8005009  35.5731888  10.2259226  11.5588713  36.1538696
  11.0705051  10.5260115  35.4391251   3.0178580  21.9640675  45.1836052
   3.1104043  21.5225677  46.0278511   2.4377196  22.7040806  45.3626366
  49.5173569  52.7774544  71.9994278  50.0869598  52.2290459  71.4599533
  49.0679359  53.3448524  71.3730774  63.0338478  18.5661049  43.4663620
  63.2840843  17.9683037  44.1708069  63.6700630  19.2792511  43.5200958
  10.1892662  29.2080479  12.4185839  10.1158390  29.5011978  13.3268261
  10.9840546  29.6312237  12.0938292  76.0560608  15.9201679  80.2439804
  76.2912521  15.5965643  81.1135788  76.6605301  15.4740400  79.6508331
   7.2103453   3.7163506  55.6876068   7.0142541   2.9572427  56.2367287
   6.8824282   4.4642687  56.1869278  40.8412514   6.1731286   4.1059451
  40.8719101   7.0255857   3.6716535  41.2376022   6.3268542   4.9635615
   5.2551003  38.9787788   8.0980940   4.6392999  38.2866516   8.3388824
   6.1184072  38.5804558   8.2088699  28.3639660  10.5067711  50.3977432
  28.3582230  11.4192276  50.6869202  27.5644302  10.1330490  50.7682915
  41.4977837  19.6916542  36.4672966  41.6178551  20.3926353  37.1079521
  41.8721695  20.0399895  35.6581421   9.2752867  58.4135933  14.4404850
   9.5332146  58.1283073  13.5639477  10.0827332  58.7482185  14.8307238
  43.4035873  23.2299538  24.1262455  43.8889542  23.5241776  24.8970146
  42.7661209  22.6037025  24.4692841  27.9416695   1.4143043   5.4304819
  28.5114269   0.7823641   5.8689580  27.5423641   0.9202555   4.7144489
  84.0881348  50.3916359  22.9254036  83.2171707  50.5101929  22.5464611
  84.6175003  51.0844803  22.5304718  35.8219833  22.4676628  17.8043537
  36.5832787  22.0231152  17.4314766  35.0784492  22.1275063  17.3066730
  54.2964897   5.0395432  57.3799934  54.7500381   4.8692670  56.5544434
  54.6809769   4.4171820  57.9972992  38.5511017  25.9048595  77.5187378
  39.1394386  25.4005566  76.9568024  37.7260704  25.9366055  77.0344315
  82.0637741  16.7285175  19.6194630  81.3462219  17.1786690  19.1736870
  81.6433105  15.9976168  20.0724850  79.2477646  63.7155838  39.3229713
  78.9849091  64.2895355  40.0425034  79.2275467  62.8355446  39.6989403
  38.7825775  16.3885956  23.3492107  38.5112152  16.0385151  22.5006599
  38.9869194  17.3073578  23.1749935  44.5303497  44.9451523  83.4465179
  44.6021080  44.4211082  82.6487350  44.2640991  44.3199234  84.1206360
  63.2437096  20.4505215  12.4159794  62.8554649  19.5778027  12.3538332
  62.5798798  21.0346375  12.0494118  19.6095467  60.5259895  81.0216904
  19.8512821  59.7966232  80.4508820  20.3790092  61.0953407  81.0216904
  25.9191914  17.7923279  30.3364582  26.5402565  18.2082367  29.7385216
  25.2292404  18.4447517  30.4570484  18.2818584   1.3227891  85.9676056
  17.6878872   1.4562266  86.7062683  18.6834393   2.1799452  85.8253098
   4.1089211  35.6677284  71.6142883   4.6746879  35.2142639  72.2391968
   4.6520548  36.3768806  71.2702789  84.4161835  11.3830690  21.2994900
  84.6345901  10.4528341  21.3559952  83.9907913  11.5803356  22.1339722
  63.3745842  37.1244965  31.3620129  62.7583923  36.5876160  31.8603058
  63.8978806  37.5695686  32.0285759  71.3465805  37.6600342  22.9683170
  70.4014587  37.5127220  23.0038662  71.6960297  36.8733406  22.5497036
  11.6364737  40.2562103  37.1130676  11.8671303  41.1851387  37.1021690
  10.8767529  40.1912613  36.5344162  10.4249315  10.6562510  12.3211603
  10.8970947   9.8249073  12.3676491   9.6150522  10.4991951  12.8066111
   0.9072562  67.9514618  55.4342384   0.8003497  68.8004456  55.8632164
   0.1281906  67.4558411  55.6865273  62.1367569  13.0505629  46.5837822
  62.5120811  12.7685843  47.4179611  62.8559189  13.4961119  46.1359825
  49.7175865  60.0858727  82.5457916  50.6467896  60.1751404  82.7575455
  49.2675476  60.5845871  83.2276840   7.3676491   0.4947791  50.4063339
   6.4189410   0.5642617  50.5129013   7.6558499  -0.0228353  51.1581612
  35.8449249  22.7541237  24.7457752  35.0927048  23.3271999  24.5975094
  36.4223518  22.9191589  24.0004082  27.5609818  70.2341385  63.0882034
  27.4268780  69.3782349  63.4952431  28.5023155  70.3904190  63.1637154
  54.2179031  26.0410671  38.7162285  54.9244995  26.4998817  38.2618752
  54.4618797  25.1167984  38.6668968   7.1363826  33.3994980  12.6258059
   7.0844412  34.2616920  12.2133083   8.0316000  33.1062775  12.4559832
  42.9505348  50.3040543  11.3478289  42.2252617  49.6928749  11.2187157
  42.8085442  50.9862900  10.6916065  65.7155762  50.1193771  70.4767456
  66.6451721  50.1948395  70.6921387  65.6699448  49.3825531  69.8674469
  35.5569420  70.7495499   8.5824919  36.0981407  69.9619446   8.5274878
  36.0496635  71.4129486   8.0994177  85.1608734  45.5146523  15.2816792
  84.6970825  44.6779518  15.3142548  85.6659164  45.4770813  14.4694242
  22.2709522  46.9287834   5.0415964  21.7142830  47.6347961   4.7131195
  22.9247608  47.3713608   5.5827909  -0.0904363   3.8244853  60.3106461
   0.0872303   4.2271066  59.4606094   0.7730590   3.7147160  60.7088432
  34.0376930  22.5682030  76.4775772  34.0063972  21.6768627  76.8250961
  34.9704056  22.7813721  76.4486160   6.2347913  62.9862709  26.4879818
   5.3227768  62.9946861  26.7784824   6.3632112  63.8412476  26.0771866
  60.0178261  37.3436775  70.5056763  60.6587181  37.4772339  69.8073578
  60.5246086  36.9730492  71.2282028  70.8257828  41.6024094   7.7923870
  71.3713760  42.3013039   8.1530876  71.3956528  41.1507683   7.1698956
   1.9576337  28.0025291  85.3802948   2.6632257  28.3994331  85.8910217
   1.4338659  27.5266476  86.0248413  44.9459610  14.5640221  84.9323654
  44.6782074  14.2313948  84.0756836  44.3876953  15.3278198  85.0779037
  60.3315163  39.5438995  36.2972183  60.1125717  39.5274963  37.2288971
  61.2880173  39.5146065  36.2754097  44.8962288  61.4556198  15.5125809
  45.0795975  60.5334778  15.6921997  43.9572754  61.4816475  15.3283920
  13.0380840  11.1723204  18.4501247  13.0079060  11.2628775  17.4976959
  12.5030079  10.4003286  18.6343899   2.4920774  26.2089024  16.8331738
   2.6294515  27.0702667  16.4389515   3.3078036  25.7365131  16.6668243
   2.3883169  40.3818092  82.5890961   1.6973696  40.2828331  81.9340897
   2.4273257  39.5312767  83.0264816  70.4179764  54.4075470   6.5102596
  70.4346695  55.3399162   6.7262306  69.8562546  54.0166855   7.1795306
  66.7805786  38.4389420  71.7458344  65.8488541  38.5739594  71.5729446
  67.0619659  37.8199921  71.0720749  17.7535343  18.2334518  33.5025940
  16.8617477  18.4432545  33.2252312  18.2990341  18.8931427  33.0742607
  86.6772995  59.0252914  82.4894028  86.5598373  58.1747093  82.0663834
  86.5789719  58.8435860  83.4240341  72.1157303  43.2993507  19.0564690
  71.5204315  42.7935829  19.6096859  71.6723557  44.1385155  18.9321518
  46.7075691  59.7233772  38.9391670  46.9298325  60.1739960  38.1244469
  46.4925613  58.8308449  38.6682510  56.7999077   9.4425554  25.3493805
  56.3227539   9.4811459  26.1782742  56.1180801   9.3434629  24.6849098
  86.6154404  69.8464890  45.8445015  85.8734970  70.3931656  45.5858459
  87.2401581  69.9343643  45.1246185  48.8776093   9.8653946  10.7027483
  48.3711548  10.1114836   9.9286852  48.2602348   9.3774815  11.2477465
  22.7358494  62.0215149  63.8771629  22.9762497  61.9154053  64.7975845
  21.9776821  62.6055946  63.8934402  63.0369568   2.5955698  16.1449146
  62.9913406   2.5235729  17.0983143  62.1903305   2.9634686  15.8917255
  55.2669640  10.3426857  72.2481308  55.3585472  11.2932692  72.1830521
  54.3332176  10.2022114  72.4050369   6.7186747   4.0121803  86.3453217
   6.2961669   4.6191912  86.9529877   6.6517382   3.1588931  86.7738724
   0.3678461  68.6917419  63.8190842   0.0573901  69.4820023  64.2610474
   0.8759257  68.2287064  64.4851837  86.2259903  64.2636337  12.4145994
  85.5272141  63.9291229  11.8524179  86.8295517  64.6994171  11.8128996
  72.8677750  19.7950001   0.1497294  72.9027176  19.2989922   0.9676449
  71.9334641  19.9292545  -0.0092397  16.4809799  49.5051689  20.5029678
  16.5620613  49.6761589  21.4412746  15.9970293  50.2579193  20.1632767
   2.9678106  33.1632195  36.5975838   3.1850550  32.3232918  37.0020027
   3.5484540  33.7924309  37.0255775  22.3443737   1.1914828  10.2729216
  22.2061386   1.3367147   9.3369570  22.2940407   0.2413866  10.3778763
  72.1161728  54.9789810  25.8086224  71.2998810  55.3118744  26.1815567
  71.9421082  54.9155197  24.8695240  66.4370880  26.8371983  16.7194595
  66.9178085  26.1060295  16.3314705  65.9233093  26.4398537  17.4225807
  61.4337234  47.5813217  17.4976063  61.6716881  48.5081024  17.5238037
  61.9774170  47.1752663  18.1726990  37.9264870   0.7437306  53.6207199
  38.5686264   1.2895172  53.1668396  37.7813683   1.1887540  54.4556618
  45.4431572   5.9478450  20.7820377  46.3201370   6.3310437  20.7647610
  45.5947304   5.0064764  20.8662014   1.1803255  62.6045227   0.1942566
   1.9863497  62.5697899   0.7093784   1.4770474  62.7362022  -0.7062142
  73.3273239  54.7239265  87.0310211  72.4200211  54.8827515  87.2914047
  73.8489609  55.0862999  87.7471313  22.3492813  55.7072868  69.0150223
  22.3288937  54.8201637  69.3739471  21.9135532  55.6322479  68.1660614
  46.0679512  25.5813580  30.9296055  45.6460533  24.7903957  30.5940285
  45.7784576  26.2763901  30.3385448  53.7297516  22.5791950  31.8165798
  54.3986626  22.4783669  31.1393623  53.0588226  21.9358196  31.5882015
  17.2873344  66.3406906  21.1708298  17.7861080  66.1196671  20.3843155
  16.5061970  65.7896500  21.1218109  28.2031097  70.7172699  56.1787491
  27.2929688  70.8979263  56.4137764  28.6523094  71.5538101  56.2997894
  48.2178612  41.0258865  71.2435379  47.6338310  41.6521187  70.8157806
  47.9180832  41.0009193  72.1522369  47.5708580   1.2471701  53.9654083
  46.6995964   1.6035389  54.1390076  47.8936157   1.7554343  53.2212791
  76.6294632  70.7127762  39.1531487  75.9141159  70.7427368  39.7884560
  76.6805038  71.6040192  38.8077316  36.6233711  36.7860603  24.6152573
  36.3543663  35.9239922  24.2979126  37.1921616  36.5995483  25.3621998
  44.5587349   9.8033075  53.1471558  45.0209274  10.1659651  53.9028625
  43.8195305  10.3960829  53.0114174  34.6276932   5.8432999  71.4322281
  35.5676384   5.8901925  71.6069641  34.5671616   5.5287399  70.5302200
  73.0978851  54.0350990   6.7650914  73.2413330  53.0887070   6.7667046
  72.2031479  54.1411781   6.4419475  18.2155685  31.7115288  26.5357265
  18.0682240  32.5102844  27.0421925  18.1418514  31.0044746  27.1767197
  70.8114090  13.5694799  64.0334396  71.4462585  13.2698936  63.3827057
  70.1442490  12.8833141  64.0507736  65.4272079  52.8568687  32.0152550
  65.1413651  51.9434891  32.0313072  64.7212601  53.3364182  32.4487343
  78.1622314  66.3572464  54.2452431  79.0015869  66.8051605  54.3505936
  78.3658295  65.4318924  54.3812447   9.7289648   2.2951281  56.0308037
   8.8921289   2.7596698  56.0425873   9.8296814   1.9604411  56.9219131
  53.8630028  39.2776375  23.4728642  53.6163368  39.0603447  24.3718472
  54.8184357  39.2198944  23.4660378  36.2405968  47.7963600   8.3260908
  36.6087151  48.3825989   7.6649966  36.2075882  46.9416008   7.8965240
  43.4714165   4.5644751  15.0702858  43.5896301   3.6245503  14.9331760
  44.3472786   4.9345946  14.9602518  34.1892700  25.5150719  80.7813263
  34.5098152  26.2577305  80.2695236  33.6110382  25.0430088  80.1821213
  59.6512070  70.8907318  50.2161980  59.0692444  71.3923187  49.6452713
  60.4289970  70.7284851  49.6823921  68.7312851  50.8343544   4.0522223
  68.9300995  51.7568893   3.8920996  68.1602478  50.8422356   4.8203888
  45.3227997  31.5539932  22.8507614  45.2997856  32.2786179  23.4757614
  46.1297188  31.6912689  22.3545036  31.1499863  60.1072235  68.5901947
  32.0063667  59.9610138  68.9920273  30.5678730  59.4922447  69.0364838
   6.4235349  67.6404648   3.0378184   6.1673102  66.7922287   2.6757658
   5.6638360  67.9228592   3.5470750  53.2294998  55.6789780  47.4167633
  53.9138374  55.6342506  46.7489967  53.1469040  56.6122131  47.6129341
  47.3324394  30.3621292   7.7485127  47.3629265  30.2411041   8.6975412
  48.2278442  30.1913948   7.4564009  47.6295586  49.9075813  47.1791611
  48.4226799  50.0222626  46.6556778  47.3698463  50.7972336  47.4185295
  12.3687201  41.6654358  33.8928223  12.4888697  42.3196754  33.2045212
  13.1278353  41.0882950  33.8098373  12.8966970  24.7981033  67.2226410
  13.3589411  24.1313953  66.7146454  13.3126945  24.7737923  68.0843735
  50.5962868  37.3680344  63.8729515  50.2440910  37.9461594  64.5496826
  50.4877548  36.4867897  64.2305222  69.1879044  21.8797169  65.4914932
  69.6030655  21.1165199  65.8932419  68.8309402  22.3742657  66.2292175
  59.1338005  16.9641800  68.3787155  59.1945190  16.9971313  69.3334198
  59.5823288  16.1535473  68.1380310  85.0246353  54.7179146  16.9366226
  85.8864365  54.3096352  16.8539448  84.9085922  55.2002678  16.1180248
  36.1075745   7.9100614  87.5839539  36.1556396   8.0541544  88.5290222
  36.4184647   8.7301569  87.2005157   0.7968162  54.9968796  56.5607719
   1.4570736  54.3975067  56.2128601  -0.0169245  54.7318459  56.1320343
  20.3559093  15.3341351  71.1405029  20.8721600  15.9927683  70.6758347
  19.4487190  15.6183290  71.0288162  74.3251266  48.0993309  78.0525513
  73.8848190  48.4126320  78.8426132  74.6279449  47.2201767  78.2797546
  63.3165779  58.4255219  33.5018730  62.8883705  57.6227798  33.2044220
  63.1814766  59.0479507  32.7873383  59.6503448  60.4524689  12.1733589
  59.1634521  60.5669441  12.9894867  59.9950562  59.5608826  12.2231579
  70.6949539   1.0624324   4.3997922  70.0757675   0.9717346   5.1240916
  71.5074921   1.3527079   4.8142333  64.5482330  32.3484077  51.9034081
  64.5589142  32.7104988  52.7894135  63.6207886  32.2065735  51.7137909
   0.7322809  59.8487167  73.8463974   0.7430939  59.5098457  74.7415390
   0.0346787  60.5041428  73.8468246  37.8840294  54.3178825  20.5848732
  37.1130791  54.7803497  20.2562466  38.1690636  54.8334236  21.3393307
  83.6656494  57.3056526  65.2708282  83.3160782  56.8170433  66.0160065
  83.3723373  58.2052574  65.4154434   5.7228003  61.6190453  59.8006287
   5.1877761  61.5888367  59.0074883   6.1902304  60.7837563  59.8061867
  83.1362381  48.5431900  33.4059219  82.5307846  49.2837181  33.3701744
  82.5699234  47.7723579  33.4425774  58.8696899   7.9513450  64.3210449
  59.1031456   7.0581822  64.5740051  58.9954224   7.9722066  63.3723640
  77.7982559  29.3906002  79.9575195  77.7909317  28.5799637  80.4664917
  78.1839676  29.1424255  79.1173630  63.2169418  53.7824059  47.3504982
  64.0568619  53.5554390  46.9514389  63.4347610  54.0088654  48.2546539
   9.4181900  64.4962082  87.0016327   9.0382099  64.9080276  87.7776794
   9.0902071  63.5971985  87.0226898   7.7963881  44.7577972  29.7774277
   6.9965186  44.3419914  30.0992107   8.5050201  44.2234154  30.1359081
  54.2478409  55.7232246  86.1359711  54.1503754  54.8239822  86.4491730
  53.8418388  55.7202682  85.2691498  78.9152374   3.0582519  18.3964977
  79.5359955   2.3297586  18.4102440  79.3895569   3.7847607  18.8007698
  20.0946941   2.7419980  67.2287750  20.0713482   3.0909498  66.3377533
  20.7378521   2.0340259  67.1919632  74.3179169  68.7755737  53.0169601
  74.0835114  68.1500092  52.3314285  75.1434631  68.4448166  53.3709335
  75.4580688  10.0145369  80.2493439  74.8687973  10.7279491  80.0043335
  76.0234222   9.8979235  79.4857941  58.7320709  16.4021397   1.3279086
  58.0554543  15.7401991   1.1855873  58.8286018  16.4452705   2.2792516
  17.2490540  37.1894302  32.3823242  17.3106937  36.2891769  32.7016640
  17.0203609  37.1002464  31.4571323  53.6275330  48.3824348  -0.1324043
  52.8402023  47.8754654   0.0658881  54.3417435  47.8776131   0.2565544
   0.3546158  60.4439125  11.4488668   0.1581633  61.2437172  11.9366646
  -0.2018248  60.4945984  10.6716690  13.6343355  63.9792290  52.8203201
  13.8508835  64.1887741  53.7288551  14.4550295  63.6585808  52.4463234
  22.6422081  14.2532778  25.3359394  23.0563736  14.4261551  24.4904747
  22.5867043  15.1118488  25.7554722  76.4507141  22.2892208   4.3349748
  76.8105087  21.8491745   3.5648198  75.8695831  21.6403904   4.7318888
  51.2334213   9.6133709  78.2433395  51.4110107  10.4539175  78.6654510
  51.7750587   9.6224861  77.4541779  65.7094193  43.1102791   6.9942875
  65.0243835  42.4743767   6.7879219  66.5280685  42.6351852   6.8516946
  72.9283218  43.3812866   8.9735250  73.7166367  43.9053650   9.1154270
  72.2174225  43.9184799   9.3232107   8.9260044  67.1610565  70.3552475
   8.2597752  67.3968430  71.0008316   9.1165791  66.2400513  70.5331802
  14.4303226  55.7329826  82.0671921  14.2678957  55.7211151  83.0104370
  13.6629972  56.1697578  81.6974945  45.1849442  13.6697483  17.9049187
  44.7706642  13.7402906  17.0449009  44.5676155  14.0904503  18.5033741
  39.3306770   1.4305130  65.9200134  39.2165909   0.5450301  66.2651749
  39.2324181   1.3328954  64.9728928  69.8536911   4.8037076  23.8783016
  69.2867737   5.1343312  23.1815090  69.6029892   5.3095212  24.6513042
  13.0162640  67.3218613  51.6184807  12.3764725  68.0325851  51.5763474
  12.5127916  66.5636292  51.9148483  25.7530727  45.1450005  72.8105850
  26.0966053  45.0696678  73.7008362  24.8529053  44.8256531  72.8733978
  44.9724884   6.3835917  11.8229637  45.4289894   5.7712307  12.3998976
  44.1346474   6.5428619  12.2575788   7.0976338  70.8692017  17.1287003
   7.5238171  71.7246552  17.0757694   6.6843348  70.8605270  17.9920311
  31.1726627   1.9992279  56.0009651  30.2846222   2.3347859  56.1235046
  31.1008091   1.0612595  56.1778374  17.7694912  45.5270576  88.3767929
  16.8740768  45.8448906  88.2608337  18.0960178  45.4006081  87.4859390
  83.5719299  43.8481903  44.9183540  83.7767715  42.9429131  44.6843719
  83.7113419  43.8884392  45.8644943  62.0087700   0.8576288  83.4777756
  61.8719749   0.0451892  82.9904785  61.1752281   1.3228029  83.4066849
  22.8628159  47.2705498  12.7985001  22.6427994  46.9833755  13.6847019
  22.6774883  46.5101814  12.2473888  18.6509781  29.0386162   4.1283097
  19.3901863  28.4530907   4.2925143  18.7156429  29.7039375   4.8134360
  77.8783493  67.1834106  11.9723396  78.3881683  66.5809479  11.4307213
  78.3474503  67.2112350  12.8062439  11.4047651  52.5720367   9.2866182
  12.1221123  52.0249977   9.6066084  11.6039724  52.7107506   8.3607092
  49.4029808  59.5530739  16.7772789  48.9374619  58.7304611  16.9283924
  48.8902512  60.2087593  17.2499485  84.9980545  62.3726616   7.0471258
  84.4786911  61.5860863   6.8804450  84.5453949  63.0650673   6.5655613
  72.5862274  24.2321968   9.7689810  72.2118225  24.0826530   8.9008274
  72.6798859  23.3563175  10.1435413   0.0998632  43.7641602  60.8959160
   0.7617277  44.1611977  61.4620705   0.1679750  42.8253403  61.0697327
  17.1064739  49.8735390   6.8646955  17.4222527  49.4982719   7.6867003
  17.9021149  50.0759048   6.3725243  72.0114670  25.7267227  12.8489838
  72.9035187  26.0548763  12.7359085  71.5549164  26.4288635  13.3124418
  66.6113281  26.2547531  41.7605095  67.2564926  26.9430637  41.9224281
  66.0353928  26.2817764  42.5245781  54.2746849  54.9520874  36.1118546
  54.8722572  54.2044106  36.1225815  54.3223534  55.3095360  36.9985313
  35.8898125  54.7686539  32.0604134  36.7263870  54.9709663  32.4792786
  35.6634369  55.5652733  31.5804291   1.6005267  63.8963470  42.5658493
   0.9971145  63.9788513  41.8273926   1.7570914  64.7971954  42.8490219
  51.1372986  20.3333626  69.4290390  50.7878342  19.7261143  68.7768478
  51.6040230  20.9931641  68.9161453  44.8213310  47.2393074   9.8545876
  45.0865250  47.7367020  10.6282187  45.1608200  47.7454300   9.1164684
  39.4078903  69.5058823  64.3996124  39.2762108  69.6272659  65.3399048
  40.1716499  68.9323349  64.3367920  38.4044418  53.4945908   2.6930809
  37.6751785  53.4855270   3.3130198  38.6455956  54.4180641   2.6204510
  20.3914394  14.5612068  54.8408012  19.9491520  13.7208738  54.7205772
  20.9949512  14.6223211  54.1003494   5.8935242  18.3846169  82.1516342
   6.1941562  17.5344315  82.4726334   5.5321765  18.1992416  81.2848587
  82.3417892  14.5567894  47.8221626  82.5233459  14.5130730  46.8833580
  81.6904831  15.2529697  47.9079933  30.7678242  67.6622314  84.3786469
  31.0138683  67.1791763  83.5897598  30.5943680  68.5517197  84.0705109
  20.4640789  61.2739487  83.6674271  19.9129658  60.5905228  83.2860641
  19.9854851  61.5614853  84.4449234   4.8387909  50.1890793  51.4175682
   5.6592607  50.4450836  51.8389015   4.4742527  51.0092697  51.0849571
  26.7546978  51.8294792  71.8344727  26.5177326  52.7468910  71.6987000
  27.6733551  51.7778130  71.5705948  51.6811104  12.3140497  21.5978546
  50.7312241  12.3867712  21.6909199  52.0330544  12.8331985  22.3209381
   2.1044741  15.3797760  71.3180695   1.8711805  16.2066708  71.7400360
   2.4986484  15.6387730  70.4851379  38.6948128  54.5524139  13.0629606
  38.5739746  55.3889122  13.5122900  39.6220207  54.5398026  12.8255615
  76.8567810  41.2230949  16.2661133  77.7774887  41.4848824  16.2675552
  76.7941818  40.5636902  16.9571266  16.2502499  10.4695559  88.3161240
  16.5670242  10.0631504  87.5094528  15.7776747  11.2484064  88.0223694
  69.9099655  40.5653992  10.5041695  69.1137238  41.0788193  10.3676720
  70.1705856  40.2894363   9.6254473  10.2974577  60.0165863  26.8740425
  10.8359728  59.8234062  26.1066360   9.4498587  59.6170921  26.6785679
  12.0217457  67.2771988   8.8553791  12.3430023  66.6841583   9.5345945
  11.5869341  67.9805145   9.3375797  82.9645233  54.0246162  43.1137238
  82.8543320  54.0652275  42.1637573  82.7761993  53.1133003  43.3379440
  40.0537910  14.2254190  84.7516632  40.1962814  14.0333166  85.6785049
  39.8309708  15.1561041  84.7314606  85.8196182  63.3873672  14.9795876
  85.7827530  63.7035599  14.0768728  86.2803802  62.5503654  14.9215612
  78.1605377  40.0057106  24.1041660  78.4101944  40.8168144  24.5469055
  78.1384506  39.3496094  24.8007832  65.3975143  68.2026596  79.3665390
  66.0615540  68.6537018  79.8879242  65.8692627  67.4814758  78.9498978
  82.2740402  40.5770493  20.9919434  81.4123840  40.2679253  21.2716160
  82.4664841  40.0691757  20.2037411   4.3749056  29.2926769  74.0470352
   4.4017439  29.7750092  74.8733902   4.1030984  29.9426517  73.3990479
   6.6323414  61.7089767  42.2224083   7.2084293  61.2528496  41.6089745
   5.7734122  61.6946030  41.8001938  48.7252769   4.3065438  57.4630432
  47.9649696   3.7253075  57.4811134  48.3592720   5.1833539  57.5791359
  83.3340530   6.8835073  49.0464706  83.7086563   7.6087546  48.5465469
  83.8143234   6.8900585  49.8744392   0.3689237  22.1931496  58.7046661
   1.0346210  21.5202961  58.8473091   0.6094927  22.5949039  57.8698311
  39.9127541   5.0904484  17.2124596  39.2906265   4.6241198  17.7707863
  40.1363449   5.8778691  17.7086525  83.3274841  64.6243591  87.8731155
  83.1337585  63.9641151  88.5385361  82.9506607  65.4326401  88.2208710
  78.4478607  28.2968407  77.6330109  77.6510696  28.4315395  77.1199722
  79.1606522  28.4387016  77.0100861  68.9286041  66.4759827  81.1492157
  68.4726562  67.2302780  80.7758789  69.7832565  66.8183136  81.4111710
  43.1146851  27.9030533  76.2340927  42.9205856  28.0356159  75.3062057
  42.9413223  28.7529602  76.6388626  24.3824368  68.9433365  14.1316519
  25.3167419  69.1442871  14.1857357  24.2470798  68.2561874  14.7841396
  58.2047806  47.3029366  57.8346367  59.1288300  47.3957329  58.0664825
  57.9414062  46.4711838  58.2284012  60.2074165  29.4563446  72.5839310
  59.6053963  29.8924160  73.1869659  60.0787468  28.5225773  72.7505341
  11.8204203  26.3085499  86.5535736  11.2918711  26.1422787  85.7730484
  11.1948662  26.2779045  87.2774353  16.2850895  65.7700043  59.1324883
  15.6686182  65.5064163  59.8156509  15.8768120  66.5326691  58.7227478
  29.1079559  33.5427933  18.7379398  28.5608025  34.2280922  19.1216354
  28.9757080  33.6311455  17.7940445  10.6671324  48.3847923  62.7409935
  10.3171425  47.6565094  63.2541618  10.5132427  49.1570320  63.2852364
  62.7343063   7.5263700  71.8104401  63.5587196   8.0074978  71.8817520
  62.9899673   6.6050601  71.8557816  28.1624413  48.7188873  83.3076706
  27.4527702  48.2853165  82.8337402  27.9837837  48.5325394  84.2294083
  13.2277279  38.4776802  14.9219322  13.0130119  38.8727760  15.7669353
  12.4682083  38.6646538  14.3702040  39.6099205  19.5162811  30.4362297
  40.0867043  18.7807693  30.8208504  38.6977654  19.3667412  30.6849155
  24.1150169  48.4522209  84.4923477  23.7999649  48.5617371  83.5951385
  24.5492344  47.5991745  84.4912796  18.5059261   7.0657368  21.5469818
  18.1641598   7.4062843  20.7202682  18.3711109   7.7771220  22.1730709
  68.3277130  32.6600342  15.9737215  67.9331055  31.8680611  16.3388176
  68.7477951  32.3673668  15.1649542  68.1249924  57.0189972  57.1449738
  68.1960220  57.7489433  57.7600822  68.2326355  56.2375450  57.6871719
  49.4625359  13.4779587   5.6504107  49.1899529  14.1261024   6.2999029
  49.2129440  13.8616743   4.8097572  70.3188095   8.5762539  88.1662674
  70.8665085   8.1644716  87.4979095  69.9722137   7.8441644  88.6763153
  86.7032700  54.8278427  63.3457642  86.3554153  54.2337303  64.0107880
  86.7357407  54.3009415  62.5472946  17.5473595  71.0579453  67.9565964
  17.7146397  71.9190445  68.3396835  16.6009007  71.0385971  67.8149261
  73.7462311  12.8369856  84.7689590  74.3321915  12.4793501  84.1018906
  73.3935623  13.6349211  84.3750534  30.4974155  69.3904800  29.5482769
  30.4497280  70.1056519  28.9138527  30.5842228  69.8273163  30.3955498
  73.4528656  21.8494759  43.5947037  73.8516769  22.2273426  42.8108635
  73.6675949  22.4667854  44.2940254  62.6149330  43.3118553  47.8072433
  61.9103203  43.3986740  48.4492836  63.1501312  44.0956573  47.9315414
  44.5157890  48.5671005  88.5366287  43.9902229  48.0654945  87.9134064
  44.7038498  47.9492912  89.2431488  76.7957230  16.4348164  87.0952454
  76.1246185  16.8692169  87.6217041  77.5858841  16.9561920  87.2368240
  45.5305023   2.8241487  85.2254639  46.3330994   2.6203218  84.7453384
  45.6603470   2.4292161  86.0876770  21.1585178  23.8251171  79.4032059
  20.2532349  23.5908356  79.6076736  21.4777889  24.2600307  80.1938705
   0.9905148  16.3836346  59.4693375   0.1337960  16.6810589  59.1630669
   0.9975172  15.4441833  59.2859917   3.4107826  38.7133827  53.6479988
   2.6294429  38.3927574  54.0984879   3.3427861  39.6667633  53.6996994
  73.9649734  35.4180984  73.1590347  74.1104202  35.8072777  72.2967072
  73.2304688  34.8179970  73.0301819   1.2348868   1.9225844  27.2614651
   1.7674763   2.3559146  27.9284019   0.8787490   2.6393299  26.7364178
  45.6615448  14.5285568  75.6875229  45.1604195  15.2809362  76.0022125
  45.3122215  13.7854309  76.1794281  69.0645828  31.0959549  38.3866386
  69.0755920  31.4886742  37.5137787  68.4193497  30.3916740  38.3242874
  83.3987122  54.6940231  49.5312958  84.2538605  54.2644043  49.5119781
  82.8969574  54.1997833  50.1795273   3.9918196  55.9212456  55.6414032
   4.0507879  56.0135002  56.5923195   4.6419258  56.5355034  55.3003998
   2.5397916  37.6698494  39.2866020   2.4496870  38.2094116  38.5011215
   3.4808135  37.5115585  39.3617973   1.8946152   1.2983768  57.1656799
   2.3767011   0.6984184  57.7347794   1.4262561   0.7269263  56.5571442
  45.6994629  43.7903633  36.1461105  46.5643959  43.4854202  35.8720055
  45.7625351  44.7451096  36.1193581  49.7132492  71.3051071  16.0153885
  50.6618996  71.1925583  15.9551964  49.3573303  70.6797256  15.3841534
  78.5119629  34.8657417  24.4424381  77.6486511  34.6998329  24.0637589
  79.0992508  34.9133987  23.6880817   0.0937565  68.9036942  71.9500580
  -0.2015174  69.8011856  72.1035385   1.0229590  68.9146957  72.1796112
  81.8832855   5.1101680  33.2004013  82.4346924   5.7933154  33.5818367
  81.8474426   4.4287138  33.8716431  20.0559616  41.7508926  17.0331650
  19.9304142  41.1379814  17.7576027  19.4234943  41.4719124  16.3710575
  20.7409649  62.4989433  23.6841087  19.9670353  62.1215210  23.2659988
  21.3155365  61.7503853  23.8446064  82.7789993  25.8131046  33.8824615
  82.0837555  25.6420097  34.5177498  82.4964600  26.6054688  33.4257774
  42.2352219  59.7165337  65.9241257  41.4622116  59.9612923  66.4328232
  42.4472923  58.8317299  66.2214279  67.7931137  33.4427605   6.4928932
  68.1823502  32.5712585   6.5650778  68.5410004  34.0401611   6.4966874
  60.6024780  41.2918472  11.2370501  59.7753448  41.4387436  10.7782440
  60.4739227  40.4663239  11.7041883  24.2379932  57.3302383   1.1771291
  24.8014736  58.0644875   1.4212552  23.3627014  57.5959892   1.4590425
  55.0615311  26.8687592  78.9333954  55.0415115  26.7704105  79.8853226
  55.4170227  26.0392685  78.6143341  51.9916840   9.8575945  49.3314667
  51.3138504  10.2357321  48.7713013  52.7818985   9.8677406  48.7913818
  35.3836861  71.6856995  74.2751389  35.1168518  71.0690842  74.9569168
  35.5729103  71.1353455  73.5151749  52.9672241  52.1148262  81.8796310
  53.7251167  52.0574646  82.4614792  52.2549248  52.4168968  82.4432068
  56.9717827  23.4120102  36.9386292  56.1171837  23.6725960  37.2821159
  56.8956223  22.4683208  36.7976227  61.6900978  23.8010788  65.7658005
  60.7377243  23.7059402  65.7788162  62.0052643  22.9989052  65.3493576
  56.4045486  12.2989225  20.3424358  56.9726219  12.3448839  21.1114712
  57.0081863  12.2380629  19.6020641  42.3233604  55.4435654  31.4181519
  42.5202866  54.5527916  31.1283722  42.9580231  55.6149101  32.1139069
  61.6623802  16.0278645  32.4073715  62.4852371  16.1555538  31.9353180
  61.8023643  16.4548378  33.2525520  57.8226814  62.6459808   8.7482882
  57.2355919  62.1453743   8.1817627  57.9493828  63.4758377   8.2883739
  37.1349564  16.4779015  75.4371796  37.1586761  15.6568394  74.9457245
  37.4439659  17.1376667  74.8163300  71.3422699  59.9561996  39.0335350
  71.8453522  59.6398201  38.2831726  71.3327789  59.2187080  39.6436577
  61.8813057  64.3938141  10.1054096  61.3101349  65.1451721   9.9458647
  62.4779663  64.3833389   9.3570004  32.2395210  22.0986328  24.9133072
  32.7707100  22.8914032  24.8385620  31.7976151  22.1851788  25.7579727
  26.8111572  46.4212685  33.9087257  26.2590237  46.3556862  33.1295738
  27.6276360  45.9874725  33.6609001  64.4360275  16.0838566  56.7231407
  63.8192444  16.6852360  56.3058243  64.6301422  15.4333973  56.0482674
  14.1564751  63.7851028  41.4922791  14.7445793  64.5395966  41.4589195
  13.4011612  64.0921631  41.9937248  32.8218651  56.5130463  19.1122952
  32.6422539  57.4521294  19.1580505  32.1017685  56.1076469  19.5953541
  29.6348991  60.1734734  42.9723816  29.2390308  60.8714828  43.4942055
  29.1956882  60.2303200  42.1237984  54.1673546  16.5762672  23.2592754
  54.2404404  16.9297352  22.3727379  53.2286873  16.5904865  23.4461651
   2.8468189  55.8858147  17.2946548   2.9237685  55.1723671  17.9281406
   3.2024817  55.5245781  16.4827175  45.1033707  51.3107491  17.5584354
  44.1553917  51.4361076  17.5153790  45.2376060  50.4032135  17.2853222
  59.2958641   0.3775143   1.9536490  59.8472939  -0.2703729   2.3922808
  59.7285004   0.5309368   1.1136974  70.1679077   7.0424867  81.0053024
  69.3641357   6.8477178  80.5233688  70.8512497   6.5659943  80.5338898
  81.7836380  11.2611475  58.1463013  81.8798523  11.9644365  58.7884521
  81.1497192  11.5993595  57.5138512  32.9537048  50.6392021  34.3209190
  32.9853554  49.8685341  34.8877525  32.3138657  51.2166634  34.7373047
  50.1989708  55.0651245  73.7866821  51.1522026  54.9838829  73.7554626
  49.8850174  54.4624100  73.1125870  55.1576042  53.6309242  53.2006912
  55.9556236  53.6222496  52.6721840  54.4562263  53.8035583  52.5726051
  23.0807724  46.4478073  29.8680859  23.9214191  46.5365334  29.4190044
  22.4443531  46.3269539  29.1633892  70.5102158  22.7712574  19.8446159
  71.1053848  22.3839130  19.2027702  71.0665817  22.9701271  20.5977020
  20.0746460  50.7023315  71.6308289  20.6005535  49.9709129  71.9543686
  20.5528755  51.4831085  71.9099579  36.7026482   2.5490859  34.0103874
  35.8929214   2.0717425  33.8295097  36.8338089   2.4495754  34.9533234
  37.2513580  67.3312988  89.4447632  37.3698997  66.6132202  88.8230362
  37.6000900  68.0995636  88.9926605  85.0632858  46.6629715  33.9734421
  84.4512634  47.3817635  33.8153381  85.3788071  46.4211426  33.1026955
  46.2314758  10.4785347  31.2087326  46.4805489   9.6731091  30.7554302
  46.1385689  11.1271629  30.5109634  65.6550598  44.3644753   9.6110983
  65.3665848  44.0190582   8.7662888  65.8427811  45.2875366   9.4409637
  32.0066223  38.4361420   9.4147911  32.0933533  37.6772232   9.9916363
  31.1134682  38.3782234   9.0754433  75.4294968  31.3376846  83.4308319
  76.3585739  31.1676941  83.5862274  75.1180038  30.5602360  82.9673843
  50.9766846  21.7044201  25.3311062  50.0534668  21.6742115  25.5820847
  51.0034752  22.3082314  24.5888615  35.4790497  65.4301605  16.5859337
  35.0033417  65.9474792  17.2357960  35.5768242  64.5683212  16.9907780
  81.7964935  64.2553711  48.3026695  82.1031418  63.4922981  48.7924881
  82.5933914  64.7442932  48.0974007  58.7152252  61.8269386   3.7326674
  59.4011269  61.6017838   3.1041179  59.0832558  62.5505219   4.2398286
  15.9675884  43.4300308  26.8403263  16.6732044  42.8064423  27.0120029
  15.9539337  43.9949303  27.6129398  84.6175842   2.6338701  30.8173409
  84.5713577   2.0724533  31.5912304  85.5217056   2.9478502  30.8028793
  77.6258087  55.5816078  60.5169296  77.0651321  55.2955475  59.7957840
  77.6381760  54.8384056  61.1200294  26.5474205  34.7079048  50.6653786
  27.4012947  34.4109688  50.3507957  26.3689747  35.5014648  50.1607513
  38.7144928  64.1507950  69.4912567  39.1316566  64.7216110  68.8459854
  37.9138336  64.6135559  69.7382889  21.1037235  61.5576935  40.8751869
  20.4914799  61.9885635  41.4716263  20.6082840  61.4444466  40.0640488
  29.4602985  36.5545044  85.9981689  29.4879398  37.4497910  85.6606293
  28.5413933  36.4125137  86.2255096   8.3139677  17.8219357  36.7056618
   7.6776376  18.0383854  37.3871765   8.1380844  16.9046021  36.4963875
  34.3330498   9.4581470  42.9301300  33.9518852  10.2144079  42.4840202
  33.6642952   8.7768612  42.8604965  21.0382729  59.1002502  34.9171753
  21.8823624  58.7536430  35.2063255  21.2558994  59.6883812  34.1940041
  66.7141418  51.4732819  35.8321800  66.1092148  52.1163101  35.4623070
  66.9707870  51.8438873  36.6765823  40.9116745  41.0713806  38.9673691
  41.6815300  41.6280708  39.0842285  40.3077393  41.6034851  38.4493370
  64.1136627  25.2448063  25.3034725  63.3919296  25.8732872  25.3222294
  63.9785423  24.7016811  26.0799961  74.5427094  69.2913742  10.8670588
  75.0425339  69.1248322  11.6662283  73.8175888  69.8485870  11.1498137
  79.8166962  54.4476891  13.8560801  78.9885101  54.1290588  13.4971695
  79.8622971  55.3623543  13.5776167  26.3571262  68.9780045  36.7247925
  25.7630405  68.9059601  35.9777298  27.1277485  68.4717789  36.4676781
  80.6725845  59.7090569  27.2873764  80.2457275  58.8578606  27.3847904
  81.2846603  59.5883713  26.5614071  71.7539825  34.6578064  35.9182434
  70.9512787  34.9994354  36.3121758  71.6027451  33.7154465  35.8453255
  13.7257214  26.8469620  65.4034882  12.8355227  26.7751102  65.0590820
  13.9294319  25.9689789  65.7257919   4.2265205  22.9248066  53.8570290
   4.8491015  22.5716515  53.2214928   3.5531988  23.3470249  53.3235474
  61.1487007  58.2808800  11.6907425  61.3005638  58.9177437  10.9924765
  61.6684875  57.5183334  11.4366255  80.7830124   4.7218084  64.8888016
  80.7080917   4.0993104  64.1655350  79.8918762   5.0461068  65.0189819
  34.8885384   5.8425832   1.5260341  35.8371391   5.7518697   1.6163640
  34.5548706   4.9479723   1.5936208  61.1010361  38.3668289  49.4982719
  62.0338440  38.2999649  49.2942505  60.8805771  39.2800331  49.3147202
  38.7556076  10.0709295  28.3215008  39.0379944  10.5295877  27.5302200
  37.9086647   9.6906061  28.0885334   5.7344823   4.0246267  26.8182316
   6.6903872   4.0330911  26.7691822   5.4915876   3.1240695  26.6032181
  66.2403183  36.5453415  51.1010895  66.4875183  35.6662369  51.3879700
  66.4097061  37.1018295  51.8612595   2.4877660  32.0045052  52.8160133
   2.8992076  31.1540089  52.9696388   2.7909021  32.5515976  53.5406036
  47.0661316  42.0011406  73.6484451  46.2343025  42.3520775  73.9664688
  47.7131233  42.3041039  74.2855072  69.0101318  35.1908913  17.1923656
  68.8671341  34.3288574  16.8016186  69.6197052  35.0293198  17.9124622
  14.5875645  59.8285408  10.8825445  14.1487398  59.7896461  11.7323389
  13.8737984  59.8470421  10.2450266  16.2068386  38.3332863  15.5045013
  15.3507891  38.3168335  15.0765543  16.0357723  38.0246544  16.3942852
  20.2707043  61.1633682  28.7639980  20.7857704  60.9764900  27.9791298
  20.2128029  62.1184425  28.7906990  86.0857620  28.3469143  12.1121416
  85.4151001  29.0069485  11.9366503  85.8256302  27.5940952  11.5812674
  11.3236990  69.4796753  51.3607941  10.4644585  69.2193756  51.6927299
  11.4360447  70.3796921  51.6667137  61.2300949  26.0475330  21.6354103
  60.9589043  26.1696205  20.7255840  61.6677666  25.1962852  21.6427078
  85.7139282   0.2477362  69.9832764  86.1582947   0.3574173  70.8239594
  86.0325012   0.9740941  69.4474182  31.4573612  28.2416782  77.4217453
  31.2799835  29.1148930  77.7714081  32.2984619  28.3295422  76.9733429
  75.2068176  69.0988617   2.4159114  75.4257431  69.7108307   1.7132093
  74.8202896  69.6468277   3.0989628  24.6123753  47.5608711  35.6221504
  25.2859116  47.1253853  35.0997238  23.9276791  46.9005165  35.7287102
  19.4191074  20.6907692   4.1659389  19.9468918  21.4637756   4.3662734
  18.7352848  20.6874943   4.8357215  68.0773468  30.5206547  79.2896729
  67.8356628  30.8980312  80.1354980  68.2535172  29.5992699  79.4800568
   6.4430280  50.7777977   7.4861851   7.3935938  50.7971687   7.5970044
   6.2052312  51.6857758   7.2984095  80.0944977  43.0435410  38.4683189
  79.6650009  43.5868340  39.1290741  80.9814148  42.9141350  38.8042641
  74.0139618  63.3236046  19.4231777  73.3961487  63.3633957  20.1532135
  74.6470718  62.6537476  19.6814384  77.6241531  44.9724350  82.1258698
  78.1136475  44.4446106  82.7567673  78.2219849  45.6827698  81.8929291
  80.4085770   9.1269436  81.6701508  80.8041534   9.4175615  82.4919128
  79.4659119   9.1618652  81.8325958  48.6739006  65.5980072  49.8791084
  48.3201942  66.4414825  49.5968361  48.5586662  65.5958786  50.8293419
  18.4100647  39.6000443  31.5399418  18.0713825  38.7381668  31.7822037
  19.0235176  39.8218842  32.2404366  41.3321877   8.4253979  22.1721878
  42.0226059   7.7689567  22.0792179  40.6794777   8.0084887  22.7346706
  73.4022903  30.7618179  61.5342941  72.9392166  30.4984665  60.7390289
  73.7094879  31.6494045  61.3497734  12.8228827  63.2145691  63.3928680
  13.6608868  63.3796997  63.8249702  12.6209068  62.3027039  63.6024742
  13.3128548  61.3048744  21.0878696  12.5362501  61.6608620  20.6561413
  13.4521580  61.8785477  21.8413448  79.4917984  33.8540802  83.4363327
  79.0366135  34.3862610  84.0888824  78.8214722  33.2567291  83.1045761
  18.9447556  49.3546257  86.6107330  18.0069122  49.3601837  86.4192963
  19.2244873  50.2582245  86.4641495  22.4563293  13.0313292  36.3277016
  23.0771427  12.8661747  35.6180916  22.5225601  13.9723940  36.4897003
  10.5897493  36.6731987  12.0521307  11.1938400  37.1363716  11.4718065
  10.6303310  35.7619019  11.7620955  79.3045273   6.8169417   5.2852130
  78.8010483   6.0896969   5.6510801  78.6423721   7.4290347   4.9640718
  55.2656670  28.6178989  69.2217026  54.6908379  29.2425652  69.6639633
  55.8416634  28.2914791  69.9130096  51.0154877  43.3176727  20.8576012
  51.6864929  43.3419647  21.5397987  50.7624512  42.3961258  20.8032398
   0.6938176  29.1079788  14.5821600   1.4698229  28.5495033  14.5357590
   0.0664854  28.6961784  13.9879313  41.9560661  53.6478729  74.4475250
  41.0294914  53.8833466  74.4949417  42.0999489  53.0869637  75.2097015
  12.6600809  20.9754295  82.4201279  12.9139023  21.3754177  81.5883713
  11.9045334  20.4294624  82.2026443  54.2094078  39.0916214  68.1062164
  53.7776871  39.2133484  67.2606277  54.7999039  39.8409805  68.1837387
  53.9538803  38.5463104  26.0832825  54.6012955  37.8545570  26.2195358
  54.2210197  39.2453117  26.6801624  31.3859043   6.9668188  50.1592293
  30.8498611   7.5918856  49.6711922  32.1717720   7.4591565  50.3963890
  86.0065079  39.6544266  12.7653580  85.9189911  40.5951653  12.6117792
  86.9510498  39.5059242  12.8102779  33.0881004  67.8793793   4.9982004
  32.9791603  67.0109406   5.3857327  33.9888611  67.8859024   4.6744428
  12.9588556  19.6012459  26.6250496  13.8435068  19.3269234  26.8666515
  12.3885441  19.1383839  27.2388363  68.9183807  70.4666061  42.3071785
  67.9866638  70.4547653  42.0880928  69.2849197  69.7188644  41.8352051
  61.7012329  37.2191086   5.4529462  61.4488411  37.0040359   6.3508739
  60.8835602  37.1751137   4.9572539  79.1533203  67.8815842  85.0124283
  79.5433121  67.9178314  85.8858261  79.9015732  67.8886414  84.4155273
  12.1059198  18.9898148  17.3446407  11.3474503  18.5862541  17.7666531
  12.4180050  19.6349297  17.9791965  75.4582138  65.9695206  22.1622734
  75.6151276  65.7575684  23.0824299  74.5979614  65.5946198  21.9734612
  59.8939972  23.8837109  40.8917503  60.1050797  23.0496826  40.4721413
  60.4302635  24.5272999  40.4286690  11.5739832  18.1467438  46.4868469
  10.6593933  18.1516209  46.2044754  11.5304165  18.2100048  47.4409637
  59.8818359  60.2434082  62.3016167  60.0095863  60.4384727  63.2299805
  59.6929398  61.0925560  61.9022408  59.9256744  16.7562008  56.7146263
  60.5431366  16.9984398  56.0244865  59.0769501  17.0622559  56.3949013
  56.0214195  27.1815834  61.8476105  56.1122322  27.4111805  62.7724190
  56.1091728  26.2286224  61.8276787   1.3252494   7.9349256  87.3173981
   1.2325555   8.8783274  87.4501801   0.6440411   7.5476050  87.8670959
  80.9569550  23.8023987  79.6811447  80.3711090  24.5070248  79.4045258
  81.7552719  23.9406796  79.1714325  72.7847214  49.8194771  21.9974689
  72.5188293  50.3071709  22.7770138  73.7282944  49.6969643  22.1018581
  77.1429291  33.1755791  54.2301102  76.9793015  32.4765778  53.5969810
  78.0807343  33.3519974  54.1550713  70.1833344  16.1655140  62.7586098
  69.5983505  16.5348663  63.4201241  70.5339890  15.3728304  63.1647148
  39.3688507  19.6126804   1.9351289  38.5876350  19.7443829   1.3979234
  39.0621071  19.7232723   2.8350790  60.5901184  14.6655827  84.9861145
  61.3685455  14.9878416  85.4404602  60.0522766  15.4455633  84.8497696
  78.5211563  70.9030914  19.5171909  77.6315002  71.0971756  19.8122807
  78.7671127  70.1143646  20.0005589  24.2276211  59.1029549  25.5646839
  23.8732662  59.0040741  26.4483624  25.0975590  58.7061996  25.6096935
  77.0350189  63.2689018  71.6259995  77.8282318  63.7869987  71.7624435
  77.1002884  62.9648857  70.7207108  81.2666092  52.2233582  71.5141373
  81.3458557  51.6292305  72.2604446  81.6366348  51.7349052  70.7788010
  85.2908020  57.7272682  63.0946922  85.6735382  58.6027679  63.1517143
  84.8294983  57.6129532  63.9255753  52.6801949  50.6930237  88.1887970
  53.4434700  50.9847298  87.6902466  52.9350586  49.8396378  88.5395203
  10.7132149  16.0003510  34.2159882  10.2785854  16.1616688  35.0534286
  10.1504889  15.3656616  33.7724342  15.0620155  20.7902374  65.4375000
  14.7063503  20.5301781  66.2872696  16.0093575  20.6936111  65.5346451
  14.9438667  71.0029373  50.7688637  14.4747934  70.1766205  50.8846054
  15.8630705  70.7476349  50.6906624  51.2410393  32.2577057  83.4550858
  51.8421059  32.9559174  83.1953735  50.3706207  32.6463966  83.3683319
  72.2748947  37.0724792  17.2966270  71.9938354  37.1992226  16.3904419
  71.5375519  37.3834991  17.8218155  77.2924194  66.2520447  78.2966461
  76.7814407  65.9288254  77.5545731  77.8114166  66.9705658  77.9352570
  65.4763260  69.7986603  16.6549568  64.9155350  70.3217392  16.0821247
  66.3157654  69.7585144  16.1967354  58.0175591  33.0580101   2.5117002
  57.6083107  33.7216530   3.0669687  58.3650475  33.5495377   1.7674646
  72.2106781  60.4681664   3.6121292  71.8336487  60.1995506   4.4499369
  71.5507126  60.2240677   2.9632187  16.7844582  14.9469337  52.2244339
  16.0157242  14.6695604  51.7260933  17.2854500  14.1425514  52.3593712
  48.4522209  51.3390350  74.1345062  48.9957085  51.8865204  73.5678406
  48.0732193  50.6867332  73.5453568  43.7187233  43.4344711  85.7652130
  42.8546791  43.6879234  86.0899124  44.3131943  43.6279221  86.4900589
  66.5137405  27.2741337  78.4252396  66.3286591  27.5915375  79.3091125
  65.6507950  27.1337528  78.0355682  60.5883255   7.2025423  25.3055496
  59.8308220   6.6428146  25.1348801  61.2537231   6.9000854  24.6874905
  70.4672241  29.4403801  82.6364288  70.4427185  30.2370090  82.1063232
  70.3438187  28.7299156  82.0069504  80.6200180  36.1265564  10.2273684
  80.1009750  35.3284378  10.1282434  80.2702789  36.7234268   9.5658102
  33.4640732  60.0893021  24.2045403  34.0914230  60.4343567  23.5692463
  33.8059959  59.2251167  24.4336853  81.7903671  44.4536285   9.7846136
  82.1105804  43.8438530   9.1198816  81.6982346  43.9204559  10.5742159
  26.8247528  54.0254021  62.2099648  26.5943623  54.7534485  62.7871170
  25.9903717  53.7439423  61.8347092  49.8307953  58.2433777  87.2116241
  50.1098557  59.1575851  87.2624588  50.6474571  57.7447624  87.1856308
  43.3660088  47.1947021  14.1383810  43.1815567  46.9878502  13.2221823
  43.7490959  46.3922310  14.4926634  80.0736542  46.6940575   2.0074530
  79.1635284  46.6760101   1.7115092  80.0284653  46.4628448   2.9352083
  49.7528954  47.8288498  28.4427719  49.4623032  48.5474892  29.0043316
  49.4130402  48.0499649  27.5756855   9.1191483   0.9201619  47.0075684
   9.2803383   1.8340214  47.2423248   9.2282610   0.4392923  47.8279915
  46.3790436   7.0764694  65.5407486  46.4301834   6.1212139  65.5739822
  46.4869804   7.3538923  66.4504852  79.1961594  55.3927269  48.7469292
  79.6482391  55.9159431  48.0850334  78.2756348  55.4196701  48.4858742
   9.3724632  44.2653389  76.4197922   9.1841297  45.1223145  76.8023605
   8.8675823  43.6496773  76.9511032  10.6979408  31.5071697   6.4729247
  11.5464811  31.7221279   6.8602285  10.5707302  32.1684570   5.7926674
  35.4287796  51.8132324  24.4305420  36.0851517  52.5022659  24.3274021
  34.5901451  52.2720947  24.3818493  14.7110271  33.1503181   5.8343253
  15.4341869  33.6775932   6.1738100  15.1371574  32.4381027   5.3574672
  50.8480301  58.8289108   2.8521316  50.5316048  58.2682076   3.5604537
  51.7270164  59.0894318   3.1273553  57.5153275  43.8501282  78.2032776
  56.6526451  43.5660896  77.9010696  57.3485222  44.6709633  78.6665649
  36.9246521  32.0514603   0.9115916  37.6202583  32.6589851   1.1631467
  36.2198563  32.6139946   0.5905741  14.4190016  67.6629333  16.5984650
  14.6279373  66.9006042  17.1383095  13.9789238  67.2990494  15.8302536
  50.1846504  57.1016884  23.3689995  51.0577621  57.3707848  23.6544666
  49.8178329  57.8816185  22.9526043  74.1994324  70.7529297  63.7213745
  74.7092438  71.3493118  64.2696991  73.9635468  71.2751236  62.9546242
  65.6965103  48.5840111  31.4152012  64.8613663  48.1212044  31.4828110
  66.3361816  47.9802132  31.7926617  19.4319305  24.8648243  23.2879429
  18.5768318  24.4446335  23.1958733  19.2360458  25.7305622  23.6462116
  86.5078430  11.9292088  16.6052551  86.5376129  11.6760025  17.5278759
  87.2322693  11.4507809  16.2020874  17.1366844  59.1832275  30.0135612
  16.6460323  59.9721451  30.2439995  16.6564007  58.4707222  30.4353352
  64.0225983  51.4764023  51.0926476  63.4917107  50.7626114  51.4460526
  64.7909164  51.5083580  51.6626434  71.0373917  32.8300743  84.9404755
  70.9669571  33.6972389  85.3395920  71.9308319  32.5480270  85.1365280
  68.2515335  41.8488426   6.6888738  69.0787506  41.8289146   7.1700697
  68.0659866  40.9303780   6.4933729  40.0355530   9.1325064   3.5036929
  40.8790054   9.5850782   3.5039098  39.9208565   8.8401279   2.5994854
  46.8451233  57.1081467  42.7279892  46.3185501  56.8956947  41.9573936
  46.2641983  56.9377975  43.4694328  19.2686996  26.8305435   0.8558403
  18.8038635  26.2297592   1.4382662  18.5944862  27.4372616   0.5499622
  65.0484238  37.5088081  42.0593529  65.4758148  37.2575340  42.8781509
  65.6866684  37.2920990  41.3797073  56.5249062  70.9446106  14.0368700
  56.9908676  70.3484192  13.4506378  55.6009674  70.7252731  13.9166269
   1.5015212  29.6057110   5.5557294   0.7537602  29.0895863   5.8568926
   1.1284267  30.4570427   5.3271093  29.8337765  19.6156921  87.8217392
  30.3821812  19.7918587  87.0572433  29.9745941  18.6875629  88.0087585
  26.4747353  52.5635834  74.6419601  26.4996986  51.9176674  73.9359818
  26.8139973  53.3657112  74.2448120  13.6279869  35.5486145  87.0179214
  13.8452387  34.6648788  86.7211990  12.7658253  35.4596977  87.4241333
  69.1833191  53.3706322   4.1559405  69.6898575  53.8064919   3.4706144
  69.5800781  53.6698647   4.9740324  47.8521194  50.6044693   3.8577518
  47.0318336  50.9571953   4.2026429  47.6109085  49.7552109   3.4878738
  66.1724319  35.3605576  16.4200096  67.0868530  35.1409264  16.2415886
  65.8287354  34.5968628  16.8835564   8.7055368  14.5938463  41.9250145
   9.5564280  14.3048449  42.2546997   8.6297932  14.1821346  41.0642052
  17.9321613  55.8469582  60.4616508  17.7025757  54.9338951  60.6343918
  17.3686409  56.1015091  59.7309799  41.4263611  55.7546463  56.2787323
  40.6486931  55.2750397  56.5641060  41.7094154  55.3012314  55.4846764
   9.9028282  16.0117455   1.4766513  10.6687851  16.4606342   1.8344789
   9.4798203  16.6660538   0.9206135   1.1795701   7.0246086  30.7505112
   1.4162221   7.8405585  31.1914806   0.4610151   7.2675724  30.1666622
  80.1253967  29.3949890  86.9393387  79.8389435  28.4904575  87.0658340
  80.9927902  29.3181763  86.5419083  65.3215790  48.5415573  58.5430374
  66.1522369  48.0805664  58.6601830  65.3441620  48.8493195  57.6369438
  84.4625626  31.7986565  26.2632179  84.6800079  31.5985165  27.1736546
  84.9856415  32.5732536  26.0567551  68.2498703  11.0768833  38.8282738
  68.7780991  11.0005693  39.6228676  68.8384323  10.8085470  38.1227112
   4.8674378  46.5570869  37.0017090   5.4616270  47.0936890  36.4770889
   4.0929379  47.1062775  37.1232452  25.0213585  50.4737129   4.2073312
  24.3240356  50.1227150   3.6534607  25.7345123  50.6691856   3.5995204
  27.9791603   4.0177989  62.7144966  27.0391598   4.1085186  62.5582924
  28.2299671   4.8340716  63.1469650   6.6417685  41.4188995  70.0967865
   6.9225111  42.1131287  70.6929932   7.4353800  41.1782532  69.6187744
  20.5286713  33.1103783  77.0071564  20.0530529  33.3924751  77.7884674
  20.1578369  32.2532082  76.7974701  73.9428864  54.5695267   2.2041118
  73.7247086  53.6543694   2.3805120  74.1653366  54.9322815   3.0615256
  56.0250168  49.6097908  19.7534294  56.3018379  49.0027466  19.0670643
  56.3077431  50.4693527  19.4412556  33.1635017  36.4550819  26.0453739
  33.5651741  35.6644363  25.6851368  33.7012253  36.6711159  26.8072224
  66.0961685  30.8874760  31.0193863  65.6236267  31.7148800  31.1106758
  65.7876587  30.5258617  30.1885509  48.4405060  61.0672493  29.1226330
  48.0160255  60.5997658  29.8420124  47.7309952  61.2575531  28.5089474
  82.8934250  29.9031391  56.1333313  83.3776703  29.4662075  56.8339233
  82.8688736  29.2618618  55.4231224   4.3872042  34.1832581  54.9744072
   3.8148198  34.8908043  55.2710342   5.2461882  34.4028931  55.3351555
  35.5073929  29.4017220   9.6646729  36.3132248  29.7903061   9.3242798
  34.8056221  29.8973331   9.2426281  66.3517685  59.9789543  20.2195415
  66.6651382  59.9709663  21.1239567  66.6577835  60.8147697  19.8674030
  78.6272888  54.7659569  38.0101585  77.9754105  55.4663124  38.0380936
  78.2551422  54.1160011  37.4140854  27.0154972  11.0293331  80.4839859
  26.2316360  10.8092690  79.9806290  27.6971207  10.4600458  80.1268616
  25.7645988  21.0117950  51.2893448  25.1554127  21.7453098  51.2051926
  25.5188675  20.5895977  52.1125069  27.7874527  17.1479797  13.2773256
  27.5168514  17.9278278  12.7927179  28.6241951  17.3907051  13.6737814
   7.0876927   8.1621618  75.3619766   7.0405402   9.1131849  75.2641907
   7.7695279   8.0224676  76.0191040  79.7877197  62.0683403  74.8557358
  80.4771118  62.4643745  75.3887787  79.1362610  62.7620430  74.7527847
  30.7313423  60.6231689  62.4604225  31.4035759  60.6011543  61.7793541
  30.0081177  61.1117554  62.0674019  42.5683403  15.6262960  86.0051346
  41.7872658  15.6229076  85.4518280  42.5805664  16.4995804  86.3968735
  57.2721863  22.4369202  33.5215569  57.1394768  23.2401848  34.0249290
  57.6646996  21.8257141  34.1449318  12.3992910  20.0964699  20.1335754
  13.1608114  19.8071747  20.6361961  11.6596279  19.9768143  20.7292366
  47.2181473  55.6867294   5.6608934  46.7886925  55.0851784   6.2691145
  46.6038475  55.7688522   4.9314270  59.7243996  42.2281609  54.2089348
  59.7804413  42.3271713  53.2585220  60.2520294  42.9473610  54.5561943
   0.1952992  14.1199217  33.8816452  -0.5193114  14.6097059  34.2886772
   0.9470912  14.2730770  34.4539948  68.2273178  58.7401924  52.5202560
  68.4508438  58.7142906  51.5898819  67.3693237  58.3190269  52.5722542
  11.5454397  54.4182320  23.8096104  11.6597548  55.3465233  24.0131645
  11.0031481  54.0816231  24.5229454  64.1673813  31.4837570  28.7561417
  64.4455566  30.6173763  28.4591045  64.6122208  32.0931587  28.1670971
  13.3366251  60.7727966  26.6617832  13.2287807  60.7500420  25.7109509
  13.9895525  61.4563255  26.8124847  59.1805344  26.5162354  23.7744789
  58.8743210  27.4190331  23.6883373  59.7600212  26.3871975  23.0236263
  31.4166965   2.5200763   7.8713350  31.9039993   1.9923478   8.5040045
  31.9102440   2.4326160   7.0558639   1.7681782  59.4208221  31.4992790
   2.4681232  59.4069939  32.1520538   1.2985168  58.5977554  31.6342316
  68.4458389  63.6151009  65.8293152  68.8942719  63.8591003  66.6390076
  67.8941650  62.8726044  66.0754471  81.2127991  14.2757988   7.6017542
  80.4180145  14.4404011   7.0943556  80.9211731  14.2850885   8.5134020
  47.4853325  48.2592087  15.2958813  47.2098198  47.3743324  15.5352983
  47.9609947  48.5777550  16.0630226  26.8116455  13.9615631  37.3266029
  26.4403038  13.8304834  38.1990471  26.6435680  14.8833179  37.1307716
  40.9336166  70.0728912  28.4528866  40.1253395  70.5008163  28.7353878
  41.5164452  70.1386185  29.2093410  23.2641068  66.7839966   7.3377333
  23.7387486  66.0488968   6.9496913  23.8747139  67.1533890   7.9756522
  81.6565857  35.4542160  68.9083252  82.0404053  35.1543961  69.7323532
  82.4038467  35.5548706  68.3186646  82.4653244  45.0116692  19.1586475
  83.3498154  44.9783401  19.5230656  81.8908005  44.8699646  19.9110241
  36.0333023  38.1565552   8.0475664  35.7960930  38.9385376   8.5460300
  35.7379494  37.4267502   8.5919819   1.0092725  16.2759876   4.7784677
   0.1261775  15.9658470   4.5779982   1.2938355  15.7308092   5.5119772
  55.9330177  58.4820938  78.0450287  55.1816292  59.0629158  77.9254913
  55.7437553  57.7277031  77.4870758  65.6205826  17.8454552  21.3442631
  65.1714935  17.8512802  20.4989738  65.2133026  17.1261463  21.8269119
  43.7606659  41.7245560  83.4511642  43.7834320  40.7679176  83.4748459
  43.6065483  41.9830360  84.3598251  83.6918411  14.8829508  40.2192993
  84.2776566  15.1880121  39.5264854  83.7490768  15.5577660  40.8957443
  73.3162994  50.7421227  45.5315628  72.9715805  49.8679733  45.7139473
  72.8696823  51.0131683  44.7294998  47.8482399  56.3327293  74.3036499
  47.2426262  55.6481857  74.0192795  48.7127876  55.9255638  74.2488022
  50.0125046  39.7075005  83.2656555  49.2349777  39.2359314  83.5644913
  50.6991577  39.4518356  83.8815842  15.2769508  37.0244446   8.2469835
  15.9524632  36.8282394   7.5978160  15.0802946  37.9519081   8.1151905
  77.5122833  55.1048012  52.6737404  77.5414810  54.7499886  51.7852097
  77.7457047  54.3652153  53.2347679  30.2503033  33.9276085  79.1023865
  29.7337379  33.9873047  79.9060211  31.1509533  34.0878601  79.3841248
  81.0064087  46.3475647  51.1438103  81.9606857  46.3706779  51.0726776
  80.7205658  45.8575134  50.3728561  75.6990128  71.0275879  34.2142830
  76.2094116  70.3770065  33.7321281  74.9020233  71.1388626  33.6959610
  12.5395832  22.5893097  65.3960266  12.6646328  21.7041588  65.7382278
  11.6869822  22.8596592  65.7369308  59.0409813  38.6672516  43.8165512
  58.9625702  39.6106720  43.6749725  58.2175713  38.4188576  44.2367020
  16.8768196  42.7925720  37.8244286  17.6370335  42.8366280  38.4043999
  16.2434940  43.3957138  38.2134666   7.5422158  28.5333538  19.8641453
   7.6794395  29.0139790  19.0478115   7.0336204  29.1315079  20.4116611
  35.1105804  69.0344391  72.4603729  35.7115707  68.9176102  73.1961670
  34.3440704  68.5098038  72.6915741   4.5023222   7.4257607  76.8960571
   3.8874276   8.1334820  76.7030106   5.3573885   7.7769418  76.6475296
  81.0166168   7.9816575  21.0210609  81.5456467   8.5297127  21.6007061
  81.6562424   7.5125918  20.4852600  62.5483284  49.9957428  55.8915215
  62.4400215  50.9256058  55.6918831  63.4865990  49.8364639  55.7890015
   8.5738010  64.5270157  72.0684509   9.4386749  64.9363861  72.0431900
   8.6343498  63.8007812  71.4478455  26.1838017  31.5181408   6.9454532
  25.4831924  32.0054092   7.3789840  25.7379551  30.7868538   6.5180502
  75.1450882  21.3704929  49.4156609  75.5348358  20.5531998  49.1052322
  75.6216888  22.0560608  48.9476013  30.3429222  43.5924530  81.4022751
  31.1229286  43.2540741  80.9625931  29.6643276  42.9424019  81.2201309
  16.0618973  30.7452793  66.5974121  16.8915348  30.8299217  67.0672760
  15.5910788  30.0554600  67.0650787  18.2188435   6.0742855  70.7732315
  17.8436756   6.9120045  70.5017395  17.4615993   5.5365672  71.0049057
  22.8247623   1.8497338  66.3855972  22.8866386   1.5775321  67.3011856
  23.6070919   1.4832957  65.9733887  21.0458660   2.7712512   6.8145185
  20.4509048   2.7567513   7.5642142  20.4902058   2.5621185   6.0636945
  84.6931152  44.8082924   6.1435065  83.7513504  44.9641571   6.2143598
  84.9466248  45.2400169   5.3276749  68.3211212   2.1410329  17.6908550
  68.9088287   2.7402639  18.1510296  67.8331833   1.7019758  18.3875446
  11.7411060  46.9948921  66.1215744  12.0212412  46.1253166  65.8359146
  12.4472017  47.5777283  65.8423615  15.5711889  67.9806900  81.3344345
  16.2929115  68.1102982  80.7191696  15.8228893  68.4844742  82.1084366
   1.5554103  63.4687157   9.5343170   0.7695776  62.9241333   9.4881725
   2.2732568  62.8447304   9.6418915  16.2544060  26.7154827  82.2556305
  16.8709354  26.1561947  82.7282028  16.6190548  26.7816677  81.3730927
  50.9194717  39.1143684  18.4753113  51.1991653  39.9612732  18.1278133
  50.9198303  39.2332573  19.4251003   0.0249067   5.4242315  14.6928596
   0.4803416   5.1438599  13.8990068   0.6992224   5.4139504  15.3721418
  18.4551640  38.6032486  23.2128010  18.6571465  37.8533363  23.7723274
  18.8070736  39.3570328  23.6862965  12.7459764  15.9274101  56.3590050
  12.2240982  15.8774042  57.1598663  13.6418371  15.7495518  56.6454201
  13.2442665  39.7905006   8.2770605  13.1147785  40.0244446   9.1961555
  14.1926641  39.8254242   8.1523457  10.4292307  19.7493210  62.4997025
  10.5115404  19.5903549  63.4400139  10.1025238  20.6467972  62.4362106
  63.1847649  29.3257008  51.3252869  63.9832611  29.5375156  51.8087883
  62.7064819  30.1535130  51.2783432  12.2675295  26.1595345  43.6937370
  13.1235790  25.9734726  43.3080025  11.9205666  26.8815727  43.1697998
  51.3096390  21.1399422  34.6831398  50.7892113  21.0567074  33.8841019
  52.0893364  20.6099930  34.5174332  58.5998116  43.1753082  61.1847992
  58.9593887  42.3052635  61.3578835  59.0129013  43.4464493  60.3650017
  12.7895699  43.8411369  18.9110107  12.3298092  43.2966003  19.5500183
  13.0433788  43.2330818  18.2166882  21.9488392   7.2498755  17.0533428
  21.6493568   6.3984036  17.3719921  21.8095112   7.2139859  16.1070175
  85.9661026  63.8033676  40.9062691  85.4649506  63.4834251  41.6564140
  86.2076340  63.0122452  40.4245872   2.2168384  67.6155319  65.8937073
   2.0808537  68.0629501  66.7289047   2.8547869  66.9295959  66.0905380
  81.3017502  13.9368610  69.1235733  80.6492996  13.3001308  68.8318253
  82.0831451  13.4139662  69.3031235  13.6195812  49.1654663  68.8430557
  14.5675268  49.2153549  68.9661102  13.4615078  48.2638397  68.5632172
  58.6522560  36.2040367  22.4564075  57.7750473  35.8244209  22.4051838
  59.0426559  35.8011894  23.2319927  29.5425110  29.4513721  21.5137253
  29.3029308  29.1886024  22.4024239  29.6768227  30.3973293  21.5716610
  31.0600929  41.4401627   7.8736243  30.6047230  40.7503281   7.3909249
  30.5023117  41.6094322   8.6328735  19.0391884   1.8428677  16.2129974
  19.5441360   1.2846484  16.8043098  19.1266193   2.7222519  16.5807896
  36.1856384  20.7218018  52.0217133  36.4034119  21.1356583  51.1865311
  36.7703476  21.1381226  52.6549759   4.1501756  12.6775208  31.0177555
   3.1955428  12.6504478  30.9531384   4.4546456  12.1215219  30.3005409
  10.1594419  20.6549778  50.4838104  10.0214119  21.1921310  51.2639694
  10.1142445  21.2744083  49.7554626  21.0280361  11.2840271  69.6813812
  21.7566490  11.6572428  70.1774292  21.3914776  11.1157246  68.8120041
  73.9887390   4.7321072   4.0675740  73.4200058   4.0904975   4.4931402
  74.4041748   4.2478857   3.3540070  43.2261162  63.6377525  55.4190674
  43.1317139  63.4289322  54.4897041  44.1291466  63.9432335  55.5053825
  51.5134964  38.2859840   4.1369200  51.1897888  37.7018051   4.8226166
  50.8782883  39.0016212   4.1123838  64.4749069  17.3868389   3.0275145
  63.7820091  17.4267254   3.6867056  64.3161240  18.1462460   2.4668725
  56.0619621  17.6448631  33.8733025  56.9612694  17.4252224  34.1166954
  56.1537819  18.3233376  33.2043686  13.7537689  63.9759140  31.4737091
  13.3921509  63.0993729  31.3427963  14.0088253  63.9944801  32.3961143
  32.3132477   2.1016572  72.9276047  32.4871979   1.1813631  72.7300339
  32.4145546   2.5501516  72.0880661  12.4786882  62.5029755   0.4922021
  11.9996767  62.9602890  -0.1989157  13.1188469  63.1428452   0.8036399
  75.0502625  22.4616852  71.3876038  74.7268066  23.3596954  71.3155746
  76.0033035  22.5503750  71.3964767   0.7560616  29.5307961  26.1784058
   0.3893194  28.7284985  26.5499611   0.3676960  30.2346897  26.6979599
  55.4170914   6.0602188  82.5319672  55.5930634   5.2010212  82.9154282
  56.1721458   6.5930328  82.7814407   5.2729115  16.2008324  45.0929832
   5.0501261  17.0314369  44.6726341   5.3832617  15.5869551  44.3668938
  58.7107201  58.2958832  32.5917473  59.1580544  58.3415642  31.7467403
  58.1537552  57.5201683  32.5262718  57.1014977  30.6617241   0.3023335
  57.4025154  31.5694389   0.3432480  57.5909996  30.2156734   0.9934627
  47.0970497  13.3120451  56.6218719  46.2864647  13.8075285  56.7388382
  47.4126511  13.5700941  55.7558250  79.4452896  64.5974121  65.0994415
  78.5466309  64.5364456  64.7755203  79.9048004  63.8770752  64.6679459
  12.3945646   5.5711212  31.0057697  12.1232920   6.4865742  31.0735130
  11.6903362   5.0806355  31.4297009  54.2319641  44.6916046  83.1356659
  55.0290298  44.1809464  83.2775879  54.3494987  45.0835114  82.2703171
  80.6154785  10.0250225  60.5227737  80.5171890  10.5708389  61.3029366
  80.9854355  10.6129417  59.8642006  58.8231354  10.1951799  44.3200493
  59.0683670  11.0733070  44.6115761  59.6091385   9.6675730  44.4616966
  14.5362053  10.5934172  35.3252640  14.3779316  10.2407198  34.4496002
  14.0746460   9.9941740  35.9118652  65.3823776  59.2286530  10.2219706
  64.5707169  59.5120430   9.8011131  66.0392151  59.2685966   9.5268431
  35.5836525  40.8142891  21.9104996  35.6100502  39.9288521  22.2731762
  34.7848587  40.8335152  21.3834400  75.1600113  25.9892921  12.8392401
  75.9557648  25.6703148  13.2649908  75.0201492  26.8590050  13.2137680
  78.7463837   1.7165151  56.7470474  79.0988693   2.6056345  56.7088966
  77.8054276   1.8371693  56.8745918  23.4363251   3.1137226  18.8510761
  24.1969490   3.2627487  18.2894058  23.7983761   2.7208593  19.6453114
  57.0114136  53.1855011  41.9766808  57.8502617  52.7845650  42.2043152
  56.5833626  53.3398590  42.8188095  12.7088423  13.0450191  82.9071579
  12.0120764  13.3136921  83.5059586  12.5411377  13.5417242  82.1062851
  32.0034180  20.9218292   7.0316043  32.8716736  21.1184692   6.6799040
  31.4800587  20.6930275   6.2635040  42.9213219  55.1422424  58.7168427
  42.6534882  55.5159111  57.8772774  42.4921455  54.2871552  58.7462502
  12.4436913   9.8066292  84.6438828  13.0659885   9.2623692  85.1263351
  12.1564522   9.2546701  83.9165192  23.7796173  62.7267876  30.8577881
  23.2617779  62.4552536  31.6156425  23.2488289  63.4014473  30.4343147
  48.8704987  41.4101830  16.5918751  49.4820366  41.4703941  17.3257885
  49.4206161  41.5001411  15.8137283  64.0184021  50.5992661  42.9239883
  64.6993332  50.0695076  42.5093575  64.0932007  50.3980751  43.8568115
  36.9958076  19.2271442  15.5665035  36.9261742  19.3231525  16.5163269
  37.8328972  19.6352615  15.3452492  27.4918633  50.3722382  18.5618267
  27.0551243  50.4583931  19.4092159  28.4188347  50.5127182  18.7547493
  66.3936234  51.2528763  10.4459429  65.8459930  51.4548111   9.6872902
  67.1567612  50.8069191  10.0785637   0.0906840  43.2812195  82.2561340
   1.0057307  43.4260521  82.4968491   0.0544761  42.3610382  81.9950104
  18.2566471   6.6892157  16.2085495  18.1715317   7.5806193  16.5467587
  17.4943504   6.5745306  15.6411133   5.9716716  44.3498306  36.0108566
   5.3915048  43.8219185  35.4622726   5.4171343  45.0616875  36.3302002
   6.8175073  49.0915985  67.8081741   7.5653558  49.4551468  67.3340530
   6.1124392  49.0676575  67.1612244  34.3658333  16.6059589  75.9539871
  34.2364502  15.7222834  76.2983856  35.3096542  16.6703339  75.8080597
  62.8272324  16.3841953  13.0601606  62.3246880  15.5830288  13.2078524
  63.7282867  16.1452122  13.2774582  63.5391235  54.1574249  59.8296547
  63.0977478  54.5762596  60.5685692  64.2200012  54.7795219  59.5734749
  35.7933311  29.0150013  20.7191772  36.4932213  29.6139202  20.4590263
  34.9972801  29.5450249  20.6790123  14.1411648  58.0359535  26.5551987
  13.8776503  58.9314232  26.7671604  13.3247395  57.5364571  26.5688019
  13.7472105  40.4605370  28.0829430  13.3775320  41.1133499  28.6774216
  14.5951262  40.8231163  27.8264141  44.4977837  33.7686920  83.9088745
  44.3804665  34.6841431  84.1626892  44.7117615  33.8041687  82.9765701
  20.9700012  49.2605019  79.6210556  20.6853256  48.3561401  79.4894485
  21.7308254  49.3578491  79.0484314  19.3891354  52.2034111  62.7128067
  20.2679100  52.5531158  62.8600883  19.3708630  51.3848915  63.2087135
  56.2625618  47.9261551  66.2656860  56.9186134  48.6110497  66.1363068
  55.4839249  48.2519836  65.8142548  12.5984974   8.6822958  11.9263277
  12.0517359   7.8977647  11.9686861  13.2550125   8.5539446  12.6109781
  62.9077415   7.8593512   8.9037304  63.6658707   7.7781224   8.3250456
  63.2083511   8.4260187   9.6141901  28.6238995  12.5666647  60.9081726
  29.2824955  12.3888311  60.2367134  28.4318771  13.4996815  60.8141594
  14.9555807  65.8610916  44.4215660  14.3450975  66.3679352  43.8861732
  14.4065485  65.2118073  44.8611488  59.6075592  41.4124146  43.5609512
  59.7453423  42.3427391  43.7391129  60.1427841  41.2348404  42.7874947
  72.3517914  55.8791542  43.8843651  72.2946930  55.1948547  44.5512314
  72.6761017  55.4277039  43.1050987  56.9601898  67.4990692   4.2347078
  57.7143364  67.1731873   3.7434857  57.3408813  68.0361633   4.9295664
  66.5970459  46.0772972  87.6527023  65.6709213  45.8354225  87.6482468
  66.6998367  46.6171227  88.4364471  13.9626608  25.7133789  69.5961685
  14.8774605  25.4758396  69.7476578  13.7651081  26.3536549  70.2797318
  38.1027832  12.8344822  83.6561890  38.8143845  13.4355145  83.8766708
  37.3111153  13.3695316  83.7129211  69.9292374  52.8940239  54.5059395
  69.3075409  52.7935753  53.7850838  70.1369324  53.8283806  54.5146484
  40.1983147  68.9086380  52.8503876  40.8112030  68.3620682  52.3585892
  39.9119644  69.5719604  52.2224998  24.1799278   2.4584358  12.3785219
  24.6487312   3.2352767  12.0736065  23.7032433   2.1487091  11.6084089
   0.7469579  62.2054482   6.5129180   0.9843612  61.2836647   6.6138620
  -0.1994744  62.2259254   6.6546154  30.1188602  54.6453896  25.6429005
  30.5859451  54.0044708  26.1788883  29.3885555  54.1551361  25.2653542
  11.5092831   6.5035691  44.2820625  10.8206015   5.8540897  44.4239349
  12.3252478   6.0152555  44.3915291  64.8509674   8.5173559  50.4942665
  64.0195618   8.5333567  50.0201988  64.8571854   9.3334112  50.9945145
  44.5091934  58.0557060  35.0472794  43.9709549  58.8133011  35.2765808
  45.1896973  58.4098320  34.4747925  31.8253136  63.5849419  70.4531479
  32.4752197  63.5591431  69.7508774  32.2624474  64.0490952  71.1670914
  39.6917686  46.1849098  88.4873734  39.0371628  46.5334587  89.0925446
  39.2049561  46.0119934  87.6815491   4.0498905  51.7660980  29.3537483
   3.0931220  51.7722816  29.3256836   4.2653933  51.1299171  30.0357056
  35.4338799   4.1360264  62.3996544  36.0972061   3.8984532  63.0475616
  35.7473907   3.7482004  61.5826263  45.0152435  12.0610361   5.2770305
  45.9090157  11.7252684   5.2087126  45.1044044  13.0061369   5.1542768
  85.2573318  65.4043045  52.3672218  84.8225250  66.0742569  52.8947945
  84.5971222  64.7199478  52.2575836  12.1049833  53.4438171  55.3584023
  12.8041821  53.0987854  55.9136543  12.3669090  53.2072182  54.4686546
   6.6489153   6.4835029   6.8221531   6.7479858   5.5445771   6.6645594
   6.8181777   6.5883899   7.7584119  46.2683449  44.3975792  29.9323692
  45.6806641  44.0001030  29.2898159  45.8053169  44.3117867  30.7657223
  57.3527031  15.8534079  28.2901783  57.6488991  15.5585432  27.4290428
  58.0854874  15.6597481  28.8747730  81.4396515   5.3045092  79.8628998
  80.6379089   4.7936659  79.9746246  82.0351181   4.9648480  80.5309372
  83.1881485  26.5192947  64.8476105  84.0240021  26.0555000  64.7978210
  83.3756638  27.2947693  65.3764877  33.3798676  47.0246887  19.3054981
  32.9272804  46.4436150  19.9168491  33.6462746  47.7732811  19.8392277
  10.1125889  68.5824432  23.1706181  10.4021997  67.7393951  23.5193729
   9.2399654  68.4086227  22.8177052  29.6884823  51.9989090  28.6406345
  30.2543106  52.6194687  29.0999584  29.5251179  51.3053436  29.2797813
  24.1771793  67.6747284  16.6959038  23.6355286  67.7719193  17.4791031
  24.9203243  68.2594223  16.8445702  49.1380424  11.7493515  15.2547674
  49.4481735  11.1723328  14.5568419  48.2294540  11.4846354  15.3983746
  54.8060608  42.2985573  70.2715988  55.4534073  42.0496712  70.9313126
  55.2588615  42.9370384  69.7206497  44.4179077  56.6502075  64.1949692
  44.9941254  56.1256866  63.6390190  44.7529564  56.5157394  65.0814743
  82.1749954  28.2693157  81.8619232  82.0729218  29.0852985  82.3518066
  83.0922470  28.2673626  81.5883026  11.6515036  12.7501698  76.0678635
  11.0257931  13.4280872  76.3230972  12.2554426  13.1936760  75.4722214
   4.5397034  43.1864815  42.7600937   5.2785335  43.6893044  42.4172630
   4.8510385  42.8444557  43.5981407  40.4150505   3.2215381  38.4592018
  40.8202515   3.9678512  38.9008598  40.8433228   3.1880269  37.6038132
  23.3889160  46.0563316  74.9725418  24.3240223  45.9325104  74.8098297
  23.2275200  45.6022224  75.7995605  44.1888161   1.1885306  33.7123985
  44.0740166   1.4598851  34.6231270  43.4479141   1.5807750  33.2504044
  78.9906769   8.5501242  39.8920517  78.6179962   7.6684704  39.8973999
  78.5906906   8.9838047  40.6458244  68.7881851  33.8248863  63.6358032
  69.1994476  33.9183044  62.7765198  69.5085983  33.5941734  64.2223282
  39.5917358  47.6471672  73.5682144  39.0538330  46.9832077  73.1368790
  40.0714264  48.0675201  72.8544693  33.6475258  66.1183243   7.8318563
  33.4869003  67.0536957   7.9563704  34.5697861  66.0649643   7.5812092
  73.5812531  48.5260391  31.1026745  74.5353622  48.4525375  31.1254139
  73.3304672  48.1313210  30.2674904  31.4396629  14.8807154   7.3229995
  32.2902603  14.6514397   6.9486294  31.5629120  15.7619896   7.6757007
  73.3806229  55.8631248  30.5598068  73.4346771  55.7546844  29.6103077
  73.5925217  56.7847252  30.7080727  81.3038330  29.0288734  28.0623798
  80.5289536  28.4757214  28.1615105  81.9234238  28.6913128  28.7092133
  52.1862679   5.0299339  55.5307770  51.7873573   5.8978267  55.5929451
  52.9734268   5.0887947  56.0722084   2.3115883  51.2485199  79.1817551
   2.6434412  52.1304932  79.3497543   3.0512869  50.7850838  78.7889404
  61.3103905  38.1970100  29.8290100  62.1822090  38.0362930  30.1900253
  61.0747452  37.3757668  29.3974266  65.4269562  36.0587425  12.8236055
  65.2408905  36.9976845  12.8244982  66.3636093  36.0003586  12.6351900
  81.9375763   3.5087762  74.5274658  82.1823654   4.1368580  73.8478928
  82.6407394   2.8593943  74.5179367   9.9318800  69.2038574   6.8325424
   9.8138256  68.2580948   6.7440448   9.3887720  69.4438019   7.5833359
  85.7476730  14.9612131  25.2416573  86.5650406  15.4410667  25.3753872
  85.3762817  14.8714638  26.1192932  18.2836895  13.5909834   0.8424676
  17.6427879  13.2203074   1.4491589  18.9390640  12.9015522   0.7356830
   1.9704725  57.4485245  54.4616928   2.6821351  57.7781868  53.9129791
   2.3271666  56.6583176  54.8673744  43.2277527  54.5545692  27.0348740
  43.6831665  55.1966286  27.5794773  43.8382339  54.3698997  26.3211231
  31.5294151  62.4759216  51.4558029  32.2184868  63.1190720  51.2891617
  31.0372257  62.8377304  52.1927376   4.0628910  17.4171600  63.7629814
   3.9442046  16.9926643  62.9133072   4.3729253  18.2973061  63.5497780
  50.8683052  54.4412994  47.4263039  51.5514717  55.0749626  47.2072411
  51.3370819  53.6152954  47.5454636  86.0163498  50.2173729  37.9010162
  85.3717041  49.7049408  37.4130898  86.7498093  50.3195457  37.2945290
  46.4599915  31.0170364  27.4900265  45.7646637  30.9291096  26.8380928
  46.7231369  30.1170502  27.6824131  14.2910061  18.0420914   4.1189613
  14.7969112  18.7707882   3.7593861  14.7447271  17.8126640   4.9299679
  51.0560226  42.1871262  83.4680481  50.3577271  42.8317261  83.5825043
  50.6306229  41.3434334  83.6211853  85.7680740   4.7943244  84.9535904
  85.3099670   4.9718442  85.7750854  86.5158463   5.3918109  84.9623947
  31.7588520  26.0935860  19.1446552  32.6500854  26.0498962  18.7982063
  31.3213749  25.3252602  18.7778854   4.0400386  20.9007301  77.1655045
   3.2849452  21.1251221  76.6217117   3.6951411  20.8818245  78.0582123
   8.1590281  21.6771011  59.8679962   7.5937085  21.3131371  59.1866913
   9.0429888  21.4145145  59.6113014  66.7207794  50.1927681   1.9643068
  66.0311737  50.1979179   2.6281230  67.5249252  50.3682213   2.4529672
  57.4812431  25.4493923   2.1978106  57.2258148  25.8772850   1.3805611
  58.1831245  24.8496723   1.9449687  16.1781063  38.2771835  74.0494003
  16.1957436  38.5182495  74.9755783  15.4639721  37.6435623  73.9803772
  32.1062469  34.9459839  30.7885895  32.1434250  35.0156326  31.7425289
  31.1983643  34.7076454  30.6010418   6.9516759  33.7640419  67.0185699
   7.4296379  34.5545769  67.2692490   6.5731564  33.9736328  66.1647415
  30.3356476   0.5202525  66.2918472  30.5611706   0.4351733  67.2182007
  30.6571655   1.3876002  66.0457458   5.1998167  34.5967941  64.9519730
   4.2463083  34.5253372  64.9078445   5.3875637  35.4858055  64.6509018
  32.3881607  70.1383133  67.9036179  32.3370819  70.4318695  68.8132553
  32.7839241  70.8740387  67.4363785  22.9503040  -0.0306113  22.2523022
  23.5222168   0.4451365  22.8546410  22.0961514  -0.0326831  22.6843300
  26.0278168   2.0789368  34.4268036  25.1539078   2.4635510  34.3590736
  26.1794605   1.6768087  33.5715065   0.8186941  35.0875206  45.8458862
  -0.0649876  35.4390717  45.9542961   1.3045851  35.7899933  45.4138260
   7.8362837  12.5279493  28.4426289   7.1366200  12.2420683  29.0299740
   7.7434735  13.4798994  28.4050827   6.0656443  37.0800667  29.8044052
   6.5279636  36.3435211  29.4044113   5.5767655  36.6907349  30.5294228
  72.5619125  17.4702091  21.7017727  71.7964554  17.9353352  22.0393429
  73.0588150  18.1380386  21.2292023  77.4825134  28.4186783  25.5759506
  78.3452301  28.0915661  25.3210850  76.9464493  27.6314240  25.6713314
  50.7915840  69.3138199  29.3815746  51.0427933  69.6888351  28.5374813
  49.9189987  68.9499512  29.2318325  66.6431503  69.1929474  69.6405258
  67.5319748  69.4546432  69.8808060  66.4857101  69.6232452  68.8001175
  75.7090225  46.6031799  80.9039078  75.2276154  45.9376144  80.4124756
  76.5104980  46.1611214  81.1839981  32.4574051   3.2744992  38.8870735
  32.1152077   3.9074898  39.5183067  33.2005768   3.7198610  38.4801598
  15.6809473  51.3099060  71.3807220  15.0325632  51.9755173  71.6104813
  15.8346891  51.4383316  70.4447174  48.0779686  39.7589302  12.9755526
  47.8168793  39.5262947  13.8665886  48.9452782  40.1515350  13.0748940
  63.2189674  41.0786324  59.1915054  63.6400070  40.6587257  59.9415970
  62.8096352  40.3581810  58.7123108  51.4718094  12.0059452  79.3353882
  52.2598839  12.5043955  79.5515289  50.9300194  12.0612679  80.1225586
  74.9007339  52.5760689  70.6863327  74.5894623  53.3318329  70.1881714
  74.5161285  51.8209419  70.2412491  63.2547264  23.1707230  77.3147507
  63.9481125  23.5997410  76.8133698  63.7197685  22.6503601  77.9698792
  59.2774506   8.9610376  28.9374275  60.0560188   8.6795292  29.4178581
  59.6215439   9.3900480  28.1539841  64.7685013  39.4951897  73.7187500
  63.8298492  39.6809616  73.6932983  65.1665573  40.3131714  74.0165482
  82.1027222  50.0212364  61.6914978  81.6051712  49.3039818  61.2987976
  81.4410629  50.6729126  61.9233589  56.8566551  21.5455608  14.4629002
  56.8443031  21.8322906  15.3760624  57.3297272  20.7135983  14.4794703
  42.3756294  51.9680405   9.2816162  43.2015724  52.4107056   9.0864391
  41.7980309  52.6650276   9.5927763  28.5458202  67.8536758  68.5381393
  27.8745003  67.2219238  68.7959137  28.0537395  68.6273804  68.2634277
  52.4949112  38.0393791  31.2308884  53.4074898  37.7817650  31.3615189
  52.5144310  38.6082344  30.4613075  29.3772030  47.5214577  77.0276947
  29.5893402  48.4368324  77.2102280  29.7936172  47.0329132  77.7377319
  74.6674271  50.7717552  52.9020691  74.6064606  51.5127373  52.2991905
  74.0838928  51.0024490  53.6249046  15.3291788  53.6335030  69.0898514
  16.1893635  53.4138794  68.7319641  14.9408875  54.2177696  68.4386215
  80.7238541  13.8148108  55.4513855  80.5563049  13.9438715  54.5178413
  80.1580200  13.0829935  55.6973534  12.1533823  41.8168106  29.7009735
  11.5311155  41.0941162  29.7830200  11.6087971  42.5819473  29.5159855
  73.4509201   7.1019354  31.5695839  72.5941086   6.8743396  31.2086010
  73.8660126   6.2587323  31.7510738  81.1697998  56.3716011  43.4851036
  81.7356873  55.7226105  43.0670013  80.5755081  55.8556595  44.0299492
  48.4810028  23.8787422  61.8835068  48.5458946  22.9247532  61.9274101
  49.0888214  24.1912441  62.5536804  58.6371536  68.4156494  60.4953651
  59.0079651  69.1836243  60.0606880  59.0193863  68.4292068  61.3728294
  56.4021568  45.0050278  19.4949036  55.8480492  44.5182076  20.1049881
  56.9049873  44.3308563  19.0378571  71.3087234  38.4012146   0.9962951
  72.1448669  38.6062508   0.5778847  70.9276810  39.2550659   1.2011770
  36.7225189   8.8205538  70.4989471  36.2073402   8.9597292  71.2935867
  36.8969498   7.8794403  70.4883499  12.9654284  45.4208450  15.1320238
  13.0161915  45.5899315  16.0728016  12.4096947  44.6450386  15.0577536
  79.3318405  29.5958786  53.9163208  79.7320786  30.1395569  54.5948868
  78.7888947  28.9721661  54.3984299  24.5034962  44.1577187  18.2908459
  23.5574875  44.0811005  18.1666336  24.6484947  43.8889542  19.1980247
  80.1127014  22.8288994  14.0401287  79.5299911  22.9402447  14.7913132
  79.5261612  22.6374435  13.3083162  77.3012772  49.2705879  64.6977921
  76.8558273  49.8314934  65.3327637  77.2188187  48.3878593  65.0586472
   4.8432627  34.9375458  34.0036736   4.2506857  34.2268639  34.2486534
   4.7269368  35.5939255  34.6906013  63.4590454  28.5207195  68.7491684
  63.5572090  27.7450809  68.1969223  63.3177299  28.1718102  69.6292343
  53.4519424  19.5612679  34.3171425  53.9886627  19.4108906  33.5389748
  54.0393181  19.3823662  35.0514565  10.0082283  40.5757065  74.4343948
   9.1106863  40.5678139  74.1018448  10.0829811  39.7671585  74.9412384
  49.1006889  34.2076874   6.4899192  48.8596611  34.9498558   7.0442863
  49.3421288  33.5165634   7.1065927  64.2945251   4.3035002  61.5470581
  63.7992592   3.5090382  61.3476257  63.7666550   5.0130711  61.1808701
  12.0405512  30.2207088  19.0197926  11.5700836  29.4016285  18.8648663
  11.6098948  30.8561325  18.4479504   6.0603909  48.3705254   3.6572447
   6.9619288  48.1585426   3.4153242   5.5238905  47.8889694   3.0275600
  40.4678421  34.2454109  16.9689808  40.5208015  34.9733391  17.5882912
  41.1696091  34.4142761  16.3403015  13.9537621  31.0472240  69.6199951
  13.6944857  30.5486259  70.3948517  14.5419960  30.4611530  69.1438293
  84.3735046  23.7556686   6.0483503  85.1246796  24.2783604   5.7677059
  84.4018173  23.7897568   7.0045242  83.9164429  51.8294449   7.6498117
  82.9844513  51.8343315   7.8679881  83.9403839  51.9360275   6.6988649
  75.8156586  12.5817537  48.5906105  76.7706757  12.5716763  48.5267715
  75.5276184  13.0392370  47.8006897  75.6714859  65.7032166  19.3902817
  75.3647232  66.3731537  20.0012779  75.2023926  64.9100418  19.6492310
  61.9997940  17.9112911  38.3282242  61.9375191  17.6931705  39.2581558
  61.9758759  17.0650177  37.8815918  47.6949005  30.8759422  14.1269226
  47.5810394  30.0094357  13.7364979  46.9589653  31.3881798  13.7918968
   2.3668911  17.3771172  19.5796490   3.1979215  17.8443794  19.6650047
   2.5934732  16.4578114  19.7202454  62.0204697  21.3980541  20.0021420
  61.7680206  20.4795933  20.0966454  62.8429108  21.3712978  19.5131569
  35.0678940  33.8594246  -0.1564566  34.1874619  33.8322067  -0.5310667
  34.9245758  33.9161186   0.7882538  65.1524811   0.3762867  53.2713356
  64.3819046   0.9415762  53.3251266  64.9187393  -0.3967911  53.7850914
  66.5955811  28.0209236  81.0871124  65.6859818  28.3094063  81.1622162
  66.8205261  27.7074261  81.9630966  36.5586014  17.7651958  52.7478294
  36.7118988  18.7098007  52.7690811  36.6997261  17.5201645  51.8333473
  31.8708782   1.8782094  19.1842213  32.5993500   1.7911363  18.5694199
  32.1543579   2.5567997  19.7969074  79.5360031  66.5396652  14.1299477
  80.0885925  65.9994125  14.6947565  79.9725571  67.3913193  14.1115580
  40.4461594  67.3040543  62.4629097  40.5371475  66.7612534  61.6797562
  39.5021896  67.4309845  62.5579987  31.6388645  41.0225563  12.1454039
  30.8957500  41.5500145  12.4383249  31.9021893  41.4198723  11.3153248
  16.6730328  21.2713814  20.0574436  15.9698744  21.1144428  19.4272289
  16.2328587  21.2921467  20.9071770  76.9388199  25.8933754  33.5999107
  76.9115677  25.0639782  33.1228447  76.0982971  26.3085823  33.4066238
  43.1400490  29.7579632   9.6152687  43.0718880  29.2400398  10.4173546
  43.6046295  29.1890011   9.0015268  58.6083107   4.5487394  83.4852066
  58.5139542   5.3982511  83.0543289  58.4702873   4.7346225  84.4139862
  45.1673660  60.3203239  80.5591583  44.5824089  61.0562859  80.3791046
  44.7955894  59.5917015  80.0620422  45.8844070  57.5105743  75.9774780
  45.2149162  56.8330078  75.8830490  46.6712875  57.1251335  75.5921402
  60.6109886  40.6900902  41.0076256  60.4456177  39.7489777  40.9511604
  61.3803291  40.8316078  40.4559669  53.5625687  16.2673569  46.7873230
  53.0221405  15.9018641  47.4877396  54.4461861  16.2918129  47.1545486
  81.2954865   5.0839057  15.3018436  81.8164520   5.2750893  16.0817604
  81.7452698   5.5456753  14.5942459  35.2139854  47.6464539  81.2252884
  34.7355881  48.2839470  81.7553558  36.1359863  47.8239975  81.4113693
   9.1896906  14.9962435  45.4979706   9.2938070  14.0503159  45.3949585
   8.5960817  15.2502270  44.7913208   9.7337666  69.7100754  60.8015747
   9.4380207  70.2005005  60.0345993   9.9156351  68.8313293  60.4684753
  51.8014107  16.3054142  64.4690781  51.1939201  15.6250458  64.1787567
  52.0862389  16.0179119  65.3365173  78.6505966  53.7944069  79.4221725
  78.2548752  54.6498909  79.2554703  79.5926895  53.9484825  79.3517685
  52.8432999  53.9375534  73.4453125  52.6555367  53.0279274  73.6767426
  53.4863396  53.8771210  72.7388611   2.5288134  33.1143875  34.0021172
   2.7862725  32.2391853  33.7123528   2.5709150  33.0724220  34.9574699
  75.2925110   8.4861784  75.3794098  74.7396851   8.6044121  76.1518326
  75.6268539   9.3623762  75.1877747  10.6487455   6.6368923  11.6263294
  10.1436901   6.4713392  12.4224091  10.9468365   5.7711101  11.3474112
   1.8969579  26.9957790  28.8661175   2.1605084  26.1236115  29.1595402
   2.7208204  27.4407330  28.6673794   6.8800507  43.5441284   7.5544167
   6.7887645  44.3104630   8.1206598   7.8248820  43.4046440   7.4906335
  68.6094818  11.7396450  29.0718403  68.4377060  12.3393850  29.7978134
  68.1760941  12.1434221  28.3199272  23.3631382  54.1093559  10.3796053
  22.6539669  54.6194916   9.9883671  23.7650566  54.7042236  11.0127134
   7.3141789   1.0292348   6.3605757   6.7075157   0.3956369   6.7436490
   7.0083108   1.1396358   5.4603047  42.1008759   6.5747075   6.5180449
  41.7916336   7.4768109   6.6005740  42.6797295   6.4501925   7.2701464
   4.1944766  36.0400620  20.5905628   3.9383938  36.3539429  21.4578171
   4.0028195  35.1024246  20.6089725  73.9736786   5.7402539  81.0257568
  74.1872482   5.3581462  81.8769989  73.2218094   5.2341437  80.7178879
  68.6850891  21.7282352  44.8531837  68.5091095  22.6595936  44.7196350
  69.4281387  21.5402565  44.2797966  41.0030136   9.6686783  11.2057896
  41.5415344  10.2989740  10.7272997  40.8418007   8.9652786  10.5769243
  45.6914368   8.8317862  61.2419891  46.2585144   8.2382240  60.7497101
  45.5678062   9.5820875  60.6606140  74.0675354  38.9143066  89.1162033
  74.7083817  39.6119003  89.2537384  74.5955734  38.1299553  88.9672012
  61.4329109  55.2620811   2.8090308  61.2217445  54.3940125   3.1526818
  60.6500168  55.5250816   2.3251538  14.2887402  61.6851006  39.7567825
  14.1489649  62.4391518  40.3295822  13.8540306  61.9226494  38.9377403
   3.2273445  47.6569595  78.7410583   3.6636035  47.4102058  79.5565491
   2.5949216  46.9553795  78.5859604  83.5727844  38.0469894  40.6696053
  83.3189087  37.1501541  40.4517326  82.7882767  38.5670166  40.4953995
   8.8908033  47.8978615  25.2170544   8.4104567  47.6215439  25.9975338
   9.4490795  47.1505661  25.0023327  25.8958702  62.0728493  22.9107285
  26.5238571  61.5776176  23.4366627  26.4324589  62.5242653  22.2591686
  45.3893242  38.6849823  22.1018028  44.7815666  38.7095490  22.8408947
  46.2573166  38.6866608  22.5053062   5.4322801  15.7359066  65.4133606
   6.0797520  16.3907661  65.1522598   4.7200570  15.8383207  64.7821045
  49.9505196   7.7574930  15.3171005  49.5339394   6.9059758  15.4498043
  49.2816925   8.2861013  14.8818150  45.5338707  16.4525642  15.9811478
  45.0595169  16.8473911  16.7128105  46.3782845  16.9032421  15.9720602
  48.2736816  28.8284664  75.3973083  47.6005783  28.5354252  76.0115509
  49.0194893  29.0589256  75.9512863  76.2344360  39.2079506  37.0752945
  76.8332291  39.8904572  37.3783875  76.2517395  38.5487480  37.7691154
  84.0986252  17.1339951  55.4705582  83.4442291  17.0268898  56.1608734
  83.9248428  16.4156551  54.8622627  55.7693443   8.7057552  53.0783463
  56.1186142   8.3455954  52.2631645  56.5432968   8.9822950  53.5690117
  86.5534592  13.3191137  86.8343430  86.4215775  14.2308235  87.0943909
  86.8417511  12.8809643  87.6350555  83.5179443  12.3754454  67.6683350
  83.1334610  11.6952658  68.2212906  84.0522766  11.8958502  67.0353165
  24.9299355  65.1514969  49.6301613  23.9844913  65.0292282  49.5440483
  25.1970997  65.5455322  48.7997437  31.1275120  40.3521805  77.5971985
  30.8053265  40.2902603  76.6979828  31.5810947  41.1943817  77.6316452
   0.8016902   9.1271477  33.0016441  -0.0480967   8.7032156  32.8817444
   0.6193990  10.0615320  32.9020157  83.5932007  41.2435188  16.4210949
  83.1274338  41.5637550  17.1935883  82.9105911  40.8556061  15.8735542
  70.2826996  43.8049927  10.4697504  70.5758514  42.9444313  10.7692957
  69.9154053  44.2182617  11.2511177  49.5393372  15.7058973  50.3681755
  49.0291405  15.5896931  49.5666580  49.7383041  16.6418896  50.3918571
  62.7655907  24.9348087  40.3811646  62.6340637  24.5366211  41.2416153
  63.1588593  24.2399063  39.8532600  82.0939636  28.2072601  42.1233253
  81.6816101  27.5500565  42.6839294  82.1197433  27.8009567  41.2570190
  51.9147186  40.6035194  86.1220016  51.8831787  39.6497459  86.0474777
  51.2521439  40.8144035  86.7798462  64.8416138   3.0617766  72.8741913
  65.1034546   2.9256468  73.7847595  65.5829926   2.7402375  72.3611603
   8.9059229  47.0430794  70.8313751   9.5942965  47.2915688  70.2144318
   8.0926304  47.1471901  70.3374634   5.8697019  49.2533951  89.0235748
   5.7933207  48.9574432  88.1164856   5.1304145  48.8432198  89.4723969
  66.6344681  21.8636627  57.6040306  65.8208542  22.2581635  57.2899742
  66.8837738  22.3973351  58.3585320  83.4369659  15.9655352  69.4859238
  84.0691147  15.3508778  69.1133499  82.7655563  15.4089022  69.8803940
   7.2812624  45.0758591  66.3730545   7.6444998  45.7375145  65.7844086
   7.6403031  44.2480507  66.0535965  55.0428123  60.2059479  48.5637817
  55.1219673  59.4849434  47.9391899  55.5808334  59.9377289  49.3086472
  77.2914047  12.5813122  64.1371613  76.4306183  12.1628132  64.1254959
  77.3455963  13.0410290  63.2993355  58.4781609  67.7619858  67.6603317
  58.2030525  68.3627472  68.3528824  57.6698074  67.3320541  67.3811264
  45.0736160  23.4304733  88.0585480  45.7529831  23.7727852  88.6395035
  44.4217262  23.0526142  88.6488800  56.4715195  28.6434517  33.9482040
  56.0593643  29.4767036  33.7200623  57.1714211  28.8810349  34.5564156
   8.6401482  26.8982105  25.2843876   8.8471069  26.0803280  24.8322048
   8.0113649  27.3364410  24.7109623  73.0351334  60.3588371  48.5081139
  72.4598999  60.0446930  47.8105087  73.8435364  60.6057854  48.0589561
  17.0474586  21.5259762  25.4800453  17.8084679  22.0186329  25.7872696
  16.3831024  21.6661053  26.1547489  53.1063042  66.3721008  10.7087755
  53.8212433  66.1369095  10.1173515  52.5546494  65.5904922  10.7403765
  23.5683575  15.0972633  42.6545105  23.9312191  15.5333099  43.4254990
  24.0509243  14.2726507  42.5964088  82.3641205   2.5392485  52.6302834
  81.6556168   2.2295651  53.1945076  82.4155655   1.8877068  51.9309425
  55.5845909  29.7786598   5.8141890  55.4596367  30.4387379   5.1323414
  55.8725128  30.2763481   6.5794582   1.5619764  63.9434929  75.1945877
   1.9251529  63.9275322  76.0800705   0.6538936  63.6609001  75.3030319
  31.1529942   1.6106176  14.9403849  31.3805294   1.0036373  15.6446819
  31.8852139   2.2263255  14.9089422  62.7192345  56.1111069  45.4268227
  62.0940666  55.4129715  45.6217537  63.2849007  55.7433662  44.7478371
  31.4082985  14.1205215   0.6679848  31.1168690  13.2270050   0.8494508
  31.8833961  14.3823156   1.4566398  59.4068184  47.8663177  75.2156372
  58.8298225  47.3699265  74.6352081  58.8191948  48.4496689  75.6958771
  78.3915939  32.4519119  43.6844521  78.2857819  32.4933510  42.7340202
  79.1911850  31.9420147  43.8144188  12.3155231  10.8607531  59.8328247
  11.7725143  11.3593607  59.2222786  12.3265915  11.3897467  60.6304932
  24.9642124  38.6074257  18.2684383  24.1508121  38.1298904  18.4314499
  24.8831863  39.4043808  18.7923946  85.7025375  53.7006760  43.9090309
  84.8238373  53.8955193  43.5832214  85.9030151  52.8346138  43.5540962
  23.1096516  37.3698006  87.7028885  23.4427834  38.1376266  87.2384567
  22.1767788  37.3469925  87.4896851  73.2416763  12.7904882  66.8817291
  73.1570511  13.5353508  66.2865372  73.8396759  12.1924314  66.4334335
  15.4234066  48.4667931  14.2642632  14.9881840  49.1928978  13.8175135
  16.1841545  48.8664513  14.6858883  53.7626648  59.4279633   6.0431390
  54.2856598  60.0488510   5.5359831  53.5557137  59.8944893   6.8529258
  60.3242607  48.2330818  60.1914368  60.8092957  48.3558578  59.3754082
  59.7474594  48.9951477  60.2441978  -0.0767753  29.1943588  23.6653957
   0.4781746  29.1381702  24.4432812   0.0072220  30.1030121  23.3763847
  50.1070099  20.5227737  17.9676113  50.0822830  21.4037895  18.3410168
  49.8970413  19.9455166  18.7017212  56.0498009  20.8581886  36.0769691
  55.5826302  20.5168400  36.8395081  56.4899902  20.0943718  35.7040787
  79.3704376  51.6006584   4.3496580  79.0162277  51.4300461   5.2223887
  78.9210663  50.9743805   3.7821460  53.0494194  28.7395020  22.5209808
  52.2020302  29.1634903  22.6566086  53.0206375  28.4309597  21.6153278
  49.6834908  61.6491737  54.9164619  49.9961472  61.0542831  54.2348595
  50.3071175  61.5397949  55.6343460  75.0320587  47.6337090  71.2574158
  74.8134537  48.4121437  71.7697372  75.7392120  47.2148628  71.7480621
  50.9757996  55.1297226  61.2243729  50.4355659  54.4710197  60.7879219
  50.9730453  54.8696556  62.1455612  10.0038242  71.6403427  23.8606853
   9.7856693  70.7094421  23.8152351  10.6212063  71.7063675  24.5891857
  79.4289474  37.1587791  20.8372669  79.6419601  36.9889908  19.9196453
  79.6468506  36.3432693  21.2885895  26.1475830  10.2393198  58.3314323
  26.5908508   9.6889257  57.6858215  26.8577518  10.6745777  58.8030701
  34.1546097  19.2404270  49.3843117  33.8061295  19.1765442  50.2735329
  35.0006104  19.6757355  49.4893036  70.3861084  38.4547424  42.0894890
  70.9427490  38.8239784  42.7750816  69.5810318  38.9708672  42.1307755
   6.8060493  22.2812767  48.2313805   6.7578239  22.3701134  47.2795334
   7.2486334  21.4442215  48.3716927  39.6296806  64.0676575  78.7298737
  39.3359871  63.3171234  78.2134705  39.0691605  64.7890549  78.4441452
  54.0340996  34.3986473  20.6466599  53.1387329  34.6681862  20.8513546
  53.9365654  33.5459595  20.2228146   4.6120467  50.1041908  78.2393188
   5.5241375  49.9508133  77.9927444   4.1929741  49.2481003  78.1514511
  26.9670162  70.9947357  22.8312073  27.8853321  70.7497864  22.9449139
  26.4877739  70.1697311  22.9081402   7.7298255  61.8489571  24.3012161
   7.7081680  60.9404831  24.0004921   7.2364035  61.8415756  25.1214066
  77.7578583  62.7532349   4.4020548  77.4896317  63.6014900   4.0488520
  77.0062714  62.1809731   4.2475591  36.0045013  22.3918591  80.8587570
  35.7747955  22.8275681  81.6795044  36.3236198  23.0963402  80.2947540
  63.7551155  25.9329491  74.4385147  63.1085434  26.3527546  75.0059052
  64.5912476  26.3159561  74.7038879  56.3608665  14.9611092  35.3638306
  56.6729507  15.1370888  34.4762115  55.4950676  14.5719748  35.2405548
  52.6953850  69.1277618  58.1787643  51.7951546  69.1977921  58.4964371
  52.8467026  68.1864548  58.0934029  66.7018661  70.1669617  25.8619308
  66.8658371  70.3074493  24.9294014  66.5089417  71.0393829  26.2052860
  75.5012283  36.3768692  88.4119034  75.4911652  35.7933769  87.6531754
  76.2384186  36.0704041  88.9399719  57.5132179  44.8549347  28.8129940
  58.4529419  44.6732597  28.8010731  57.1122360  44.0256844  29.0733585
  45.2605934   0.3656253  28.4216194  45.2144470   0.1489927  29.3528423
  45.0948868   1.3077143  28.3863773  52.1695824  16.4654922  84.6027451
  52.7066498  15.8498335  85.1015015  51.5784340  15.9102869  84.0942993
  62.9007721   1.3922011  75.5020981  62.5047035   1.2669890  74.6397247
  63.8433838   1.3490338  75.3412933  83.6401443  32.7970734  52.0329475
  83.0413818  32.5476265  52.7368584  84.0566483  33.6000099  52.3460732
  80.7292175  32.8225975  13.2420368  81.4513245  32.4337006  13.7355509
  81.1424026  33.1845169  12.4581203   7.1560621  17.3255749  85.4658279
   7.1884456  16.9956036  86.3637695   6.6736031  18.1497383  85.5307693
  23.5265293   3.9387400   6.9778380  22.6054306   3.9253912   6.7177811
  23.6956272   3.0555294   7.3058271  13.7478590  40.6582184  46.6525612
  13.9903555  41.4708290  46.2086105  12.8199530  40.5415535  46.4485779
  73.1192017  20.3751411  70.4489822  73.7358627  20.9219360  70.9357758
  73.5888367  19.5533905  70.3061295  70.1584930  16.7066116   6.5144787
  70.3619156  17.5325413   6.9534454  70.8458023  16.6100979   5.8552938
  26.6828957  33.9367676   9.8041220  26.2223873  33.1699600  10.1449547
  26.0494404  34.6502686   9.8808365  54.5301208   5.5892563  47.7348595
  55.4682693   5.6051416  47.9242134  54.1793594   6.3499002  48.1981316
  70.2501755  65.0924683   8.6395264  69.5629349  64.9233704   9.2839966
  71.0198898  64.6412582   8.9861927  61.8126678  64.4635086  82.8760529
  62.5112305  64.4376907  82.2221527  61.3492851  65.2822037  82.6992874
  50.2503929  60.7380905  43.3271065  49.7436829  59.9264755  43.3546638
  49.5909309  61.4314995  43.3041420  68.5926895   0.4967124  84.3812561
  68.7536316  -0.2231922  83.7712784  69.3803940   0.5314369  84.9239655
  43.9714203  69.7350998  41.5433197  43.8195267  69.0606003  42.2052956
  43.3598785  69.5211868  40.8387032  61.9566841  64.7243881  14.6900091
  61.3994751  64.3208466  15.3555174  62.8496056  64.5370636  14.9795475
   5.2083945  48.7777863  19.3203011   4.4041281  48.3664398  19.6368179
   5.9109640  48.3039093  19.7653503  26.8859596  20.9322128  76.1711426
  26.6692696  21.4166164  75.3745041  26.3314838  20.1527653  76.1357956
  83.5004425  13.1792364   6.7492890  83.2403030  12.2580767   6.7542720
  82.7242966  13.6489534   7.0545816  32.4481316  24.9782619   6.4616003
  32.7252846  24.3804054   7.1558537  32.8258400  25.8226471   6.7077336
  27.5880890  65.4417191  62.2308273  26.7052994  65.0718613  62.2416573
  27.6623631  65.8591690  61.3726616   3.8124626  24.7805767   9.1421175
   3.7395959  25.6410179   8.7291231   3.1607397  24.7953606   9.8430243
  68.0075912  24.7149601  73.5060654  68.5756683  25.2553101  74.0551910
  68.4496841  23.8669262  73.4656982   1.8390518   2.3069172  65.0568085
   1.2636912   1.8331681  65.6574402   1.3327934   3.0767291  64.7973404
  22.4724674  23.8228779   2.6239808  22.5533028  24.7065849   2.2651541
  21.9167175  23.3597660   1.9971617  77.2172470  54.5200958  10.7662859
  76.3829803  54.2972870  11.1793089  76.9718018  54.9810905   9.9641190
   5.3692126   3.6992762  68.9306107   5.3633165   3.3202496  69.8095474
   5.4740934   4.6395464  69.0759506  52.5249023  51.1878738  73.9680481
  51.9348564  50.6140022  74.4566650  52.3527489  50.9820518  73.0492249
  33.2164650  21.6179218  73.3231583  34.0025940  22.0331802  73.6778336
  32.8632164  21.1104622  74.0538712  12.0909004   2.4501567   8.8404818
  11.7756433   3.0724401   8.1850367  12.9660397   2.2069702   8.5384521
  78.7397156   7.1805196  33.9357300  78.9013519   6.6056609  34.6838264
  79.2000504   6.7620640  33.2082558  27.6052341  59.5744820  49.4482765
  26.9963264  59.3494911  50.1517258  27.9756069  60.4166985  49.7123375
  38.8385239  29.9537106  20.1496181  39.7438469  29.8675365  20.4482708
  38.6582527  30.8924694  20.1993027  85.7656631  48.7662086  53.4336395
  86.3187485  49.4157600  53.8676949  86.3446655  48.0182152  53.2870255
  85.6089706  31.7943459  78.9984970  85.2666550  32.3169479  79.7237091
  86.0366211  32.4308243  78.4255676   7.1975617  24.6358109  53.4540253
   7.7992744  24.4867783  54.1833839   6.3991098  24.9660702  53.8658905
  81.2264481  46.1534691  73.9115448  81.7441101  45.7768211  73.1999359
  80.3763046  45.7185898  73.8454514  23.1831894  69.9598007  44.3391991
  23.0961933  70.9099655  44.4156303  22.7427311  69.7443085  43.5171356
  45.7606621  39.2121887  63.4993896  46.3919487  39.2368698  62.7802925
  45.0515327  39.7890396  63.2154694   3.2472384  21.6862850  22.6633072
   2.6715834  21.3580894  23.3540630   4.1317019  21.5326843  22.9955158
  67.3398972  17.8915749  68.0348892  67.1611176  18.0323982  67.1051331
  68.2867813  17.7586575  68.0792618  83.6421967  13.9013109   1.1834251
  83.4419327  13.0245132   1.5110682  82.7930527  14.2607422   0.9265369
  75.9042664   4.6071486  66.4253540  75.1309509   5.1642814  66.5137787
  75.7019272   3.8317175  66.9488068   1.7173933  18.0946121  31.6885757
   2.0466712  17.7729416  32.5278244   1.5131809  17.3022861  31.1918373
  20.8118839  54.2888489  88.4348831  21.0508804  54.0281906  89.3243637
  20.1410637  54.9611244  88.5543900  14.3351431  56.3999100  84.7990341
  14.1347132  56.1710358  85.7065964  14.4037704  57.3546410  84.8023453
  23.8969193   8.0152407  48.7902374  23.5309925   8.1558313  47.9169884
  23.5567169   7.1615086  49.0578842   9.1630497  52.4387245  69.1758881
   9.4274483  52.8693314  68.3629303   8.2624836  52.1567154  69.0156326
  65.7527695  10.9350929   9.0566444  66.4129333  10.5377626   9.6245718
  65.5676193  10.2645903   8.3990908  12.0272760  62.8397484  60.7193146
  12.2222672  62.9061432  61.6540909  12.5455866  62.0931740  60.4189682
  13.0835257  68.7357712  22.1723099  12.9834242  68.1553879  21.4177456
  12.2840042  68.6056671  22.6822796  80.4786987  64.0238342  32.9698830
  80.1460419  63.4145012  32.3108749  80.8487930  64.7464294  32.4628258
  30.3755798  60.7883453  80.4672546  30.7967930  60.1895180  79.8506317
  29.6682758  60.2735825  80.8558044  60.8730125  64.1970749   3.5853624
  61.2664909  64.6489029   4.3318577  60.1701279  64.7790756   3.2964678
   0.9830036  53.2951775  27.4212742   0.8335750  53.0291901  28.3285522
   1.0606688  52.4714813  26.9398937  65.5418015  26.0676365  38.9877396
  64.8190918  26.6622276  38.7867737  65.5970840  26.0722313  39.9433289
  13.9105616   2.8031359  27.8161812  13.1446867   3.1451032  27.3549595
  13.6126471   2.6813455  28.7176495   3.3316615  11.4120340   9.5191317
   3.2814689  12.3653870   9.5886402   3.0705953  11.2235327   8.6177206
  41.3380508  20.4051380   7.6128726  42.2522049  20.2350292   7.8400736
  41.2575951  20.1093521   6.7060814   2.5448363  16.0695610  79.1098099
   2.5379307  16.7183628  78.4060745   1.6579103  16.0961647  79.4688187
  82.6567154  54.0057793  46.9459381  83.4960709  53.5740089  46.7869263
  82.7960587  54.5131454  47.7455597  35.7469368  11.5300913  58.1708641
  35.4401894  11.6491013  57.2719879  36.3414230  12.2652521  58.3203773
  12.7820854  36.0819321  47.7600555  12.8792219  36.7805901  48.4071045
  13.3767958  36.3274612  47.0513458   0.5893974  70.1673965  76.1540298
   1.3952858  69.9613647  75.6803970   0.0432411  69.3885345  76.0475922
  56.9860802  30.5213146   8.0557051  57.1363220  30.1387310   8.9201632
  57.0314217  31.4663563   8.2008648  55.4660149  47.4555626  36.7253799
  54.9716148  47.0097580  37.4131699  55.2318344  48.3786278  36.8220215
  68.4736557  69.2418289  28.3932724  68.0008392  69.6110535  27.6473827
  68.8339081  70.0026550  28.8488941   7.1664443  55.6590233  58.0267410
   6.8789630  56.3464966  57.4259338   6.4444308  55.5668945  58.6483841
  38.9339027  68.3045883  15.1677856  39.1182060  69.0993500  15.6684122
  38.0551720  68.0453033  15.4449692  30.7852077  12.1407862  59.0475540
  31.5894661  12.3153667  59.5363503  30.8567295  11.2219410  58.7890205
  72.8389053  31.2243099  72.9997330  73.7918243  31.3141880  72.9899521
  72.6207047  31.0872669  73.9216003  38.1821251  10.7107897  18.0786495
  38.0033798  10.7414770  17.1387863  38.2963753  11.6270943  18.3307686
  10.4087553  66.1314774  57.3075714  11.0033646  65.7274933  57.9396057
   9.7818317  66.6161957  57.8444557   2.0869355   1.0980486  50.2265358
   1.6061348   0.6230422  49.5487213   2.0224619   2.0169957  49.9665146
  75.5465393  21.2045479  15.8789330  75.3086624  20.9717178  14.9814730
  75.2808838  20.4476280  16.4011707  78.0862732  30.8759346  46.5415077
  78.9349747  30.9448719  46.9787560  78.2975540  30.8705482  45.6079330
  83.1854248  53.8783417  72.9685822  84.0840759  53.5608215  73.0571289
  82.8237762  53.3736649  72.2400589  78.5453110  42.8002396   3.2728121
  78.2848587  41.8995743   3.0799623  78.1937332  43.3123856   2.5445733
  56.8562584  38.3241234  20.1431217  56.5264702  37.4302063  20.0515728
  57.4868126  38.4210472  19.4295120  77.0850220  32.1334801  37.9123077
  76.7110062  31.4428844  37.3651085  76.3440628  32.7032623  38.1186295
  20.1860504  61.3112946  78.2055893  20.2090969  62.2067642  77.8681946
  19.2551842  61.0902481  78.2348251   2.6884255   0.5646560  39.7227402
   3.5238085   0.8417463  40.0990257   2.3512607   1.3468423  39.2860069
  57.8168831  25.8926353  67.5898438  58.1851349  26.6664104  67.1633530
  57.9050598  25.1958961  66.9394531  63.5842361  20.3772297  73.4689484
  63.4363747  19.5568066  73.9393463  63.0438576  21.0185986  73.9303284
  62.1205101   5.0407996   7.6722498  62.1548309   5.4330273   8.5447245
  61.2789040   5.3243337   7.3151221  54.5083275  62.8108406  37.5872917
  53.5846291  62.5741501  37.6709061  54.7571983  63.1163712  38.4596138
   5.8681154  60.1744690  16.8692589   4.9694228  59.8580093  16.9611073
   6.3648443  59.4064178  16.5871410  46.5239296  35.6579552  18.2154255
  47.2573967  36.2717400  18.1763344  45.9360199  36.0288925  18.8734531
   6.1791549  56.5710220  46.4444427   6.3788338  56.8309059  45.5451012
   6.8790569  55.9614906  46.6786232  53.1538773   4.6562915  77.6068344
  52.7544136   3.8784742  77.2173996  53.4765472   5.1595974  76.8593063
  49.1166191  33.4045525  24.2777348  49.5716667  32.8138695  24.8779526
  49.8113556  33.9435349  23.8994884  30.4060936  64.0931702  46.2617302
  30.5377216  64.5968552  45.4584846  29.5223484  64.3246307  46.5474739
  44.6520348  50.3676338  75.7156296  44.9123878  49.4794693  75.9597931
  45.3420067  50.9263687  76.0733795  56.5730934  19.0541420  86.5629730
  56.5556107  19.1757107  87.5122604  57.4299355  18.6654301  86.3870239
  62.7877464  54.7226677  63.7352409  63.3159485  55.1596146  63.0671768
  61.9330635  55.1504097  63.6824265  51.5869484  45.4799271  69.1028595
  51.9581184  45.5841026  68.2267303  51.2166939  46.3380356  69.3097153
  21.6208801   7.7743969  22.3940258  22.3758202   7.2148256  22.2118778
  21.0696297   7.6937566  21.6156616   6.2091937  35.8248596  56.0599289
   6.2652912  36.6379585  56.5618858   6.6308889  36.0290909  55.2252464
  19.0089397  69.5014954   7.8572006  19.5693760  69.6317825   8.6221628
  19.5468845  68.9935150   7.2499037  76.5216904  51.3578262  40.8018112
  75.9772415  51.5341148  41.5690994  76.1670151  50.5467339  40.4377060
  22.1180210  68.2402802   4.4792995  22.3462734  67.3706207   4.1509480
  22.9186954  68.5558472   4.8983130  74.2469177  14.1663513  50.4908524
  74.8322220  13.8343363  49.8101044  74.8335876  14.4789886  51.1795578
  68.7521896   1.2671777  35.4021568  68.9815445   0.7850441  34.6076927
  68.9076080   2.1848593  35.1786880  33.5312614  59.2890701  31.6580181
  32.7050285  59.7539825  31.5260105  33.3536072  58.6848984  32.3788795
  81.8934402   6.1385283   3.4492242  81.5323334   6.5275116   4.2457957
  82.6378250   5.6188478   3.7526338  67.5119019  47.8300591  38.9824600
  67.7371979  48.7066917  38.6710281  68.2608566  47.5658875  39.5167961
  58.1668930  50.1558990  64.8899002  58.1773224  51.0796318  64.6392136
  58.6349258  49.7107162  64.1835098  77.9351425  42.7686768  31.5692406
  76.9969864  42.9523964  31.6176186  78.3127975  43.2565804  32.3010597
  71.9555969   1.6818544  36.2031975  71.7530060   1.9714837  35.3136444
  71.1756821   1.2022696  36.4824028  64.3162994  37.9551506   4.7810044
  64.8181915  37.1705933   5.0019164  63.4033890  37.7018166   4.9175591
  66.7121124  70.4344635   3.8506477  66.1749344  70.8625717   3.1840172
  67.6121597  70.6553192   3.6111255  62.6612625  18.5414543   9.1042862
  63.5672150  18.8237762   9.2298956  62.2073593  19.3245182   8.7928162
   6.9808164  65.5294189   7.4153829   6.2783833  65.1589966   6.8809581
   7.4953704  66.0556030   6.8033433   4.8142209  26.3779602  50.9222870
   4.9148641  25.4669781  51.1983528   3.8864138  26.4602966  50.7017708
  77.6477890  53.6269722  50.4464378  77.2095032  53.8716087  49.6313972
  78.4089737  53.1189041  50.1658974  11.9083767  42.8756180  38.2986374
  12.6961451  43.2294044  37.8857346  11.3057127  43.6181107  38.3402557
  11.5228510  39.8301620   0.9992882  10.5816431  39.8577042   0.8272352
  11.8969679  39.4199753   0.2195333  -0.0703229  48.0392494  43.6495934
  -0.1501820  47.9775925  42.6977272   0.8174479  48.3663826  43.7947769
  77.0008545  18.8386536  21.5174541  77.8288498  18.3634815  21.5872078
  77.1466370  19.6472569  22.0085106  28.4869385  10.1417904  46.6869316
  29.2976646  10.4527092  46.2840843  28.0152073  10.9404888  46.9231148
  57.8931503   2.8678555   2.8716724  57.5932198   3.0684566   1.9850869
  58.2729874   1.9918900   2.8035645  78.5269318  27.6652966   2.6874170
  78.4902573  27.6253986   3.6430817  77.9658279  28.4057388   2.4569018
  78.1589890  35.3874474  51.2415390  78.2266388  34.4870834  50.9237251
  77.2344131  35.4935799  51.4654388  35.6034775  14.2264643  61.1339684
  36.1948700  13.5966711  61.5460930  36.1415863  15.0061445  60.9969749
  77.0306396  30.9900627  52.4676018  76.7988510  30.6938553  51.5873909
  77.6643219  30.3436279  52.7787323  12.1534615  64.6197281  82.7157211
  12.7552452  65.0760956  82.1276627  11.6076584  65.3136597  83.0855789
  46.6660156  10.9076204  59.2779312  47.2796402  11.5938435  59.0156479
  46.8048325  10.2061787  58.6415787  63.9466934  21.9478207   2.5001020
  63.1577263  22.0289898   3.0359890  63.9318314  22.7192135   1.9335642
  15.6406584  37.7657738  81.0138702  16.5272636  38.0983849  80.8741150
  15.6172724  36.9374847  80.5346832   8.7649679  14.1000309  52.2511826
   9.6612225  14.4348965  52.2224808   8.6959581  13.6733046  53.1052170
   9.2552748  10.8192339  19.8186131   8.7717924  11.5987778  20.0920868
   8.9698973  10.1355238  20.4246922  49.5648499  24.1064663  89.1123276
  48.8634567  24.7338829  88.9373245  50.3697929  24.5869370  88.9188080
  58.3824692  45.2429924  37.2884712  58.3602333  46.1071320  37.6995659
  58.1745110  45.4096947  36.3691254  72.8727951  26.1065598  49.1658516
  73.1287689  25.1859608  49.2225037  72.8172684  26.3961906  50.0764923
  23.3478737  65.6757431  44.0244026  22.7613869  65.5592041  44.7718544
  23.5577564  64.7850800  43.7434959  34.2884674  71.1454773  14.6596422
  33.7042198  71.5240631  15.3165722  34.9281845  71.8350449  14.4821920
  24.7967472  64.9974289  54.3203506  24.3668880  65.8496475  54.3923416
  24.3044529  64.4299850  54.9135513  60.1824379  38.6944809  33.4780159
  61.1301804  38.7349434  33.6059914  59.8154030  38.9337845  34.3290443
  42.5913811  50.0231209  78.4781342  42.3751945  50.1164551  79.4059219
  43.5247688  49.8111115  78.4698486  46.7703896  51.0162506   8.8077736
  47.2403946  51.8450966   8.7164450  46.1472549  51.1712189   9.5176477
  84.8118439  39.1010857  59.5821915  84.2155457  39.8301964  59.4117432
  84.5414581  38.7653046  60.4368134  77.3648758  44.0880432   1.1681137
  77.3291473  45.0053215   0.8969024  77.5575943  43.6075630   0.3629860
  81.4967041  29.7541866   1.8788413  81.1045532  29.0850964   1.3177974
  81.5582199  29.3393021   2.7392588  17.2132359  63.8179283  38.1487350
  16.3951321  63.3481216  37.9868126  16.9370193  64.6753769  38.4723434
  57.5642815  15.3782682  87.6033401  56.6430931  15.5826263  87.7642059
  57.8848839  15.0426140  88.4404678   9.7439594  23.8362751  25.9147301
  10.4281454  24.4543915  25.6577244  10.2207527  23.0629063  26.2160606
  69.2924347  53.1275749  12.3061991  70.1484146  52.9723969  12.7055120
  68.9357452  52.2520294  12.1564236  83.0947495  23.9159660  55.7792091
  82.1874008  24.1242905  55.5566139  83.0427475  23.5170021  56.6477470
  81.6431198  12.6567841  16.3916321  81.9697495  13.2862225  17.0345554
  81.6545944  11.8171959  16.8511887  74.3388062  20.1008987  30.7718277
  74.9919662  19.5456409  30.3460293  73.5031052  19.6721420  30.5874386
  45.4306831  37.6408730   4.5702858  44.5042267  37.8262100   4.7237825
  45.6523209  36.9737473   5.2199416  19.1952629  67.2740402   2.4782114
  19.4230366  68.1809540   2.6827986  18.8202133  67.3139038   1.5984498
  78.9411392  17.7721481  59.3738670  79.7651291  17.3354816  59.1580200
  78.3595123  17.0635376  59.6492119  60.7968559  28.4623909  63.1317978
  61.1325417  28.2522163  62.2603798  60.4205132  29.3375778  63.0388298
  69.6140976  25.4795532  57.5118790  69.9114075  24.6881943  57.9608650
  68.6605072  25.4561787  57.5915146  60.0771904  29.7729301   1.2609638
  60.0473099  29.2841606   0.4385023  60.2453880  30.6772690   0.9961745
   4.9125466   0.8628343  55.5189209   4.1058459   0.5043424  55.8889847
   5.5262313   0.1282740  55.5255814  65.7547150  59.1491776   7.2383862
  66.3082657  59.1407928   6.4575267  65.7496719  58.2401505   7.5381756
   4.9526162  23.1203461  50.5422554   5.0274081  23.6361904  49.7394218
   4.6380363  22.2651863  50.2490501  78.7059250  64.2006531  43.2392426
  78.8491821  63.3273315  42.8745155  78.0790787  64.6095581  42.6425095
  21.0744152  66.5764618  85.6513672  20.1392517  66.5103989  85.8445969
  21.1342773  66.4356232  84.7064743  22.5210438   2.0585017  78.9162903
  22.6401043   1.1163055  79.0359726  21.8751450   2.3043308  79.5785751
   8.7846155  12.6357508  87.3778839   8.8250751  13.3860941  86.7849426
   9.6988707  12.4504776  87.5924606   9.0332537  40.0655823  42.1733360
   9.7242889  39.5661926  42.6084366   9.4994040  40.7437935  41.6844940
  86.3341446  49.8324280  31.9772530  85.8090591  50.3899193  32.5514641
  86.8680115  49.3086891  32.5746765  22.2141247  69.9780426   0.7215460
  22.6710567  69.1680984   0.4947724  22.7626858  70.3823700   1.3937329
  20.6748657  57.5236473   3.2185471  20.7960052  57.4671936   2.2707231
  20.8498268  58.4410820   3.4281464   6.3139801  67.5966949  40.3796844
   6.1693697  68.1608276  39.6200333   5.7003770  66.8718491  40.2600060
  77.2102127  24.9786873  25.8097057  77.0487747  24.4566994  26.5956440
  76.4768906  24.7721615  25.2302094   6.8343110  57.5643196  72.5224533
   6.9058681  58.2401314  71.8483734   6.3595557  56.8505554  72.0965652
  60.3991547  13.8528452  56.0797043  61.0357857  13.6934280  55.3829117
  60.0210114  14.7063141  55.8679695  41.3737793  25.0934162  80.3788528
  41.2884598  24.2430973  79.9476852  41.9222984  25.6081562  79.7869034
  58.2782669  33.4442596  19.9748230  58.7873878  34.1275291  19.5387363
  58.8883705  33.0532799  20.6002312  77.0969772  63.6609039  33.0787277
  76.6973877  64.3702774  33.5820656  76.5083466  63.5341148  32.3346329
  56.2035141  41.1782532   6.7051053  55.7406960  40.8739281   5.9244537
  55.6876793  41.9229317   7.0142994  16.5181103   5.1875577  23.4342861
  17.0289536   4.8829885  22.6842804  15.6438932   5.3484354  23.0791893
  72.3308105   6.2422719  23.8081207  71.4427414   5.9054332  23.6893654
  72.4260178   6.3377976  24.7557716  84.6311569  65.9394379  42.8373909
  84.4385223  65.1184921  42.3844337  83.8247147  66.4495316  42.7619972
  46.9225235  16.0537224  30.8391514  46.8099098  16.9167690  31.2375259
  47.3282089  15.5241585  31.5256023  86.4297256  14.3363609  52.4671707
  86.5205383  14.7002468  53.3478355  87.2681503  13.9066687  52.2979317
  13.7079029  55.4911804  42.1951332  14.2858191  55.8873825  42.8472595
  14.1564598  55.6309128  41.3611641  43.5443344  35.3780746  13.8169184
  43.9921112  34.9267921  14.5325098  43.7451591  36.3037796  13.9546661
   1.2017039  10.6804113  42.5850029   1.1954460  10.9194727  41.6581612
   0.2771865  10.6526117  42.8314323  72.8641739   8.9072580  19.5170364
  72.0100632   9.2682037  19.2794533  72.6815262   7.9994535  19.7594471
  79.9467087   8.5698843   0.8388165  80.8469772   8.8622952   0.9810632
  79.4077454   9.3121481   1.1123127  66.8734055  40.2394981  17.6449070
  66.5483246  40.1164970  16.7530403  67.3463211  41.0711708  17.6148930
  85.9835052  66.7685699  73.5954132  86.6572189  66.0928726  73.5194473
  86.3365784  67.5144348  73.1103821   8.8396807  57.1512947  34.2189293
   8.3266325  57.6330566  33.5701447   8.2080097  56.5665359  34.6375961
  60.9469872  21.1040497  27.8484669  61.4956093  21.2374573  27.0755196
  61.4474792  21.4905872  28.5670261  85.2124176  33.3275719  37.1229477
  85.0936050  32.4628983  36.7299347  86.0800629  33.6064911  36.8303223
  26.6969490  63.2670555  34.1177292  26.5370941  62.7497215  33.3283997
  26.9059410  62.6190758  34.7905426  67.0095901  61.4028625  25.4716282
  66.3576813  61.4449196  26.1712532  67.5870972  62.1480408  25.6372585
  70.7272720   7.4952993  64.0507431  70.0703659   7.6674104  63.3761444
  70.4859848   8.0747728  64.7733917  77.8303604  52.7535706  54.9939995
  77.2082062  52.4073563  55.6337624  78.3363419  53.4046860  55.4800644
  38.7713089  25.1503296  20.1713352  38.8516655  25.9963207  20.6118717
  39.0619621  24.5123539  20.8230572  57.8777161  49.0799370  28.1034622
  58.4879799  48.8165932  27.4146519  57.1000938  49.3798065  27.6327038
  76.7065277  49.6549606  28.6623764  76.7155838  48.7067604  28.7930012
  77.4648132  49.9716148  29.1532574  22.2916393  56.8070908  79.6038055
  22.3752079  57.7462845  79.4389954  22.0000401  56.4423103  78.7682571
  59.5662804  24.0331745  60.3626633  59.8468132  23.5914917  59.5611343
  58.6194458  24.1320057  60.2628403  84.1927719  33.7497597  43.3847542
  83.9415512  34.0531425  42.5123558  84.6843414  34.4803352  43.7600517
  60.7002411  11.6331558  88.1243362  60.2399292  11.5535898  87.2888641
  61.6233482  11.5127354  87.9016190  11.8741026  62.2283859  13.8149805
  12.7060385  62.3586922  14.2701006  11.5987215  63.1096115  13.5623207
  18.9111919  33.0652275   4.9481497  19.2810574  32.7054214   4.1419420
  18.1376457  33.5504608   4.6610818  76.6650772  35.5846443  55.0173645
  76.4411850  35.9313889  54.1537247  76.7368240  34.6394005  54.8847160
  66.8972321  54.6084137  30.4581833  66.7890396  55.5477371  30.6071777
  66.2189941  54.2007942  30.9967632  75.7061081   0.6719673  23.4801807
  74.8189392   1.0295162  23.4438076  76.2529526   1.4139125  23.7384529
  54.6486168  13.0881824   8.4138565  54.2524719  12.5807810   9.1222677
  55.1301422  12.4423294   7.8969049  37.1870842  59.0518951  62.7569275
  36.6465302  58.8406525  63.5181160  37.6528778  59.8495712  63.0078888
  75.7284164  70.0751114  81.6714325  75.9764099  69.6103821  82.4706573
  74.8268967  70.3562469  81.8277893  19.4117699  15.0248413  41.4438972
  19.2740803  14.4339199  42.1842270  18.5389538  15.3608074  41.2400551
  47.6611519   4.5449228  81.8535309  48.3871803   5.1686239  81.8641129
  46.9853134   4.9729767  81.3279419  49.3289070  24.5328999   8.2732582
  48.9037971  25.3856487   8.1819935  48.6179314  23.8992977   8.1768627
  35.6138916  26.3601742  14.1044893  35.9240341  26.2364902  15.0015650
  34.6605110  26.3936043  14.1831446  27.4326344  16.4379349  48.1971321
  28.3776283  16.2919388  48.2407417  27.3157043  17.3402290  48.4944954
  58.4042320  71.4035645  35.0367165  58.8800049  70.7599487  34.5117035
  57.6585236  71.6535645  34.4911461   9.0248652  41.0419693  76.9514923
   9.4829464  41.1842957  76.1231537   9.5632772  40.4011421  77.4159088
  12.3238716   4.2011275  41.2354431  13.1830206   3.8442345  41.0102272
  12.1952200   3.9556437  42.1516418   5.8926911  69.5553741  74.1132355
   6.2139421  70.4366837  73.9226456   6.2531285  69.3504257  74.9759750
  66.4262314  68.8983917   8.0336447  66.3758316  69.8526230   7.9775987
  66.9654160  68.6426544   7.2852407  15.6468372  38.5440331  23.7263699
  15.9160376  38.7085266  24.6300869  16.4464016  38.2539330  23.2873116
  59.1287384  62.9016075  37.5733109  59.5443344  63.6025963  37.0711899
  58.5892677  62.4364052  36.9339409  82.0507584  55.0984306   8.3700752
  81.8895798  54.6595230   7.5348430  81.5756760  54.5718842   9.0129375
  84.4820938  55.5477715  57.9976654  84.3803635  55.6181602  57.0484962
  85.1023026  54.8289185  58.1194191  66.2054749  58.3349648  82.5221100
  66.4779282  59.2482262  82.4329147  65.6074142  58.1907310  81.7887878
  45.7203522  65.9820023  15.9607277  46.0278931  65.0973511  16.1583366
  46.0766449  66.5225143  16.6658039  75.2642899  25.6740074  60.3097191
  75.5678482  25.8591824  61.1984215  74.3289185  25.4962444  60.4082909
  22.9307461   2.4391971  41.6428986  22.8793392   1.8723010  40.8733406
  22.0589676   2.8283038  41.7124100  62.0631866  11.7033176  77.3075256
  62.6667328  11.1099882  77.7546539  61.1929131  11.3919258  77.5562973
  54.3712120  68.3019485  35.0571671  54.4821548  67.5082626  35.5806046
  53.4476471  68.2958755  34.8057251  33.4427147  37.9222488  21.0189018
  32.6182747  37.6764450  21.4385548  34.0987625  37.8352013  21.7104626
  60.1724625  59.9064980  38.3102837  60.3483276  59.0071068  38.5866966
  59.3556519  60.1376190  38.7525864  66.1419830   2.8704224  28.5356522
  66.7802734   3.5810707  28.5972805  66.1713791   2.4470088  29.3936081
   9.1202078  25.2942009  12.8704958   8.3874826  24.7947502  12.5100880
   8.7360382  26.1331692  13.1250095  75.0605164  69.5845718  77.7688141
  75.4940948  70.2015381  78.3583832  75.7554321  69.2845154  77.1828995
  44.4330864  52.7926025   6.4907007  45.0669708  52.2447281   6.0278239
  43.6005745  52.3304367   6.3929424  55.1280823  25.5733299  65.2229843
  54.4916458  26.0791874  65.7282486  55.6793442  26.2334309  64.8027344
  70.7244110  65.3496933  84.3179245  69.9448090  65.1370239  83.8048706
  71.4373322  64.8939819  83.8703766  43.0585899  22.0402107  19.0210342
  43.6588211  22.6673393  18.6177177  42.9469299  21.3566227  18.3603745
  69.3739700  70.9883118  52.3042755  70.2632904  70.6458359  52.3940163
  69.1288223  71.2534485  53.1907539  44.5363579  36.3997498  84.7510300
  44.5884171  37.2641983  84.3432922  43.6474228  36.3541298  85.1030960
  60.6009216  66.2045822  67.1033783  59.8588943  66.7798157  67.2897415
  60.8017616  65.7928238  67.9438248  44.9372940  14.6717634   4.2648916
  45.5961075  15.3304482   4.4847412  44.1001854  15.1156473   4.4007063
  15.4336214  18.0045719  66.0743484  15.6031065  18.0929031  65.1364212
  14.7249022  18.6237926  66.2490311  55.2437477  70.5026016  22.6400871
  54.4821625  69.9317932  22.7420940  54.9698792  71.1543121  21.9947186
  86.1243286   3.3546059  17.0073338  85.8086243   3.1898160  17.8958187
  85.9306717   4.2790427  16.8519440  41.3603554  11.3387661  36.2108040
  41.9407272  11.6209192  35.5038452  41.4127922  10.3831072  36.1967278
  10.6479597   4.1225562  22.3446751  11.0750904   3.4120502  21.8661652
  11.0351372   4.9204793  21.9846134   9.9087000  34.7805214  18.8086224
  10.5158710  35.2426720  18.2306995   9.3396587  34.2901611  18.2153530
   4.6045399  69.6896591  70.4896698   5.4021692  70.1267242  70.7879868
   4.7111249  69.6180267  69.5411301  23.0325127  56.0016747  59.1968231
  22.6980553  55.8482208  58.3131790  23.2943935  56.9223518  59.1972656
  24.1620369  10.3367119  53.9576302  23.6503086  10.9148417  54.5234299
  23.5259399   9.7044687  53.6231461  29.9119930  12.2529907  33.3772011
  29.4956875  12.9506807  33.8833122  30.5437698  12.7063007  32.8189888
  45.5741348  31.6473160   5.9716163  46.1227798  31.3035259   6.6766181
  45.2913780  32.5062981   6.2853489   3.4773765  17.6411076   1.2452104
   4.1905622  17.1394634   1.6401180   3.1599293  17.0860615   0.5329012
  14.2832642  10.9200878   5.9015107  15.1840096  10.6000986   5.9514642
  14.0710640  10.8935719   4.9685049   9.9009562  51.8914719  55.7100143
  10.2360115  51.0458641  55.4118271  10.6580372  52.4759521  55.6720581
  16.1431808  68.1001587  56.8076401  16.4157085  68.5876007  57.5850449
  15.4130087  67.5589981  57.1080208   3.2273855  47.8538437  61.0112381
   2.6669672  48.6255074  61.0931053   3.5383096  47.8785591  60.1062813
  78.1827774  52.8637276  19.4217110  77.3848038  52.3790016  19.2107372
  78.4422226  53.2696037  18.5945568  44.8045502  56.2186928   1.3286680
  44.0441818  56.6039352   0.8931668  44.7986336  56.6029472   2.2053359
  13.5584135  46.3204842  62.0744324  13.5863791  45.9001350  62.9339409
  13.9676828  47.1747437  62.2121658  22.9153042  17.4584236  63.9960403
  22.6063957  18.2422943  63.5417786  22.2260494  16.8102608  63.8509750
  57.2868996  29.0167866  27.2063961  58.1558266  28.7684937  27.5219021
  56.8546333  28.1844273  27.0152073  19.3535023  57.8069496  59.0590019
  18.6251125  57.8552475  58.4398499  19.1111526  57.1019478  59.6593933
   9.3546619   0.5781304  36.6754761   8.5580492   0.0483233  36.6447296
   9.9334269   0.1058954  37.2740211  31.3025360  17.3363342  87.9415512
  31.6381149  17.8587780  87.2130814  31.0292988  16.5119267  87.5391541
  85.9565125  46.1010742  56.2890511  86.5438309  45.8264198  56.9932175
  85.4622345  46.8316917  56.6606979  30.1788406  55.1790276  12.6590528
  29.7400150  54.5375710  12.1003046  31.1111317  54.9876518  12.5568666
  11.3430853  43.1369095  14.5829344  10.8350821  43.6407242  13.9470625
  10.6848850  42.7198067  15.1388397  26.3051739  31.0783176  79.5814743
  26.8440475  31.0944195  80.3724136  26.9070034  30.8103790  78.8870316
  48.9583778   3.7245917  23.9254894  48.0030022   3.7232900  23.9845657
  49.2196236   4.5709867  24.2882519  82.3993988  20.9406700  50.7777977
  83.1207428  20.9211941  51.4067001  81.7343216  20.3669987  51.1583290
  55.9779625  48.8153381  55.5553284  56.0501823  48.1151619  54.9066582
  56.0578613  48.3696938  56.3986855  52.5588379  33.9533157  81.7088928
  52.3196449  33.7760239  80.7991714  53.5081787  33.8336258  81.7346191
  45.2730637  38.8671837  -0.1743155  45.6314049  38.4711952   0.6200497
  44.3621674  39.0626602   0.0454271  49.2411957  38.2223091  27.0890045
  49.8476067  38.2184639  26.3484097  49.7811928  38.4702721  27.8394375
  81.5235062  31.8447380  58.4453964  81.0760574  31.0264606  58.2298813
  81.3329163  31.9848423  59.3729095  71.8210373   4.5885649  80.1270676
  71.1296158   4.5009294  79.4709549  72.4831390   3.9492500  79.8641510
  85.4917297  11.1794748  66.1535110  86.0812225  10.5556517  66.5772705
  85.4371567  10.8791456  65.2462921  75.0535278  47.9966202   5.2159219
  74.1224213  47.8141937   5.0894232  75.0761871  48.6583710   5.9071555
  28.1453495  61.2121124  70.0027313  28.4531231  60.3924713  70.3896408
  28.6457615  61.8924141  70.4532928  47.7978287  14.4687080  16.6478043
  46.9139595  14.8344584  16.6126442  47.8047905  13.7934923  15.9693727
  14.6988516  12.7141228  19.8182144  14.1211262  12.0341358  19.4716854
  14.4259586  13.5130281  19.3670902  13.9879627  62.7651596  15.4662638
  14.8001871  62.3918457  15.1239786  13.7761307  62.2222023  16.2255745
  12.3367910   8.9336176  35.8250198  12.1428938   8.1445312  35.3190727
  12.6469812   8.6065216  36.6694260  76.3347473  52.4808273   4.1643462
  76.9963303  53.0638275   3.7919815  76.7046509  52.2030640   5.0023518
  36.1235695  15.2276697  81.5350418  35.5349236  14.4732466  81.5111084
  35.5434341  15.9862709  81.4702530  36.5379639  10.1973925  77.5037766
  36.5091362  10.5279284  78.4016342  35.8903961   9.4926882  77.4870682
  49.6922302  10.1872406  64.7432556  49.4014740  10.3503036  63.8459816
  50.4130211  10.8027000  64.8770447  29.2674236   4.8449535  88.3834076
  28.7307148   4.0847621  88.6076508  30.1444073   4.6187472  88.6931839
  45.9784050  43.6331825  87.5895691  45.7869682  43.6984711  88.5251541
  46.3758583  42.7685585  87.4861832  30.5690346   9.3926163  56.5445137
  29.8881111  10.0185013  56.7911758  30.1388531   8.8019991  55.9261703
  74.1769104  24.8116035  88.5725708  74.1844177  23.9121437  88.8999100
  73.3765488  25.1916428  88.9348221  62.2909279  37.1835136  10.1009407
  62.0389786  37.7421684  10.8362341  62.4868698  36.3359375  10.5002518
  37.8387909  32.0418243  29.8673649  38.3428764  32.8301506  29.6657028
  38.0025406  31.4570274  29.1274796  12.5066023  55.0353203  68.6456528
  12.8007689  54.2328491  69.0766220  11.5986700  55.1408119  68.9298477
   8.5218439  45.0101585  16.0414658   7.5685220  45.0587196  16.1125393
   8.6810503  44.7367058  15.1380787  23.3466282  12.9247417  78.9893951
  24.0275879  12.3173046  78.7003479  22.8610935  12.4401884  79.6569977
  80.4649124  41.1542015  27.8691883  80.6981125  40.4944649  28.5223293
  80.4820251  40.6830444  27.0361500   8.4674435  24.2288914  55.8204613
   9.4151649  24.2561092  55.9520493   8.1002750  24.4376717  56.6794319
  18.4294357   1.8502504  69.4510269  18.9680195   2.3894620  68.8718796
  18.8581715   1.9135152  70.3044968  56.0269051  63.3938103  59.4249153
  56.2808189  62.4974556  59.6447182  56.2587814  63.9053345  60.2000313
  52.1901550  43.8019104  13.1501026  51.5293655  44.4320908  13.4372625
  51.7691803  43.3215446  12.4371796  25.8900280   6.1075816  64.7939377
  26.6581688   6.5438867  65.1624908  25.8920498   5.2389255  65.1960144
  58.8191757  18.0403709  34.0670357  58.8744583  17.9172611  33.1193962
  58.6625328  18.9781246  34.1780014  81.5582123  24.6569786  82.2890320
  80.6694870  24.6463547  82.6444092  81.4485397  24.4402390  81.3631668
   7.1313787  35.0694084  36.9945869   6.1786671  35.0484352  36.9044037
   7.3913388  35.9005203  36.5972137  26.3659496  10.6882925   9.6144571
  27.1549931  10.2900276   9.2469978  25.8153248  10.8746824   8.8539953
  74.6526947  67.9254684  58.4943962  74.3609009  68.7726059  58.8312073
  73.9133453  67.3379898  58.6507912  23.4017963  64.8746262  76.6559448
  23.8463497  65.6356583  76.2825394  22.8865852  65.2297440  77.3802948
  81.1866074  11.9836493  80.8903122  82.0428009  12.1685848  80.5043716
  81.3806534  11.4419317  81.6552505   5.2150688  68.0853806  60.3396645
   5.2015290  68.9329987  60.7841835   5.2069769  68.3035431  59.4076881
  83.6786270  33.4206238  18.8421669  83.4742126  33.5461617  17.9155140
  84.2473831  34.1578789  19.0639935  84.4657745  63.0220375   2.2994971
  84.5499420  62.3418083   1.6313386  85.2800064  63.5213661   2.2368383
  38.7095604  15.3184614   4.2827387  38.1944160  15.4786520   5.0734344
  39.3680305  16.0131874   4.2810407   2.2387652  42.0010719  47.5122223
   1.9601783  41.9457207  48.4263077   2.1945939  42.9344101  47.3044701
  14.6651707  10.0326672  24.3013325  14.9801006  10.5826817  23.5840225
  15.3536119   9.3786068  24.4216843  10.9397974  50.8014565  61.1224022
  11.0906420  49.9348907  60.7448578  10.4980974  50.6270409  61.9534950
   8.3975554  46.7541504  64.3918610   8.5012960  47.4465027  65.0446396
   7.9289093  47.1735725  63.6702766  10.0821180  26.9800091  10.3928423
   9.1382484  26.9349346  10.2401667  10.1800737  27.6165829  11.1009445
  64.0720215  52.3444138   3.2647264  64.2695923  53.0009308   3.9326978
  63.9195862  52.8520470   2.4676666  19.1647453  37.0692406  12.8348541
  19.7135296  37.7364120  12.4226046  18.2873955  37.2337341  12.4892645
  67.7075119  54.1420135  47.5269699  67.2073975  54.8635674  47.1455460
  68.2916031  53.8575325  46.8240242  36.7915230   0.3339103  -0.0091471
  36.7785454   1.2846048  -0.1197966  35.9845161   0.1371049   0.4665043
  50.1462708  52.3054962  23.7718735  50.8387222  51.9284935  23.2290878
  50.3227997  53.2462616  23.7660255  86.7785187   1.2059933  66.9413910
  86.1431732   1.8189659  67.3112869  87.4044952   1.0535960  67.6493225
  71.6774673   6.6228623  20.9898434  71.6950150   6.8426838  21.9212952
  71.9037476   5.6933112  20.9588203  86.0565338  33.0199661  48.8300247
  86.5015793  33.0951576  49.6741295  85.1804581  32.7022438  49.0486221
  81.8231735  12.3743973  38.4911613  82.3666153  13.1536837  38.6078453
  81.3121338  12.5547199  37.7021408  20.0797997  61.6803131  16.6530151
  20.6366329  61.2600060  17.3083858  19.9149570  60.9959755  16.0043697
  67.4262161  31.3928185  70.8917923  68.2129593  31.0904865  71.3455124
  67.3787231  30.8482742  70.1060181  45.8398628  18.3540878  78.2187881
  46.7436790  18.4151821  77.9095764  45.5004387  17.5575333  77.8107147
  10.0038195  23.2565212  40.5156898  10.8494425  22.9951363  40.8801498
  10.0571098  24.2097397  40.4466400  14.4620552  36.2024345  25.0058060
  14.1074200  35.8117371  25.8044434  14.1353197  37.1021080  25.0137768
  71.3300171   9.9285803  57.5214386  70.8512115  10.5336761  56.9550171
  71.5487442   9.1903858  56.9527054  13.6324425  32.0590401  24.4147320
  13.3043585  32.9539299  24.5028763  13.6014528  31.8841343  23.4741573
  50.3425522  68.7162247  86.2499237  49.4076233  68.6127319  86.4272003
  50.6972809  67.8291855  86.3096008   5.4074335  65.1342239  42.6890831
   4.6927648  65.4240646  43.2560730   6.1760926  65.6031494  43.0138931
  16.2093239  42.3834915  16.6416855  15.3379250  42.4532509  16.2517738
  16.3361435  43.2167740  17.0953236  61.4428291  71.8199768  41.8562126
  61.3616714  70.8694305  41.9343376  61.6799393  71.9656525  40.9403572
  12.0852909  16.3155746  63.6069260  11.7536316  16.9711227  64.2205124
  11.4853086  15.5755348  63.6996269  51.4496155  13.3026381  57.4024239
  52.3247604  13.3327541  57.7890053  50.9870415  14.0408506  57.7990379
  19.2548866  38.5631828  75.5439072  18.6152897  37.8649368  75.6839066
  19.1226425  38.8302727  74.6342850  38.0299683  11.4561825  75.6370926
  37.4892731  10.9092989  76.2070084  38.5918999  10.8358660  75.1726913
  18.2332726  24.6026230  18.1134129  18.0066853  24.2718010  18.9825764
  18.7212334  23.8877029  17.7047367  77.2254944  26.4315453  36.4756050
  77.9535294  25.9203663  36.1222076  76.4604797  25.8669682  36.3649788
  59.4815063  55.0833588  17.4271183  59.1739540  54.4056931  16.8251114
  60.4360161  55.0374031  17.3720360  10.1120520  15.3600206  79.4883118
  10.0453587  14.5178814  79.0382156   9.2530289  15.7647171  79.3677597
  67.0557175  63.9364090  35.5313187  66.1848297  63.9103165  35.9276695
  67.3697662  64.8244858  35.7014008  22.3186302  59.1336250  31.4344769
  21.5059547  58.9608994  30.9591293  22.1707020  59.9764481  31.8634243
  34.6077919  51.4736671  12.5958405  34.3014603  52.3094330  12.9478216
  35.4409065  51.3174362  13.0405273  25.6984158   0.4242401  50.9865608
  26.0433807   1.1656443  50.4890175  24.8568230   0.7322607  51.3228302
  32.7810135   0.7683545   9.5136395  33.0996552   1.1917644  10.3107729
  33.5256157   0.2541987   9.2014875  45.1851082  53.1543159  88.0631409
  45.6567192  53.7527847  88.6424942  45.0497017  53.6560822  87.2593231
  35.7812309  67.4155045   4.3052526  36.3322220  68.1722946   4.1054544
  36.3522491  66.8272858   4.7993836  81.4172821  18.0885181  43.1111259
  81.3952179  17.8791943  42.1773529  80.5005875  18.2324409  43.3460464
  69.2434769  50.2772064  58.2124634  69.4858246  51.1660538  57.9527435
  69.9984207  49.9578667  58.7067451  29.5225410  70.8735580  40.1429291
  29.6038456  70.0735245  40.6621361  30.3552189  71.3279266  40.2710991
  33.7680283  21.6670399  83.9593124  33.6871910  20.7132931  83.9672699
  33.1395416  21.9551659  83.2973251  11.5912352  33.8541069  39.9834251
  12.0590477  34.6828346  39.8805008  10.6781301  34.1092720  40.1151848
  54.6718903   0.8301607  38.3057976  54.5874901   0.9109465  37.3557549
  54.3589897  -0.0534102  38.4997787  70.5347366  51.5707016  25.2087688
  69.6554184  51.3066559  24.9380245  70.4314117  51.8504105  26.1183395
   1.8659084  12.2293015  85.0156250   2.4034045  11.6603003  85.5665970
   1.0767306  12.3881912  85.5334930  68.3346100  39.6145477  80.7819519
  67.9934158  40.4250946  80.4040298  68.1774826  39.7038345  81.7219391
  19.3715801  70.9086227  48.3887024  20.1222610  71.4838028  48.5366135
  19.6017551  70.4114761  47.6037788  60.6888695  67.1032562  82.5282135
  59.8941193  67.2828979  83.0305481  60.3713036  66.7830048  81.6839218
  52.5458183  71.3149796  31.1996937  52.7008896  70.4149323  30.9131622
  51.9430504  71.6732712  30.5481339  15.6219006   1.7938920  66.3506241
  15.8768272   2.4446771  65.6966171  15.4391165   2.3053153  67.1388321
  53.0554390  42.3577957  73.7482224  52.3751869  41.9826660  73.1889648
  53.0640450  43.2882233  73.5235901  78.6709824  31.2566452  81.7344131
  78.2533340  31.0899544  82.5794067  78.4135666  30.5131969  81.1892090
  77.9333572  16.4197559   1.8079114  78.3801346  16.2714214   0.9744743
  77.9771576  15.5754404   2.2567391  71.1072006  27.5161037  38.8440323
  70.8896866  28.1035671  39.5677757  71.3624268  26.6971283  39.2687340
  31.5582085  52.6562958  21.9622669  31.3379498  53.3106575  21.2992973
  32.5125771  52.5916061  21.9271564  43.0534554  48.9622231  17.5074883
  43.4270325  48.0918961  17.6460800  42.1366386  48.8735771  17.7679138
   3.3425169  25.6428280  55.6416817   4.0584326  26.1541786  55.2645645
   3.6185834  25.4720745  56.5421600  45.7364273  67.2063904  65.2195969
  45.6564789  68.1042328  65.5416412  46.4458466  67.2443085  64.5780945
  34.2303276   4.9007316  54.8128662  33.7337799   4.7770686  55.6218071
  33.5920525   5.2504144  54.1911278  70.5824280  36.8799629  31.3396320
  69.8929672  36.4633064  30.8226490  70.5897217  37.7892151  31.0405693
  48.6784210  19.1325817   7.5307684  48.1278343  18.7402439   6.8531580
  48.3711548  20.0368290   7.5952153  59.0464058  70.3713989  29.7162209
  59.1853981  69.4243546  29.7207985  59.7287636  70.7164078  30.2920570
  67.5110703  66.1849899  78.2373581  67.7991180  65.5110397  78.8530273
  67.6623688  65.8009033  77.3737488  15.2825527  46.8924789  53.4904861
  16.2105389  46.9145966  53.2568550  15.2331791  47.3666115  54.3205414
  63.7647247  45.8990021  47.7204628  63.1617889  46.5447845  48.0887947
  64.6183853  46.3317070  47.7367744  62.9952927  65.8516235  24.7991219
  62.3967934  65.9709930  24.0617085  63.8527870  66.1008224  24.4544010
  22.6599960  15.5311546  88.5279617  22.0335999  15.6706829  89.2381668
  23.1127853  16.3698616  88.4397354  33.8371391  39.2077637   0.3083086
  33.7654419  39.6755791  -0.5237013  33.7475319  39.8890686   0.9746596
  27.0115490  70.1093140  14.0490770  27.9484081  70.3047180  14.0305939
  26.5889568  70.9424133  13.8402729  83.3298416  22.0156593  40.9328499
  83.3532104  21.2079029  41.4459000  82.6647568  22.5533066  41.3627625
  36.1754723  48.7700081  85.7587967  35.8450890  48.1490593  86.4080276
  36.5229301  49.4960251  86.2768707  85.9189682  39.4974442  37.9638443
  85.4751892  38.8857956  37.3763313  85.2551727  40.1554031  38.1704826
   2.9678679  53.2843513  18.6127491   2.8032403  52.8642540  19.4569321
   3.2746956  52.5750160  18.0480137  66.1116791  30.4321766  -0.0665594
  65.5864563  30.1379910   0.6776372  65.7319489  31.2767963  -0.3087401
  67.6980972  39.4106560   2.0941424  68.5769348  39.7894974   2.1129615
  67.1752319  40.0429344   1.6011205  24.5369473  18.6239147  81.7337799
  25.3536892  18.7383251  81.2479095  23.8610096  18.9695358  81.1507874
  20.0181198   0.4557487  55.7165833  20.1551285   1.1176146  55.0387955
  19.3696213  -0.1402303  55.3417664  37.0367317  32.8193359   6.1208582
  36.7438965  31.9232464   5.9550114  36.4671249  33.1311722   6.8240914
  16.5699997  57.6884308  51.9082527  17.4117031  57.4035149  51.5524559
  16.3498707  57.0255127  52.5627098  11.2586699  13.1641216  63.8702965
  11.0672503  12.3738251  63.3652992  11.5577183  12.8391304  64.7195206
  46.5434074  68.1646347  69.1285400  46.0515022  67.3867340  69.3914719
  45.8719635  68.7998657  68.8798065  61.8668747  35.2182045  59.8878174
  61.8157845  34.7413521  59.0594254  62.4807358  35.9321976  59.7157097
   9.3122025  17.1088295  82.3778152   8.3652048  17.2445564  82.4095230
   9.4597569  16.6412868  81.5557098  14.7051821  13.9174023  26.1867580
  14.8679972  14.7911386  25.8313599  15.5533075  13.6367989  26.5305271
  59.3552437  21.6627045  42.7291946  59.5891838  22.3905487  42.1532211
  58.6279907  21.9969273  43.2542000  64.1698532  28.4729385  37.3638039
  64.5620956  28.6079655  36.5011635  64.7799835  28.8898029  37.9722443
  86.2531662  57.5974007  68.9049911  86.1870270  56.7125854  69.2641068
  85.3545761  57.8279533  68.6691513  69.1461563  58.9717407  83.2059021
  68.2379227  59.2646828  83.1315460  69.3606873  58.6335754  82.3365021
  49.9275436  16.8054619  86.7385864  49.7620392  17.7465229  86.7955322
  49.5888557  16.5542755  85.8792725  76.9877167  55.9725952  79.7725754
  76.0540161  56.1788597  79.7290802  77.3349609  56.5722313  80.4329453
  28.9235516  25.4276562  87.4578171  29.7538376  25.4932823  87.9295654
  28.3838749  26.1281757  87.8242264  50.8791351  46.8028717  59.9478188
  51.1416626  45.8955269  59.7927780  49.9834785  46.8534508  59.6139450
   4.7910342   8.6955938  64.9983368   4.3281245   8.1403017  65.6257095
   5.1883740   9.3822851  65.5338745  35.4128571   0.8579603  25.7273827
  36.0782585   1.4733825  26.0351601  34.5804100   1.2914121  25.9154892
  33.5375175   2.2501407  82.0573120  33.2398376   2.0315495  82.9403915
  33.1354332   3.0988512  81.8722382   2.6087759  50.3960648   7.5733132
   3.2591677  50.8035927   8.1452770   1.8077601  50.8972931   7.7262049
  38.5897026  24.2590981  82.4950333  37.7256279  24.2853909  82.9060211
  38.4688606  24.7014866  81.6548386  63.6249123  24.5781460  55.3119202
  63.1035271  23.9233227  54.8476028  62.9978752  25.2632751  55.5435562
  72.7704849  27.5954170  72.0393982  72.8471832  26.6906967  72.3424301
  72.1325150  27.9931812  72.6318588  82.4349289   9.1264105  14.6743717
  81.8421631   9.8347006  14.4230061  82.6451416   8.6863537  13.8507271
  86.9854126   6.1589971  44.9744797  86.2383881   6.4726925  44.4647942
  86.6328430   6.0155621  45.8527489  59.9666862  70.5942307  11.8989983
  59.2610512  70.3336487  11.3070478  59.6055145  70.4611816  12.7754021
  64.4232101  62.1523399  68.6761703  64.9500656  62.4456902  69.4195404
  64.0843658  62.9596596  68.2893295  78.1713409  33.9393921  36.1791954
  78.0493240  33.3884773  36.9523964  78.9659958  34.4397697  36.3646164
  77.4648209   2.3801084  47.5552177  77.4957657   2.3060734  48.5090485
  77.5364609   3.3194034  47.3854446  68.6575470  61.5517082  17.5343018
  69.4161835  61.7565079  18.0808945  68.8346939  61.9930878  16.7036190
  11.7343378  64.6302032  70.8882294  12.1723156  64.8701630  71.7048187
  12.0185728  65.2940521  70.2599411  86.6884003  30.5285492  54.7209015
  86.3366318  30.2821770  53.8654556  85.9548340  30.9491940  55.1694145
  43.1020470  63.7784805  46.1033745  43.4874268  63.0444565  45.6249161
  42.2977219  63.9801826  45.6252480  28.3218536  45.0662537  10.5039339
  27.7550869  44.2974434  10.4412231  28.3356972  45.2781181  11.4372902
  59.3483772  11.0237303  85.3082581  58.5543518  11.4023886  84.9309311
  59.1524048  10.0905342  85.3917542  71.1362152  56.9856644  41.1613350
  70.5305176  57.6470108  41.4959717  70.6150284  56.1840057  41.1172218
  52.0356789  55.8336220  58.8782616  51.7635803  55.6437454  59.7761116
  51.2218361  56.0454559  58.4210777  41.5906868  42.1810532   1.2718160
  40.8673210  42.7625999   1.0377786  42.1544609  42.1767807   0.4982683
  84.1566467  24.2121677  12.9579058  85.0929871  24.3671360  13.0823345
  83.7304764  24.8346901  13.5470409  20.9477196  17.6252041  69.1314697
  20.8006973  16.9127483  68.5093613  21.0820656  18.3981380  68.5830612
  61.5004082   3.2554214  44.8597946  60.6971207   2.8686938  44.5113640
  62.1823044   2.6152611  44.6562233  86.2957611   9.3639660  54.3350296
  86.8399429   9.1394815  55.0898170  85.4823837   9.6947689  54.7161026
  29.8923473  54.3855476  78.5828705  29.4884014  53.6211166  78.9936066
  30.6870041  54.5399895  79.0936584  51.9050102  22.0093670  67.6126785
  52.0457306  22.9444790  67.7609863  52.1236801  21.8776054  66.6901550
  69.1186447  44.2741241  32.6041145  68.4866791  43.5758896  32.4328766
  69.6763535  44.2884407  31.8263035  40.7587547  58.3333015  63.6712952
  39.8310966  58.5390091  63.7868958  41.2183685  59.1032333  64.0062408
  37.0891342  58.6578560  81.0805893  37.6853752  59.0083923  81.7422867
  36.5360184  58.0406418  81.5594788  37.5317459  22.2135620  22.2101669
  38.3800507  22.6311893  22.0611668  36.9133568  22.7399139  21.7034321
   7.7513447  56.2885628   9.8014231   8.3965244  55.5816422   9.7859831
   6.9590688  55.8978424   9.4328203  50.6269264  58.0594406  71.7977066
  51.0217628  58.9227676  71.9201889  51.1363106  57.6610489  71.0919876
  86.4925079   6.7081261   6.7340016  86.8898849   5.9032164   7.0663266
  85.8442307   6.4095588   6.0961738   0.0480800  31.3462715  28.2288475
  -0.6404535  31.6902142  28.7979317   0.6969318  32.0487175  28.1864891
  39.1485405  62.0805626  11.5364017  38.3667297  61.8005638  12.0124331
  39.3533516  61.3453407  10.9587069  20.9782639  55.0259476  17.2317505
  20.2580700  55.0543900  16.6018753  20.7733173  54.2807045  17.7964096
  11.6513290  67.1834717  79.5930176  12.4387140  66.9279099  80.0735855
  11.0111084  66.5037079  79.8034363  69.6653671  11.2942228  51.4065018
  70.5699005  11.1043262  51.6554909  69.4325562  12.0671129  51.9209633
  50.3980522   9.0264101  88.7002029  50.4544945   9.7995853  89.2616730
  50.5797005   9.3558092  87.8200150  48.8166008  59.4282188  31.8350868
  49.7592239  59.5300751  31.9666843  48.4972038  59.0656662  32.6613884
  80.0339737  62.7784996  10.5144958  79.2000504  62.6241646  10.0706644
  80.5623093  63.2536201   9.8731260  48.6728172   8.7308702  25.0741959
  49.3813972   9.3606987  24.9420395  48.1035805   9.1435680  25.7237167
  43.7855568   9.8595762  28.7380428  43.5845604   9.7873611  27.8049736
  42.9933662   9.5515242  29.1782379  39.3402443  12.8859262  66.5143738
  38.3951530  12.7819719  66.6249390  39.7103958  12.6221342  67.3567657
  13.7600222  17.7983780  10.5283518  13.6504946  17.1283474  11.2031088
  13.5096931  18.6155491  10.9593954  47.7145920   4.8847952  18.2222519
  46.7690277   4.9554458  18.3531990  48.0561867   4.6254830  19.0779991
  11.2414131  52.0123634  76.0867386  12.1400051  52.2104225  75.8230438
  10.8342772  52.8694801  76.2125320  54.8454857  70.9900360  58.0531769
  54.3976021  71.8307953  57.9596367  54.1658249  70.3892899  58.3587837
  48.5607224  70.8563080  83.9669495  49.4823074  71.0104599  83.7592316
  48.3217812  71.5792313  84.5470581  77.2765274  58.3899193  52.4219894
  77.7393723  58.0096855  51.6753769  76.8402100  59.1633492  52.0646782
  68.0936890  16.4645996  22.8045044  68.2497025  15.6535559  22.3206673
  67.8387299  17.0982761  22.1339188  80.3792648  13.4831705  23.7442131
  79.5143738  13.7385464  24.0651245  80.7457199  12.9449072  24.4457912
  60.9557190  34.5079994  30.0110035  60.9043236  35.1647758  29.3165722
  60.8243446  33.6732445  29.5613804  21.5584431   1.6133262  17.2986603
  22.1996803   1.9793884  17.9077950  21.6854534   2.1098247  16.4902134
  64.9253082  21.6430016  78.8635254  64.8397141  21.7190170  79.8138580
  64.9734497  20.7007599  78.7019882  52.4086914  67.4703979  64.4686966
  52.9787140  68.1016617  64.0295868  51.7660866  68.0088196  64.9306412
  31.1148224   8.9301195  46.2395172  31.8045254   8.5444727  46.7797241
  31.4454784   9.7995272  46.0136223  32.6902885   0.9625269   4.5982394
  33.0766716   1.8334047   4.6904964  33.3431625   0.3701122   4.9711061
  56.3327026  65.5331268  72.7722931  56.0652771  65.0573959  71.9859161
  56.9238892  64.9325027  73.2261429  45.9676590  52.0970688  61.7989960
  45.5565300  52.8802071  61.4330673  46.8890800  52.1720924  61.5508308
  79.5159378  27.3214970  81.0613785  79.7984314  26.8387890  80.2845764
  80.3111954  27.7478523  81.3807755  45.9050255  65.7415848  22.7974987
  46.8085899  65.8095245  22.4889736  45.9796219  65.7055130  23.7511063
  28.7724228  54.1947899  45.1354408  28.7036400  53.7096939  44.3131409
  28.6447048  53.5331421  45.8152542  28.1639271  23.2296124  18.5310268
  27.6212807  22.5673733  18.9590569  27.9513474  24.0442944  18.9863663
  58.2544441  40.1154251  69.4137726  57.9610710  39.2164726  69.2652664
  59.2005577  40.0410767  69.5385666  52.2067757  48.9169807  12.2593231
  52.0114250  49.3556862  11.4313097  52.0053749  47.9956474  12.0955706
  66.0658646   1.8648889  56.2548599  65.8451614   2.5303974  55.6032295
  65.5289459   1.1091059  56.0166588  40.5741005  68.2549057  76.0362244
  40.7055321  67.3242798  76.2176132  40.7083015  68.3361664  75.0919647
  79.7158508  53.9231567  29.1224728  80.0626984  54.1005211  29.9968128
  80.4436798  54.1178360  28.5320473  83.9702530  50.2097931  74.2549591
  83.1706009  50.0219231  74.7463760  84.6505661  49.7075272  74.7034378
  10.4153004  62.6560593  81.7278290  10.1666241  62.2622414  82.5640717
  11.0650845  63.3196678  81.9594193  12.4704981  43.1999702  22.3993340
  13.3626957  43.0393677  22.0920525  12.5788584  43.5076904  23.2992210
   3.6407421  27.9454002  35.7770233   2.8858321  27.5216198  36.1853790
   4.3966551  27.5910034  36.2452431  21.7938290   2.8351722  48.5700912
  21.1135521   3.2688627  49.0852318  21.7917233   3.2982790  47.7323799
  12.8329010  68.2829056  59.7786369  12.2495594  67.6676559  60.2229462
  12.9441900  69.0004349  60.4023361  19.5585251   9.3263550  30.2895908
  18.7361698   9.2832441  29.8016300  20.2138557   8.9765854  29.6859055
  18.4151402  40.1236954  67.1189346  19.2133656  39.7462158  66.7493744
  18.1566811  39.5107002  67.8071747  57.1659393  33.3926086  25.5132637
  57.9995995  33.0472755  25.1939106  56.5104523  32.7764244  25.1863365
   2.1450720  36.6599846  48.5585632   2.5177875  37.5406990  48.5178337
   2.2547302  36.3955078  49.4719391   5.6752391   2.7039063  16.5810337
   5.2860446   2.0921180  17.2059135   5.8343787   3.4982090  17.0909252
  68.8578796   9.9467907   8.0125217  68.3940887   9.6851587   8.8079319
  68.6573334  10.8774929   7.9134903  60.1681595  27.3857689  42.9482155
  60.2556763  26.5441837  43.3957748  60.1808586  27.1643200  42.0170708
  47.5828438  23.5790863  23.4067249  47.2647285  23.0457230  22.6783314
  47.3068047  23.1035480  24.1902409  73.1091766  38.3203201  64.1221848
  73.3184357  38.4732780  63.2007484  73.1745834  39.1841812  64.5292435
  12.4777803  71.1523209   0.9479271  12.2673349  70.4291916   1.5387141
  12.3814259  71.9375916   1.4867220  60.6050491  64.6725540  36.2760582
  60.8631973  65.2770004  36.9719238  60.4626503  65.2325897  35.5129623
  37.4713135  27.6178074  12.4192009  37.7834206  28.2309990  13.0846453
  36.9011269  27.0155296  12.8970938  41.6480446  68.4459534  16.8118935
  41.8413658  67.6227264  16.3633938  42.4746819  68.6925583  17.2267303
  59.8323669  46.3378792  10.8610096  60.3695946  45.5562477  10.7318983
  59.7747993  46.4346085  11.8115673  69.3860168  54.3408546  34.7667809
  69.4119339  54.0445023  35.6765785  69.8677444  53.6702118  34.2826195
  54.4253540  68.9975891  51.0091476  55.0798798  69.4809189  51.5133476
  53.7689781  68.7377548  51.6555901  29.0507240  68.2589264  44.6834221
  28.3047218  67.7301178  44.9663849  29.3174438  68.7365112  45.4689217
  70.0498047  11.2953186  55.6909065  69.2571945  11.7986746  55.8769913
  70.6898346  11.9504929  55.4128036  46.8564568  44.0517769  79.8906174
  46.7942162  44.9940300  80.0471954  46.2097626  43.6673965  80.4824524
  62.7301369   9.7640629  62.1529961  63.2022934   9.8988543  61.3313332
  62.0104866  10.3944349  62.1218872  71.6900940  34.7175064   5.9079900
  71.6103210  34.1977005   5.1081972  72.2378082  34.1858406   6.4855509
  36.0946045  48.7430725  19.2817497  36.3932419  48.3533325  18.4600735
  36.5349731  49.5921822  19.3180618  33.6848831  13.8809156  79.2051773
  33.8582001  12.9560738  79.3808441  34.1311989  14.0550432  78.3764954
  54.6102943  11.7110262  49.7893295  53.7761879  11.7565928  50.2566833
  54.8770523  12.6244574  49.6858139  33.5109940  12.3636065  70.8881607
  33.6415672  11.4220839  70.7753906  32.7396431  12.5636511  70.3578491
  17.5095634  51.2411308  28.7544308  17.0254841  51.5420265  27.9854336
  16.8337021  51.0639725  29.4086933  69.7938614  27.5445652   0.7035328
  68.9103241  27.2043571   0.5625936  69.7390900  28.4658566   0.4496525
  70.7711029  61.3618813  51.6784744  71.3995819  61.9706459  51.2903404
  70.6907272  61.6483231  52.5882683  12.3302679  45.8073769  87.0249863
  12.0984144  45.3889275  87.8540649  11.9423494  46.6806679  87.0807419
   5.3492565  55.4911690  24.9887657   4.6181211  55.0100975  24.6011524
   6.0865521  54.8822937  24.9451904  86.2600174   1.6749386  85.5935974
  86.1879501   0.7379688  85.7755966  86.5906525   1.7199193  84.6964417
  67.4249496  63.2123795  46.4604759  67.3680115  64.0933228  46.8305168
  66.8111954  63.2209816  45.7259979  16.4050865  22.9614239  74.2075348
  16.9609356  23.2749786  74.9209442  16.9787312  22.4000835  73.6859436
   9.5147219  24.7510929   1.4981183   9.6412792  24.7431641   2.4468818
   9.6499739  23.8419724   1.2308385   7.4434848  10.3046522  62.5162239
   7.0408239  10.8563871  63.1868057   7.0870657  10.6325150  61.6905708
  57.4552803   1.3647344  46.1786995  57.4160957   0.8880229  45.3495789
  57.1359062   2.2416785  45.9660988  72.1623993  12.5070171   7.4674201
  72.3836060  13.0409298   6.7043743  71.5597000  11.8445444   7.1296158
  82.7053375  21.3423576  65.2569046  82.1354065  21.1299248  65.9960098
  82.5754700  22.2801991  65.1161270  51.7247925  58.5335197  20.1011963
  51.4201508  57.6315880  20.0014820  52.0855064  58.7606239  19.2441425
  24.8987732   4.2113051  47.2728500  25.0635262   3.3480654  46.8935013
  25.5193081   4.7900057  46.8298225  69.0034943  58.8651848  32.7032890
  68.1189880  58.8754463  33.0690384  69.3527374  58.0074120  32.9451218
  52.8607597  19.0914288  57.0508232  53.6794472  19.5747738  56.9396400
  52.2118683  19.6057091  56.5705261  62.6961708  15.6138420  86.5029297
  62.9271355  15.1380806  87.3007660  62.7865829  16.5368500  86.7398071
  33.8566551  70.0864182  33.6410103  33.8944511  69.6753082  34.5046043
  32.9285393  70.2790451  33.5078583  51.8748703  10.1346893  52.1430588
  52.0509796   9.8801508  51.2372856  50.9951172   9.8010025  52.3188934
  79.6792908  44.1225967  58.9685249  80.5153046  44.1173630  59.4346733
  79.8192749  44.7181396  58.2323418  35.9454727  14.5146322  50.4790230
  36.7208443  14.6381302  49.9314995  36.2827492  14.5121584  51.3748283
  65.8505630  39.0932083  21.9505920  66.2707367  39.6651535  22.5929012
  65.2062683  38.5978165  22.4562588  84.5473251  28.4596786  71.1402054
  83.8010941  27.9277630  70.8637238  85.3084488  28.0196800  70.7616272
  15.9113255  61.9934120   2.1967514  16.1308956  62.6320267   2.8751235
  15.1465931  62.3646965   1.7567909  52.7501450  58.3913116  80.1924133
  52.8854332  58.8586731  79.3680954  51.8501091  58.0696487  80.1404495
  63.3249130   6.2954626  37.8580971  63.7038383   7.0480819  37.4039917
  62.5713387   6.6534066  38.3273888  71.7172623  23.0233727  72.8923874
  72.4459991  22.6408367  72.4036789  72.1042404  23.2977543  73.7237701
  47.6691551  54.7224655  68.4226761  48.4037628  54.8745537  69.0171967
  46.8944855  54.9540176  68.9350281  12.4832621  56.8703842  80.2916260
  11.8178473  57.5565071  80.3435135  13.1794882  57.2518959  79.7568817
   9.4199324  35.1226463  75.0519485   9.0442533  35.8207474  75.5883713
   8.7144852  34.4815674  74.9648056   4.0327220  44.5564079  27.5848389
   4.0893574  44.5987816  26.6302547   4.1518168  43.6292763  27.7909203
  68.4627533  37.3922844  22.0927734  67.5397263  37.6427155  22.0535793
  68.5793610  36.7914467  21.3568192  83.6175919  67.4902802   5.9179754
  82.7160416  67.7952728   5.8158727  83.8501816  67.7267151   6.8158784
  32.3124161  14.3123512  20.2348328  32.8916092  14.4182777  20.9895153
  32.6772614  13.5685034  19.7554474  23.3145046   5.4752812  49.2160835
  22.9557076   4.7541957  49.7333183  23.6099377   5.0636835  48.4039650
  70.0421677  16.8548508  44.5294533  69.6448898  16.0262661  44.2614098
  69.3035965  17.3943501  44.8117294  68.3048553  64.0913391  10.3718109
  67.5742569  63.7517052   9.8549976  67.9275284  64.2661438  11.2339592
  38.3142242   9.1646729  58.5225258  38.2591209  10.0552902  58.8689346
  39.1979523   9.1029482  58.1599731  52.7586021  14.4605722  26.0613613
  52.2596321  14.2421122  26.8484688  52.2650299  14.0596151  25.3459206
  82.6664734  56.7939148  40.4501305  83.3274994  56.9477577  39.7751465
  82.6396637  57.6100655  40.9495430  63.6681213  48.7391205  76.7951202
  63.1958084  47.9855919  76.4410782  63.4677811  49.4532433  76.1900482
  68.1174927  47.4939461   7.8924370  67.1732483  47.3950500   8.0142889
  68.4831009  46.6506462   8.1596613  35.1650848  30.2069187  84.1395264
  35.5430679  30.1661682  83.2610626  35.4317589  29.3860149  84.5533371
  56.5501747  66.8343201   7.9800768  57.0919228  66.1115799   7.6632428
  55.6550446  66.5777512   7.7583899  60.3413887  28.0767517  78.8928146
  59.9727936  28.4877472  79.6747665  59.5951729  27.6491699  78.4726105
  11.7161760  59.7852135  53.1149025  10.9462414  59.8679810  52.5522461
  11.5780745  60.4323654  53.8065376  17.8823566   8.2280979  34.0900726
  17.9818878   8.1885109  35.0412598  18.7385597   8.5136862  33.7713394
  85.6813202  38.8071518  55.5519905  84.9123764  38.2378616  55.5227394
  85.3545990  39.6328087  55.9094391  55.5604973  17.0544109  29.7700405
  56.1859169  16.4302731  29.4018955  54.7320251  16.8463306  29.3381081
  44.0751686  61.7727203  76.3842621  43.5075226  61.7547646  77.1547699
  44.5244675  62.6162491  76.4373779  64.4672394  45.8094635   6.5500927
  63.5850716  45.7015724   6.9055905  64.8220978  44.9211159   6.5161672
  32.7752876   3.8292961  34.5611000  33.4541473   3.2319293  34.8750038
  33.1463509   4.7022510  34.6895294  52.8833160  21.1894054   7.7400117
  53.0958595  20.3301659   7.3756442  52.7580833  21.7499542   6.9742885
  84.6548157  65.6545944  35.6606712  84.0238571  65.7447128  34.9465294
  85.5075836  65.6383514  35.2262115  43.9279289  12.6357670   2.5229988
  44.4093056  13.1431465   3.1765099  43.6131973  13.2882986   1.8973975
  81.1806793  61.8963394  63.3040352  80.3664398  61.4319153  63.1102448
  81.6928940  61.8281555  62.4982948   6.5344658  41.7497482  53.0239906
   6.4623971  40.9360580  53.5229378   6.3135099  42.4367027  53.6528778
  61.9814148  35.1045761  32.4373894  61.5330009  34.5048523  33.0336189
  61.5927353  34.9261208  31.5810528  37.2707558  34.6345329  81.1518478
  37.9370308  35.3103638  81.0271149  37.6151123  34.0858841  81.8565750
  53.1006699  28.8449306  78.2165909  53.1119041  29.5916996  78.8152924
  53.7934799  28.2687016  78.5393982  61.4428635  17.5845509  34.5891151
  61.7862320  18.4021187  34.9495544  60.5040474  17.7423820  34.4894066
  50.3094673   8.0989447  43.0431938  49.9264221   7.7120299  42.2559166
  49.6925888   7.8806849  43.7418022   0.2525086  65.8804016  15.0116816
   0.8259619  65.4040604  14.4112797  -0.3656303  65.2208099  15.3264360
  69.1670914  57.9154320  63.5743141  69.8027802  58.4187126  64.0830688
  69.2154770  57.0312767  63.9378548  34.3889542  52.6556358  21.6793995
  34.8978958  53.4476280  21.5063133  34.3752708  52.1919708  20.8421078
  67.3626862   3.0818424  15.2559290  66.5494919   3.5709932  15.3811111
  67.7008820   2.9487643  16.1414509  60.2106361  30.7833500  87.4729156
  59.5605850  30.1698246  87.1304855  61.0484428  30.3361645  87.3531876
  51.3197823  71.3986740  49.0585899  50.7267685  71.8834381  48.4845085
  52.1842651  71.5172882  48.6651077  79.3589325   2.1043692  63.3458519
  79.7255936   1.3123419  62.9528084  79.5461044   2.7956429  62.7107620
  39.6642303  22.5856247  19.0013046  39.6051102  23.4695702  19.3637619
  40.5880432  22.3514519  19.0905685  62.2619934  27.8478756  71.0945206
  61.8330536  28.6223907  71.4583435  62.9907455  27.6754169  71.6906815
  39.3043709  49.6702118   0.9282625  40.2316208  49.7118301   1.1621563
  39.3023109  49.5223427  -0.0174446  35.0054626  16.1841125  16.6781769
  34.8986244  16.4661350  15.7697277  35.3390198  16.9582806  17.1316490
  21.8441257  27.4252014  12.3630152  22.4954224  28.0564842  12.0571899
  22.1673412  27.1431065  13.2186937  58.2569351  50.6676559  61.9789429
  57.3174248  50.6511841  62.1613579  58.5862312  49.8463440  62.3439751
  29.9882259  28.4604263  26.5134106  29.1728134  27.9975777  26.7060375
  30.2028122  28.9163933  27.3272152   8.2669687  36.3394775  43.0932999
   7.8920002  35.4694748  42.9564705   8.1595459  36.5018997  44.0304832
  38.2432060  56.9034271  61.2637596  37.9881248  57.6730232  61.7725677
  39.1971626  56.8735428  61.3366241  43.7342300  40.7362747  10.6091232
  43.6635513  39.8313103  10.3053560  43.5944214  41.2643661   9.8231182
  25.4446735  57.1910629  41.5305557  24.7844505  56.9562073  40.8784981
  25.9253807  56.3784561  41.6881104   4.8193173   1.7775155  40.4842148
   5.5087733   1.5573486  39.8577881   4.7184906   2.7261560  40.4058113
  51.1063576  48.3226700  15.6780338  51.8730736  47.9696465  16.1294193
  50.5008125  48.5564346  16.3815269  66.2117462  43.0699081  72.0486984
  66.2523880  42.2415695  71.5707550  66.0312881  42.8156509  72.9536896
  31.4627304  65.0205002  67.6706009  31.3801250  65.9739456  67.6892166
  31.0203934  64.7261734  68.4668045  85.9622269  67.4847031  76.0490723
  86.3919296  66.7216110  76.4354401  85.7784958  67.2246323  75.1463928
  21.1067257  43.3538857  84.2936478  21.3893528  44.2602844  84.1720047
  21.7321491  42.8376846  83.7851105  46.9334030  63.5230141  16.3464756
  46.4235611  62.8122482  15.9577522  47.3604584  63.1245079  17.1047935
   9.3092279  40.3365860  49.0827255   9.5291281  40.3425980  50.0143051
   8.4951048  39.8357201  49.0320320  17.7689228  56.3619576   3.4337418
  18.6423645  56.3728905   3.8251624  17.5853100  55.4346008   3.2836547
  10.2706270  24.1602154  67.5934601  11.1177168  24.6028919  67.6455078
   9.7461510  24.7139454  67.0150604  44.0766640  38.9034767  71.8574448
  43.7789001  38.4559937  71.0654068  43.6346893  39.7521935  71.8335571
  70.6092377  16.9981613  51.1029587  69.7528076  16.5776119  51.1797600
  71.1894531  16.3044529  50.7893524   6.2995596  63.8119926  49.6901894
   7.1530032  64.1718826  49.4486427   5.6804667  64.2522049  49.1078033
  84.9986954  52.7236671  88.3349228  85.3130341  52.5746613  89.2266693
  84.2409363  53.2988014  88.4410400  23.0619011  69.2689514  33.4668617
  23.7782536  68.8582077  33.9509697  23.4278259  70.0961304  33.1536407
  80.7794418  20.4846992  17.4289017  80.9915771  20.4819603  16.4955101
  80.6668472  19.5606098  17.6516438  59.1908035  63.2732430  13.2392302
  59.6718330  62.5330353  13.6092796  58.4543686  63.4031029  13.8367510
  82.2762070  11.4350920  19.1108398  83.1077957  11.4825363  19.5824814
  81.8650284  10.6319952  19.4305191  58.5517769  15.7393675  61.5109100
  59.2493668  15.2915897  61.0322723  58.6883621  15.4878044  62.4243050
  34.6527939  50.5704117   1.0886415  35.6063461  50.5552826   1.1707408
  34.3475571  49.9204903   1.7216203   2.0486908  27.2886524  59.5428619
   2.0899131  27.6306534  60.4359283   2.3951890  27.9961891  58.9992065
  62.6144028  64.0914764  20.6826820  63.5392189  64.3014908  20.8124695
  62.1811562  64.9430923  20.6253719  22.7779999   9.4808178  32.6281891
  22.2655315  10.1532965  32.1794357  23.5087757   9.3018999  32.0364227
  12.9508600  59.1122665  83.3439484  13.5444660  58.9897461  84.0847931
  12.1459522  58.6650963  83.6054764  65.6355972  16.4813366  75.2829514
  66.4793167  16.9275494  75.2103958  65.8447495  15.6370363  75.6825027
  69.9418716  53.0618973  27.5838566  69.4861755  52.5293617  28.2357597
  69.3505325  53.7962570  27.4187164  70.5896530  37.4765358   8.7878351
  70.0098114  36.7162743   8.8327208  70.8313293  37.5392075   7.8637710
  81.3319778   3.0154839  59.4009628  80.7863083   3.3175807  60.1270599
  81.2289200   2.0638523  59.4036980  12.8819675  67.3286209  28.5593777
  12.6895065  66.9991302  29.4372311  13.7821999  67.0502396  28.3910980
   1.2924784  12.7644224  77.4474182   0.6764306  13.4287252  77.7563171
   1.0644928  11.9776249  77.9426041  23.1806107  57.4360428   8.9524708
  23.3016014  58.2714806   9.4037266  22.4105663  57.0484543   9.3684511
  39.9949303  45.4762917  11.3306112  39.5762711  46.0461540  10.6854677
  40.8867722  45.8154716  11.4068241  71.9064560   3.8472209  20.7389965
  72.6193848   3.5053155  21.2785091  72.1369476   3.5897934  19.8463402
  78.6196136  48.7619247  19.2391319  77.8690414  48.9541702  19.8011913
  79.1760406  48.1914597  19.7694073  73.0799484  67.4289246   6.9662309
  73.7152176  67.0598068   7.5797610  72.8110123  66.6869354   6.4246154
  83.4395752  20.0408192  42.9429893  82.6689072  20.5430698  43.2076492
  83.1624832  19.1266804  43.0046463  35.2893295  59.2648964   8.4720640
  34.6824112  59.9460297   8.7617826  35.0904922  59.1461830   7.5432997
  25.2280788   2.0382845  45.7954521  24.5077400   1.8029057  45.2106972
  25.6541119   1.2053870  45.9979630  66.3918991  30.2195263   4.4412127
  65.9870453  31.0616570   4.6489267  65.9513550  29.9328156   3.6412420
  42.2213898  33.1639175  24.1590958  41.9792633  34.0755157  23.9960213
  43.1780930  33.1718597  24.1888905  80.1671219  35.2501068   6.7700305
  79.5694962  35.8928871   7.1520066  80.8563156  35.7756424   6.3637614
  61.7596207  35.6410522  62.6932411  61.3970871  36.4931831  62.9354591
  61.5262642  35.5348701  61.7710152  68.6190033   0.4964336   6.3000541
  67.8981323   0.1761606   6.8422780  69.2433777   0.8649738   6.9250069
  74.1846619  22.6810017  27.3133774  75.0597992  22.8726692  27.6504574
  73.5902710  23.0602913  27.9607372  69.9882965  61.5315742  77.5227966
  69.6496201  60.7887650  77.0230331  70.7077179  61.1658936  78.0375214
  37.0908508  39.2997093  82.3121185  37.0085220  40.2491989  82.2230911
  37.3195343  39.1643028  83.2316818  16.9761658   2.0831375  73.1358643
  16.4625435   1.6596427  73.8236694  17.2718487   2.9042900  73.5289383
   2.0354543  56.4437637  64.4991150   1.3104779  55.9357376  64.1350327
   2.7886441  56.2085190  63.9572678  67.2519455   2.1977589  82.8920670
  66.3022614   2.1069477  82.9700851  67.6041870   1.4405077  83.3597488
  71.7393417   3.4308901  11.9677114  72.4807968   3.9656639  12.2514286
  71.9585724   3.1732826  11.0722752  76.1338501  70.7191925  25.8475342
  76.1140442  71.6428070  25.5969791  75.2244415  70.4305954  25.7706032
  30.0568714  15.9077768  49.3793144  29.7644100  16.3622913  50.1693230
  31.0110893  15.9801836  49.4007111  18.5142288  50.6991997  79.2387924
  18.5503025  51.3681030  79.9225311  19.2688904  50.1369553  79.4137192
  29.5465450  63.3974800  35.1863937  29.1807613  64.0824585  35.7460747
  29.2698689  63.6375961  34.3020706  37.6882248  11.1031771   8.9631901
  37.5819511  10.2588787   9.4014788  37.8672943  11.7204142   9.6725445
  76.0580292  16.1106739  15.9759531  76.1751862  15.4973078  16.7014103
  76.6288071  15.7755995  15.2844524  46.3381195  56.7573624  56.4306526
  46.7021484  57.0922318  57.2501526  45.7810783  57.4660950  56.1087303
  18.6332550  56.3834763  23.4214020  18.2359638  56.0771179  24.2365932
  19.2169895  57.0925140  23.6911182   8.7059937  39.7057915  27.1503773
   7.8884029  39.2087479  27.1234894   8.4610891  40.5493011  27.5308380
  66.8055496  68.3020248  57.3530769  67.0607376  68.8204956  58.1161652
  67.2144165  68.7492142  56.6120758  86.0903244  33.5810547  84.8847504
  86.4246826  33.9942436  84.0886841  86.8485489  33.1314697  85.2578506
  14.3292112  18.3837643  53.1833000  15.0157986  18.8988686  53.6069717
  13.6559544  19.0244637  52.9542580  52.9449844  67.4739685  44.2287025
  53.0882988  67.8962555  43.3817253  53.6346397  66.8126984  44.2863808
  79.1034775  51.3763313  50.3279457  79.4234085  50.5296860  50.0163918
  78.8296967  51.2116241  51.2302513  15.9364595   1.9215406  87.5100555
  15.2343369   1.2729132  87.5604401  15.4904871   2.7642958  87.5943451
  60.2959137  55.6267052  20.4252663  60.6459312  56.4731026  20.1471825
  60.1790657  55.1367378  19.6113205  39.1686516  45.5858955  82.7258377
  39.3674660  45.9838638  83.5733795  40.0251427  45.3829422  82.3497162
  65.9878845  10.2062531  67.2974548  65.6545868   9.6537924  66.5903931
  66.4881897   9.6084623  67.8529510  77.8570480  58.2478561  69.0246048
  77.6045303  57.6976547  68.2831573  78.7620926  58.4985962  68.8395157
  67.9899826  46.0415421  45.0245476  67.9683533  46.9981918  45.0487099
  68.0653458  45.8270798  44.0947304  70.6495895   5.1610646  57.5748825
  69.9219284   5.0106311  56.9714622  70.2654800   5.0529919  58.4449501
  17.5566711  62.2372627  80.8299484  17.4693069  62.1290703  79.8829041
  18.3904705  61.8181877  81.0429840   8.7153091   1.0818630  53.6902122
   9.2381392   1.0480140  54.4912949   8.0909042   0.3620830  53.7811317
  35.6965294   8.2772627   3.6974080  36.0554428   7.4883428   4.1036310
  35.2183418   8.7134352   4.4026189  18.6956329   2.6613545  38.9248009
  18.7155972   3.5134578  38.4891968  18.9953842   2.0441086  38.2574272
  85.7087097   0.5514697  12.1424103  86.4109268   0.1172980  11.6580381
  85.7644501   0.1850724  13.0249519  53.5549355  68.7271194   1.4237549
  54.0307922  69.2976990   0.8202349  53.3496246  69.2878494   2.1718626
  66.0461578  33.2666702  64.7240906  67.0030212  33.2423401  64.7172775
  65.8079605  33.0679665  65.6296310  57.6491623  27.2131348  74.3455276
  58.5324326  27.3956547  74.0249786  57.4180756  27.9844303  74.8631516
  17.2055073  13.9573326  86.4965286  16.6015759  13.4270630  87.0164413
  18.0704174  13.7535048  86.8523636   8.9622917  44.5824089  13.4532080
   9.2931786  45.3947678  13.0700407   8.2019529  44.3570595  12.9171715
  86.7646027  47.5791969  23.4776649  87.4399872  48.1444016  23.1026478
  86.2148972  48.1711349  23.9911499  85.2031555  43.3339920  36.7354050
  84.4152222  42.7932281  36.6809006  85.4794922  43.2632065  37.6491127
  62.6143990   9.7425852  79.2418518  62.3852615   9.8578739  80.1640396
  62.9652672   8.8534307  79.1915817  60.9885101  17.6037731  11.5438643
  61.2549286  17.6626701  10.6263762  61.7685661  17.2880287  11.9999857
  57.2902603  43.7789497  53.2177963  57.2667923  42.9154091  53.6300774
  56.9682045  43.6288414  52.3289871  41.0404510   9.8684130  69.8721008
  41.5988235   9.4387684  70.5200653  40.5035591   9.1621714  69.5126572
   4.2707872   6.4463835  25.7481937   4.5542960   7.2394748  26.2030125
   4.9177094   5.7850928  25.9939938  -0.0260753  27.0444870  26.9026165
   0.5500264  26.9411945  27.6600266  -0.0013338  26.1935120  26.4650536
  33.4141960   2.6544447  41.8176041  32.7476997   3.3349783  41.7233162
  33.1453476   1.9694474  41.2054482  58.0948410  37.1490822  14.2604055
  57.7478065  37.9847450  14.5726051  58.8288956  36.9610786  14.8452578
  11.5377731  46.0525360  26.7392864  12.3519840  46.2648125  26.2829647
  11.0191374  45.5730667  26.0932541   6.1395292  49.7396164  24.8050594
   6.1488137  49.0571823  25.4762001   6.7198415  50.4197273  25.1469898
  57.0093918  17.0273495  48.3585663  57.8115158  16.5186062  48.4769325
  56.5648384  16.9739113  49.2045860  39.6565361  32.5687256   5.6362982
  39.8570442  31.6957378   5.9738173  38.7058029  32.5700417   5.5252485
  63.0733833   7.3030877  13.2018280  62.2289009   7.6091919  12.8711014
  63.1014404   6.3759909  12.9653196  84.0572510  47.6033211   5.3972945
  84.4292526  46.8946342   4.8723059  84.3506622  48.4035492   4.9616580
  43.1602135  26.1334267  78.3684616  44.0611076  25.8843899  78.5748749
  43.2168999  26.5439205  77.5056076  23.4266567  59.0395203  28.3197517
  23.1842709  59.1056328  29.2433910  22.5974312  59.1188850  27.8482456
  73.5568619  16.9016094  14.9664669  73.6700134  17.2240086  14.0723267
  74.4031372  16.5144138  15.1903563  30.3339252  65.2467728  40.0263557
  30.1807480  65.0359955  40.9474106  30.8640594  66.0434723  40.0479317
  12.3811178  26.6735344  32.9917641  12.2842588  27.0321827  32.1095963
  12.3726406  27.4405136  33.5643959  42.6034317  56.3539429  14.7339306
  42.1505203  57.0452118  14.2509747  43.1707191  55.9396858  14.0836954
  31.3114777  71.6726685  47.2760239  30.6930389  70.9514999  47.3929787
  31.8274708  71.6788254  48.0822144  65.2801285  48.2081833  79.4744492
  66.2288895  48.1129761  79.5583038  65.1352005  48.3477325  78.5386353
  77.5320358  10.1808720  55.7000694  77.2735825   9.4226818  56.2240753
  78.1836700   9.8383141  55.0883064  81.3262558  16.1497784  60.1486244
  81.3476486  16.1525021  61.1055832  82.2251282  16.3511009  59.8883820
   6.2910266  38.7874031  67.1393585   6.6666961  38.1105080  67.7023163
   6.9267821  38.8899498  66.4311676   3.3264272   7.0134254  29.1783237
   2.8032615   7.1015701  29.9750423   3.9725742   7.7171888  29.2369995
  62.2749634  34.4881935  41.2667007  62.3464088  35.2977333  41.7724380
  61.3986969  34.5220490  40.8829765  62.0614624   1.9585279  22.4400024
  61.6644707   1.1546767  22.7753391  61.4164200   2.3051343  21.8235493
   8.9096155  28.4589405   7.5637479   8.7729769  28.1113682   6.6824107
   9.8562527  28.4094391   7.6966357  24.9152126  17.0180302  34.3366776
  24.1044083  16.5094929  34.3220253  24.6753693  17.8622646  33.9546127
  65.5992355  12.6495991  56.6632233  65.4030838  11.7787867  57.0088272
  66.5262909  12.7825441  56.8610039  18.4572887  12.1433983  39.8093414
  17.5749741  12.1009884  39.4406166  18.8551826  12.9069710  39.3911667
  65.6547699  19.5210495  83.7495651  66.3224411  20.1226711  84.0789566
  64.8971024  19.6713104  84.3149033  77.7767792  13.6758289  45.3266983
  77.1390762  14.3831301  45.2303391  77.3819199  12.9333897  44.8694229
  19.1748199  10.4709520  42.1762466  20.0850868  10.7084169  42.3530388
  18.9464779  10.9663801  41.3897057  42.7797470  54.9154091  62.7975349
  43.0708389  55.5250778  63.4756203  42.1765900  54.3250771  63.2491302
  58.7103539  70.3546753  18.6991653  58.6992493  71.2728653  18.9694004
  57.9920158  70.2812271  18.0708141  71.5234528  15.6921492  60.1345940
  72.3461838  15.6161385  60.6178780  70.8481750  15.7108908  60.8127403
  13.2422962  16.0284958  86.0046234  12.4203577  16.0315647  85.5140762
  12.9818134  15.8452311  86.9072800  46.3009338   3.0339322  57.4884949
  46.5992546   2.1484885  57.6964073  45.6451569   3.2290967  58.1578941
  51.9097977  17.4359970  44.7759933  52.4372177  16.8472309  45.3158188
  51.0846062  17.5236149  45.2530823  31.7222633  59.2686882  35.8571129
  32.5117683  59.6507416  35.4737778  31.0071049  59.6039276  35.3163795
  17.4492550  45.4025040  70.6708221  18.0414009  46.0625038  70.3102722
  16.7716198  45.2982140  70.0028610  35.4102516  41.5444260   1.5488948
  35.6266823  41.5323753   0.6165624  36.1647911  41.1380310   1.9752069
   1.7105303  16.8905296  26.8148918   2.6437633  16.6942348  26.7325764
   1.3910629  16.9178562  25.9129906  57.0371628  12.9393139  22.8332062
  57.5044365  12.4294291  23.4949493  56.6058846  13.6359720  23.3280792
  17.2579174  63.7389526  14.5854187  17.1041050  62.8691864  14.9543009
  17.0772343  63.6381302  13.6508493  76.5971069  28.4903870  68.0247803
  76.1535034  29.3342342  68.1106339  76.9723892  28.5055637  67.1443405
   9.4925146  71.3841858  44.5228310   8.7195492  71.4278641  43.9599380
   9.2692366  71.9271469  45.2788582  75.5579147  51.5712624  11.9336748
  75.0892487  52.3851089  11.7486506  75.0112915  51.1212158  12.5777950
  47.7798271  19.5991364  81.9613419  47.9623299  20.4688416  81.6056213
  47.1106300  19.2381344  81.3798828  35.1239471  19.0451984  27.5882702
  35.6574249  19.8131409  27.3835831  34.8020935  19.2066383  28.4751625
  13.2632389  16.3326702  75.0082703  14.0828648  16.8103027  74.8805466
  12.5973930  17.0159702  75.0856323  55.9109421  41.3805199  87.2258377
  55.3915634  42.0779419  86.8257446  56.7734985  41.4605331  86.8186264
  77.0693665  66.2226639  84.4878311  77.9048462  66.5629883  84.8078003
  77.1563492  66.2316513  83.5346375  16.6845684  27.5044937  62.0095329
  15.8252029  27.1647167  61.7599831  16.8841515  27.0667019  62.8370209
   9.0877180  24.7008476  64.9371567   8.8188076  23.7881947  65.0419693
   8.3780279  25.1037045  64.4368744   0.9908153   1.3672839   4.2584972
   0.2875556   1.3327816   4.9069319   1.2775874   2.2804964   4.2645469
  77.8862534  41.0285110  38.3392677  78.5121994  41.6388779  37.9495621
  78.2055511  40.8952827  39.2317543  52.0187340  65.0268478  49.2878304
  51.0957413  65.2595596  49.1870079  52.0551834  64.0942230  49.0754280
  79.6595306  24.2745075  52.1563683  80.5636292  24.1069412  52.4223900
  79.5419540  25.2154541  52.2868462  57.7703171  56.0945969  70.8982773
  57.4999962  56.8307953  71.4470673  58.2897072  55.5399704  71.4803925
  37.3219681   8.2296391   1.3314952  37.4219322   7.2839427   1.2224233
  36.6345482   8.3233404   1.9909683  81.0758820  69.0381546  47.2857323
  81.1437225  68.7142105  48.1838951  80.2853317  69.5778351  47.2848358
   1.9508396  64.1568451  50.1329575   1.9670749  64.6007919  49.2850914
   1.7763513  63.2400894  49.9199982  49.0787621   4.6104598  62.1443596
  49.5737000   5.4297514  62.1500244  49.5536613   4.0479760  61.5325470
  86.3536606  39.4746208  77.6394119  85.8885803  38.7102280  77.2993469
  85.7330475  39.8838959  78.2423782  73.2182083  61.9004173  76.4604340
  73.4641800  61.8183670  77.3818436  72.7847366  61.0724335  76.2536011
   2.2842331  53.5566254  47.5092316   1.8012534  54.3579674  47.3072052
   3.2052033  53.8105278  47.4493942  81.5241547  67.9041290  65.5655060
  81.6532669  66.9789581  65.7743607  81.5526733  68.3473282  66.4134445
  74.3558350  48.9330063   8.2376480  74.0542145  48.1275101   7.8176079
  74.4799194  48.6923943   9.1557655  32.6305733  19.0737762  83.2012024
  31.7713203  18.6990852  83.0074844  33.2324905  18.6035690  82.6242828
   2.6621931   3.7550075  15.6140890   2.8329754   3.6073332  16.5442810
   2.1259351   3.0082772  15.3475304  77.4694901  53.2881699  13.3846579
  76.8737793  52.6551132  13.7853966  77.0547791  53.5134125  12.5518866
  61.7880135  68.3232040  54.7955246  61.8545914  69.2466507  54.5525398
  61.9699554  67.8484268  53.9845276  25.3543015  12.1453447  23.3268147
  25.9519711  12.5818367  22.7197742  24.5644512  12.6859379  23.3155403
  80.3191376  48.6948853  87.7922745  79.3878021  48.5611839  87.9682541
  80.3432770  49.1011047  86.9258881   2.3708861  20.1679878  58.7095680
   2.2145863  19.4382629  59.3089867   3.1243327  20.6263905  59.0816116
  63.3398933  39.1010513  57.2662735  63.4258881  38.1633415  57.4381409
  63.5529709  39.1949120  56.3378220  40.4023399  71.9316864  44.1702538
  40.0700378  71.0368881  44.2419739  41.3252106  71.8266296  43.9389420
  76.0319519  58.6906624  28.1356125  76.6577072  58.0304642  28.4336147
  76.3036423  58.8911514  27.2399464  19.2891865  61.2819328  72.3620453
  18.6322727  61.9756546  72.3033447  19.1896629  60.9321251  73.2474594
  53.2708740  53.4572525  22.6722679  53.8466721  53.9340363  23.2700710
  53.1038666  54.0728989  21.9586029  14.6112700   9.8151522  58.8066101
  13.6730165  10.0046530  58.8074150  14.9957981  10.5069218  59.3449631
   6.9297667  13.5155153   0.0811135   7.4294949  13.8056374   0.8442212
   7.5923243  13.1984053  -0.5326381  46.9956894  46.9714241  84.2696609
  47.4741821  46.1874199  84.5391235  46.0825119  46.7799797  84.4834137
  18.4093800   7.1328483  12.8180599  19.2714787   7.3599987  12.4696054
  18.5582943   6.3337245  13.3234873  52.1441154  39.2399712  81.2533417
  51.9544640  38.8354263  80.4068146  51.2859688  39.3548241  81.6615372
  56.0785370  40.0206947  13.6511717  56.1503372  40.8577728  13.1924992
  55.9396248  40.2607269  14.5673161  31.7375126  19.0294304  85.8671951
  32.6525269  18.7728882  85.7524490  31.5151310  19.4914207  85.0588989
  40.3566895   1.4397839  10.8679247  40.8093796   0.6004947  10.9509735
  39.4338531   1.2054493  10.7694645  39.6043930  11.0575314  60.2932091
  38.9851418  11.7597132  60.0939636  39.1709366  10.5416937  60.9731064
   9.1167631  69.5282822  68.9748764   9.3036909  69.4297333  68.0412979
   9.0580215  68.6311417  69.3033905  56.4796448  65.4802628  37.6331139
  56.5311050  64.8841324  38.3802490  57.3350296  65.9092026  37.6095963
  30.6662674   9.2635441  11.6036901  30.9388523   9.8261108  10.8788128
  30.1408463   9.8337793  12.1649361  46.5925598  21.7512398  80.1178284
  46.9542465  22.6086483  80.3420334  45.9019432  21.6060734  80.7645187
  50.4970627  26.8246498  85.9018402  49.9933701  27.3261852  85.2607574
  50.2650871  25.9123936  85.7280350  20.4342327  69.6079178  36.4218178
  21.2793674  69.8852158  36.7754860  20.3786068  70.0386200  35.5688019
  30.7378101  21.5139332   3.4619234  30.7982922  22.1376839   2.7383845
  30.3068600  22.0020332   4.1635437  23.4988003  10.5121183  57.3582954
  23.1223106  10.6870041  58.2207947  24.4243565  10.3400230  57.5313988
  48.8631554  17.6206875  10.2500296  49.3055496  16.7831898  10.1117735
  49.0437469  18.1211815   9.4543381   9.9629507   2.0338120  78.8087311
   9.1871233   1.4748230  78.8517990  10.6993713   1.4223599  78.8152313
  70.8252563  39.8245964  77.2816086  70.5623779  39.9089966  76.3650970
  70.1497955  40.2962990  77.7689362  48.2961693  15.3108320   7.3114452
  48.8504639  15.5933104   8.0389042  47.5336304  15.8879118   7.3532300
  13.2028112  16.8286304  40.9695435  13.8661118  16.4295940  40.4064865
  12.7544546  16.0862675  41.3746452  28.0182323  62.5632439  15.3907280
  27.5137177  62.9612236  16.1001701  27.6995296  62.9955521  14.5984106
  79.6117554  66.6534882  43.4669266  79.4154816  66.8657379  42.5544243
  79.5931244  65.6970291  43.4997063  15.4973755  66.6496506  66.0042114
  16.3506699  66.4346390  65.6275330  15.3962002  66.0374832  66.7330780
   5.7076430  45.1207542  16.0518360   5.0233192  45.0519104  16.7175636
   5.3005729  45.6146660  15.3400946  86.7718506  62.7272110  26.1794453
  86.4701233  62.5412025  27.0685959  86.2526398  62.1459045  25.6238041
  21.1670818  63.8004189  20.6907330  20.5745468  64.3426971  21.2113705
  20.8100739  63.8394127  19.8034592  13.8488550  55.6028099  21.4299374
  13.8039560  54.6942024  21.1321945  14.7656784  55.8496246  21.3084908
   4.9844775  33.9836197  44.5472374   4.6005406  34.3022308  45.3641243
   5.5339661  33.2461014  44.8125000  53.0636520  63.8324585   2.7464356
  52.8628540  64.6218262   3.2492437  53.4902802  64.1559601   1.9529830
  40.5853310  27.8711014  87.3518524  40.0956192  28.3195076  88.0413055
  41.4834061  27.8345070  87.6810150  72.3069153  47.9095917  39.1068268
  72.7193756  47.3626022  38.4383125  71.9522400  48.6544800  38.6214638
   8.0601387  34.7464294   9.3812428   8.6982937  34.0649529   9.5923862
   7.3854680  34.2941475   8.8747911  55.5917473  52.7760315  39.6338348
  56.3078270  52.8243141  39.0004883  56.0176697  52.8770599  40.4850769
  27.9545479   5.1687059  74.8777466  27.2745342   5.7611957  75.1983261
  28.7739964   5.5551353  75.1866302  65.8301773  50.4722061  12.8911419
  65.7953568  50.7822952  11.9862318  65.6973038  49.5265465  12.8255529
  80.0464325  36.0487404  18.5093575  79.9209824  36.2255745  17.5770359
  80.9584732  35.7666931  18.5790443  44.6090164  30.7771549  80.6663895
  43.6682434  30.8476963  80.8282394  44.8502464  31.6209831  80.2842941
  58.5224113  49.8534203   7.9726691  57.7224236  49.3296585   7.9287696
  58.4464111  50.3383408   8.7944403  18.4183273  22.9190731   5.7745399
  18.8251953  23.7203865   5.4450178  18.7158279  22.8551159   6.6820831
  79.6517410  18.1380558  21.4333687  80.3713074  17.6393623  21.8203602
  80.0828400  18.8137989  20.9101562  50.2144852   0.7377535  40.4158440
  49.5195923   0.0877759  40.5201912  50.2991104   0.8479627  39.4687843
   5.9035239  54.0941925   7.1307106   5.3906460  53.8183289   6.3710480
   5.4016438  54.8160591   7.5092044  68.5726776   7.2670574  54.1837387
  67.7160873   6.9308004  53.9202690  69.1390762   7.0954566  53.4314270
  51.4815636  13.4093637  14.7340803  50.7023735  12.9554873  15.0551605
  52.1107941  13.3423166  15.4522753  78.7353363  46.7737503  12.4109316
  79.3985977  46.9595261  11.7462454  78.8883591  45.8604736  12.6532888
  10.9453554  37.9149284  71.7176208  11.8300352  38.2480431  71.5672607
  11.0774565  37.0339890  72.0679474  28.2000580   4.9616103  48.8132248
  27.3197365   4.7322359  48.5154762  28.0791111   5.7618599  49.3243065
  21.2989979  34.5124435   6.0548191  20.6857395  33.8040047   5.8592105
  22.1607361  34.0963593   6.0321150  11.3068247  27.9721260  17.2174206
  10.9264593  27.5577717  16.4429131  12.1055202  27.4729824  17.3882217
  38.2390709  53.9848976  16.1097412  39.0927849  53.7785606  16.4902973
  38.3989296  54.0178757  15.1665611  75.0919952  34.1101990  86.5771408
  75.3578033  33.5976372  87.3405838  74.5236816  33.5220337  86.0798264
  17.6485596  60.7272301   0.7873399  17.2927151  60.7212868  -0.1012382
  17.1137695  61.3685684   1.2552248   7.8492279   6.5169497  46.3494530
   7.6082888   7.2942185  45.8454361   7.7108369   6.7707963  47.2619476
  82.3345413  26.6553726  39.7295341  82.6818008  25.8419571  39.3634796
  82.4471588  27.2997723  39.0307503  18.0170841  67.7265854  83.3636551
  17.4942589  68.5199585  83.4795761  18.4416180  67.8415985  82.5134888
  85.3139496   9.3884916  18.7263012  85.4101868   9.2884207  17.7792244
  85.6952667  10.2455978  18.9165573  34.4640961  64.4481659  14.0592203
  35.3517609  64.3433151  13.7167463  34.4636612  65.3166733  14.4616251
  66.0280838  61.1074181  15.5215187  65.4555130  60.7965622  14.8202600
  66.8000259  61.4460793  15.0680408  35.4432068  54.6813316  50.9749947
  36.3382263  55.0197678  50.9498558  35.2425880  54.4668045  50.0639725
   7.5772700  60.3658943  19.9931412   8.1296453  59.6262093  19.7402020
   7.7160625  61.0152397  19.3037071  50.8208160   2.4836266  34.4115944
  51.1114922   1.6049613  34.1672859  51.6220703   3.0072222  34.4201851
  23.4592819  56.3529739  39.4706764  22.7584858  56.4297867  40.1181450
  23.6579361  55.4170341  39.4426460  66.7570648  37.0204315  44.2459641
  66.1874924  36.4760857  44.7895699  67.6438217  36.7927246  44.5253258
  61.2113876  51.4967613  44.4959221  61.8477211  51.2594528  45.1704559
  61.2583160  50.7824593  43.8604698  50.2034035   5.1013198   2.6726234
  50.3252335   5.8068047   2.0372648  50.8655739   4.4510236   2.4383609
  17.7566471  38.5153961  71.6375427  17.2930641  38.5821686  72.4723282
  18.4603310  39.1610756  71.7020416  11.8587818  45.9847298  36.3130722
  12.5814152  46.1472549  36.9193878  11.1591530  45.6324730  36.8632240
  64.9314041  61.7287598   7.2241492  63.9751968  61.7685623   7.2064257
  65.1330948  60.7941322   7.1791153  62.3550682  11.0056467  41.7929611
  61.5245667  11.4716721  41.6964035  62.8349457  11.5056820  42.4531975
  56.7970238  51.5733719  80.4562302  57.0863991  51.7679825  81.3476486
  57.5887413  51.2781715  80.0064850  63.5119476  46.4528427  57.7728500
  64.2318344  46.8307991  58.2779694  63.4091492  45.5693512  58.1265564
  38.1203766  13.5218878  30.8840637  37.2157326  13.3265314  30.6397476
  38.4903755  12.6741266  31.1302986  21.6287804  21.1201687  82.3194046
  21.3842773  20.2799892  82.7074127  22.1332035  20.8864059  81.5402145
  15.9335680   4.0715013   9.4781322  16.3766022   3.7427094  10.2603407
  15.6404848   4.9499631   9.7202873  23.4609280  54.7783661   0.3393512
  23.5864334  54.7586632  -0.6093806  23.8335133  55.6165771   0.6128792
   4.3346429  29.8615093  68.7299728   5.0964236  29.4508629  69.1389847
   4.2690907  30.7182789  69.1517334  81.6222839   5.0323863  47.6594658
  82.3355560   5.3545022  48.2105713  80.9387436   4.7754407  48.2783241
  62.3736038  64.0735168   1.1352329  63.1642952  64.4608994   1.5106962
  61.8396149  63.8366814   1.8935169  15.5804653  63.0976944  34.7564850
  14.8148642  62.5233116  34.7434158  16.2998428  62.5449104  34.4512596
  19.7282677  37.0087585  25.3287907  19.8348236  36.0598907  25.2614784
  20.3790607  37.2774544  25.9772511  78.7811737  41.8325081  45.1136284
  77.9101486  42.0238876  44.7658844  79.3369217  41.7548752  44.3381615
  42.9201622  33.4990387  30.1432323  42.6565781  32.7784462  29.5709591
  43.3492928  33.0715942  30.8844261  72.3126678   4.9862127  29.2003899
  71.6805038   4.6933742  28.5439968  73.1348419   5.0748239  28.7183056
  52.6117859  53.5547943  67.1091766  52.9683876  53.5965958  66.2218628
  51.6635857  53.6066399  66.9889221  18.6291008   3.2440832  52.7902412
  17.9268513   3.6988125  53.2553215  18.2203941   2.9360235  51.9813614
   4.5690193  57.7355080  57.7880173   4.3222394  58.0786858  58.6468315
   4.1526823  58.3299561  57.1638947  13.1823587  22.0980854  86.6475067
  13.9853497  22.3569412  87.0996475  13.4851046  21.6914787  85.8355637
  27.4023457  55.6539497  73.9724808  27.2930393  56.3397408  73.3137054
  27.4991283  56.1282921  74.7982254  32.5007591   4.0098014  50.2781258
  33.0429649   4.7588630  50.0308380  32.4483833   4.0567951  51.2327385
  80.9337692  14.6603203  31.6425934  80.2031631  15.2428150  31.4348927
  80.6284332  14.1515894  32.3937225   4.2851324  67.1801682  82.8541260
   4.8079805  67.7507477  83.4174271   4.6974206  67.2505646  81.9931412
  77.2967758   0.6143076  76.5157242  77.2111359  -0.2651316  76.1476440
  78.1949081   0.6497743  76.8448563  75.7585068  26.7514400  49.4493599
  74.9797821  26.5340958  48.9369431  76.0010986  25.9299240  49.8765564
   0.4489810  69.9022675  57.4072227   0.2729371  70.3925705  58.2102432
   0.1831881  70.4931793  56.7026596  45.6731796  39.4792633  74.3064117
  45.2688980  39.2258987  73.4765930  45.9972496  40.3669090  74.1537857
  14.9010124   4.6733146  30.5460091  15.2856865   5.4744573  30.9015770
  13.9562998   4.8058596  30.6246395  54.5645218  11.2985420  16.6943130
  54.6931496  11.9506474  16.0055141  53.6800308  11.4654207  17.0199718
  72.1762695  51.8858833  74.8214569  72.9481125  51.8971252  74.2554398
  72.3457184  51.1783638  75.4435043  70.1555710  48.0885811  88.3261414
  69.4354019  48.4617805  87.8179016  69.8451385  47.2190247  88.5785980
  24.6898918  15.5373182  80.1613617  24.2022152  14.7357826  79.9717789
  24.4056683  15.7883949  81.0402298  43.8445015  12.0828304  85.9554443
  44.1808586  12.9561310  85.7543411  44.6262779  11.5606279  86.1353378
  76.1466675   6.1960673  32.4395065  77.0824738   6.0742726  32.5997009
  76.1016006   6.9365692  31.8346462  57.4319725   3.5547431  59.2916870
  57.4709740   3.4458256  58.3415031  57.8680763   4.3910275  59.4550056
  73.1007690  18.4280891   8.8912306  73.5379028  19.0270882   9.4964933
  72.2955246  18.1761932   9.3433056  44.7027283  71.6497726  38.1118698
  45.4561577  71.2184143  37.7087517  43.9486923  71.1381683  37.8187485
   3.9401205  52.5702515   8.8247976   4.7284303  53.0909081   8.9787979
   3.4333348  53.0833817   8.1954365  28.3238239  40.3345184  21.0415668
  29.1375179  40.6568756  21.4291477  28.4424839  39.3861160  20.9897346
  62.0224838  63.0603523  24.0917625  62.4825020  63.1534386  23.2575264
  62.4865074  63.6480484  24.6880264  72.1022491  64.3805313   0.7194220
  72.1617813  63.4869041   0.3816105  72.2521210  64.9362030  -0.0454349
   3.2424641  60.1393051  12.1939478   3.3036351  59.1988869  12.3615885
   2.3996391  60.2498169  11.7538748  52.6381950  37.6584778  21.1435184
  53.1293716  38.2161560  21.7468204  52.9948311  37.8672943  20.2801304
  72.5138245  51.0139656   5.5335526  73.3227234  51.0939522   5.0280762
  72.8068008  50.8904114   6.4363990   4.5527096   3.7402534  81.0624084
   4.4783192   4.6428304  80.7524796   4.7240214   3.8225045  82.0005569
  31.4945965  62.2513809  75.0498428  31.5950089  61.5433121  75.6860657
  30.5814457  62.5246315  75.1377182  83.2529678  32.2152061  49.2254372
  82.9976120  32.5174713  50.0970230  82.9503174  32.9047890  48.6345825
  49.2088318  18.8826389  74.3630676  50.1645851  18.9351902  74.3630295
  49.0006790  18.3051586  73.6286163  54.7455940  33.4807434  87.1509552
  54.6470947  33.0006905  86.3287125  54.1157341  33.0714149  87.7442093
  80.4709320  37.5529175  39.8895683  80.8029251  37.4738998  38.9952698
  79.6662292  37.0345879  39.8929901  30.2442360  23.6002884  12.3971853
  30.3544655  24.5441380  12.5121908  30.9472046  23.2118397  12.9179287
  39.2826004   3.3167622  45.1776047  39.1257210   2.3799081  45.0596008
  38.4113617   3.7117116  45.1431236  61.7790146  63.9719543  77.4811707
  62.6757355  63.6973572  77.6728058  61.2304459  63.3333054  77.9366150
   4.6414046  17.2916679  75.1035690   4.5703540  16.7100163  74.3466949
   3.7633975  17.6586285  75.2068939   3.8528092  67.4701004  14.2072926
   4.7186303  67.5035629  14.6140680   3.3261611  68.0884323  14.7137899
  77.9435120   5.4179626  64.9610367  77.5731049   5.6257405  64.1032181
  77.1816940   5.2901931  65.5263138  35.3319473  34.8067894  86.2538681
  36.2366180  35.0938721  86.3778992  35.0692177  34.4666061  87.1091309
   1.3029923  27.0367279  39.6347237   0.9865667  26.3676853  40.2417564
   0.9409658  27.8562851  39.9716187  14.9081297   3.3448386  68.3727417
  14.5766420   3.2108724  69.2606659  14.7001028   4.2579174  68.1746445
  17.5768280  11.7648048   9.1447697  17.5137081  11.1099100   8.4495287
  18.0236473  12.5059729   8.7358036  36.0432625  59.2389221  55.2921410
  35.3155022  58.7452126  55.6700859  36.8060265  58.9714050  55.8048439
  57.5904655  56.8868065  79.8780594  56.9445114  57.4675140  79.4758682
  57.1204300  56.0643730  80.0155258  47.6015701  68.1093826  76.1264420
  48.0477219  67.2698059  76.2372971  48.3002815  68.7242279  75.9028244
  53.8312683  67.6512604  76.2287750  53.5206451  66.8205338  75.8687286
  54.3961563  67.3993835  76.9593201   5.6106319  33.7363052  18.2056274
   5.4711118  33.5327454  19.1304665   4.7449937  33.9856834  17.8820343
   5.0511584  24.5237751  60.7335854   5.3552995  25.3843212  61.0220146
   4.5433989  24.7021351  59.9420052  54.6508026  56.9872093   5.2601633
  54.3171921  57.8499031   5.5065317  55.6005173  57.0621605   5.3531685
  45.1325912  68.3124313  32.6764984  44.7532387  68.1191940  31.8191891
  44.5312004  67.9073105  33.3013458   5.4346972  17.2275791  12.8512058
   5.9923568  16.4678574  13.0187511   6.0477052  17.9529419  12.7316151
  72.8619461  58.7142868  26.2765255  72.0364151  58.5121498  25.8362236
  73.5371170  58.3941154  25.6783066  82.8638306  46.6939163  62.5218620
  83.5296936  47.0853424  61.9564934  83.2577972  45.8759270  62.8250351
  69.3927383  43.4323807  72.9527283  69.3120575  43.9848022  73.7302551
  68.6619644  42.8176956  73.0187607  28.4452057   7.2071371  40.7935486
  28.9299698   6.4515781  41.1257668  28.7073555   7.9296274  41.3640900
  27.0592842  15.2919664  44.1215897  26.2766876  15.5110865  44.6273155
  26.7940426  14.5487461  43.5798302  72.7055893  69.5736694  44.2241249
  73.2538605  68.9542542  43.7425003  71.8722916  69.1168823  44.3390045
  72.2360306  54.2026253  72.8406219  71.9759064  55.1166573  72.7261124
  71.9241714  53.9727058  73.7158966  14.1059904  54.9113770  16.7080917
  14.6077547  55.1707497  17.4808712  14.4319477  55.4786377  16.0093822
  86.0310898  27.3361053  82.3272171  85.8977585  28.2071667  82.7009888
  86.9252701  27.3561020  81.9862213  75.6850967  30.5533695  15.6330891
  76.3056030  29.8980618  15.9521132  75.5619736  31.1471710  16.3736763
  13.8223591  35.9765205  66.5365829  13.5643110  35.2828903  67.1436386
  14.7646370  35.8547440  66.4203262  67.9924088  48.8632698  82.3798904
  68.5072098  48.4518661  83.0741272  68.5865860  48.8990898  81.6302872
  60.7440033  14.4914074   9.1469688  61.1351433  13.6545935   9.3979406
  61.4313469  14.9385452   8.6531487  75.2104111  51.7160225  56.3007660
  74.6611099  52.4442902  56.0107231  74.5889282  51.0430031  56.5783234
  36.1697578  10.7480831   6.7124605  36.8013992  10.6842527   7.4288311
  36.7025185  10.9338875   5.9392371  14.5549936  71.3386688  28.6073933
  13.6564226  71.6516571  28.7115154  14.6013460  71.0415649  27.6986504
  38.4192429  33.9851608   1.7379802  38.2514877  34.8089600   1.2803262
  38.1492271  34.1534119   2.6407619  70.9107056  67.5947952  55.7071342
  70.2381439  67.1057510  56.1811981  71.3280487  66.9433060  55.1435547
  75.7632294   6.6721897  21.4230404  75.1206741   7.0710564  22.0097809
  76.2525940   7.4127388  21.0647945  79.2413864  47.1409836  77.6719284
  80.1727524  47.1388245  77.8927841  79.1971893  46.7145729  76.8160934
  75.3411331  59.6080780  70.5837326  75.5092545  59.5262566  71.5224915
  76.2086716  59.5712433  70.1809387  -0.2978866  15.7100744   9.8854103
  -0.0962403  14.9219799   9.3809528   0.4282145  16.3055382   9.6998520
  15.7941093  22.9987526  87.8050156  15.9484825  23.9151726  88.0343094
  16.6287994  22.6978321  87.4458923  48.6931534  57.5722733  61.9888039
  48.6119194  56.8070374  61.4195557  49.5494995  57.9415016  61.7729912
  33.6584167  60.4813805  17.2754078  33.7788773  59.7905045  16.6239395
  33.4407997  61.2593918  16.7620125  17.4099731  65.7530365  25.6948910
  17.2675304  65.2206955  24.9122314  16.5297585  65.9908600  25.9862556
  61.6860352  25.6192245  69.0893478  62.1892281  25.8883533  68.3208466
  61.8330612  26.3167133  69.7281952   5.1061215  53.8302193  47.2796822
   5.3408976  54.7165298  47.0047913   5.5419297  53.7181358  48.1245155
  75.5917130   3.6456723  34.8182259  74.7594070   3.6568878  34.3456001
  75.8714066   4.5609865  34.8324738  66.8695831  45.2409668  74.3374252
  66.3948822  44.8266563  73.6168442  66.3704910  45.0057564  75.1196136
  62.5833359  15.3434505  67.9561539  63.5337563  15.3022633  68.0621643
  62.3513260  14.5086813  67.5492630   5.1941280  57.2682495  81.2102356
   5.3127980  56.3797302  81.5459213   4.6322956  57.6955070  81.8567886
  65.4112778  70.9736404  82.3504486  65.2389908  71.7478027  82.8863754
  64.8809586  71.1037140  81.5642776  41.6565666  70.5527115  25.6894588
  40.7302589  70.7285843  25.5243607  41.6628036  70.0418549  26.4989166
  77.0387344  65.2030411  29.6379585  77.5441895  64.7219315  28.9827576
  76.8313751  64.5506134  30.3069687  46.9153862  32.8001366  85.3920441
  46.9644165  33.7527237  85.3119965  47.3009186  32.4713745  84.5799408
  70.3808365  67.6593475  71.4374390  70.9097595  67.1251526  72.0299759
  70.6499329  68.5592880  71.6216431   6.3010359  65.3249130  78.9248276
   5.8417735  64.6912613  79.4759979   6.7435856  65.9049454  79.5444641
  22.3149834  18.4531765  84.5767899  21.6032352  18.6414795  85.1884995
  21.8872852  18.3942966  83.7224884   2.3665614  27.3295727  42.9329681
   3.1645930  27.7741261  42.6470490   1.7200158  27.5414677  42.2596855
   6.1593237  59.6799393  10.0026150   6.4349246  60.5957413  10.0423546
   5.5988379  59.6318779   9.2281609  32.4145584  38.0869026  78.4255524
  31.7091713  37.4640465  78.2503052  32.1092300  38.9088097  78.0415268
  76.0612411  69.6259079  67.9101257  76.6670456  69.5229187  67.1762161
  76.0410309  68.7643585  68.3267288  77.5378342  65.4297791   8.6776066
  76.8030930  65.3736572   9.2885389  77.1927719  65.9217758   7.9325528
  67.5857697  38.5118637  56.1168404  66.9489212  39.0501404  56.5868607
  68.1322937  39.1422539  55.6476364  82.7380905  58.6853142  52.3810539
  83.2737122  58.7157593  53.1737747  83.3703232  58.7213402  51.6632729
  19.5862236  28.4391251  69.3593521  19.0139885  28.8603611  70.0007095
  18.9972572  27.9026279  68.8287659   4.5119576  54.2967567  27.5767574
   4.7268806  53.9026604  26.7313442   4.2642908  53.5561142  28.1302357
  26.1173820  15.0541573  50.3524857  26.8059139  15.6711140  50.1044579
  25.9490700  15.2416391  51.2759323  53.4493294  66.3402481  57.9867249
  54.1321564  65.8858643  57.4932594  53.9063225  66.7124557  58.7409439
  43.6163788  41.5085220  79.6351166  43.8080826  40.5998268  79.8669586
  43.3353386  41.4683037  78.7209854  28.7950230  53.0842743  23.4524460
  29.1445656  53.6818237  22.7913952  29.1940384  52.2390099  23.2461796
   6.7379541   1.2640374  38.4988327   6.5530033   1.9177696  37.8245506
   6.6932554   0.4259542  38.0385628  80.4944534  61.4221992  70.1568985
  80.7020569  62.2584381  70.5738297  79.5388184  61.4121208  70.1030807
  41.1792908  60.3676949  70.7636948  41.8586197  59.7644844  71.0651627
  41.2416573  61.1151848  71.3583374  70.5194168  56.7462196  33.0619659
  70.2687759  56.0322609  33.6482048  70.4575119  56.3686256  32.1845703
  12.1651278  48.9178429  52.1609726  12.2088232  49.5602417  52.8692436
  12.7758274  48.2293282  52.4240837   9.6373825  40.4412651  83.7794418
   9.4090118  39.5309906  83.5910797  10.1837234  40.3937149  84.5639725
  62.7478943   3.3797581   5.1634531  62.4776764   3.6669831   6.0356426
  62.6969070   4.1693511   4.6247745   3.0669005  49.4133263  47.1585693
   3.5728741  48.6446037  47.4218025   2.5732284  49.6549759  47.9422302
  13.0154696  38.0761948  49.5545959  12.7645493  38.4380493  50.4044952
  12.8014050  38.7669868  48.9275284  51.4228897  17.2506542  26.3931351
  52.1887321  17.8111343  26.5179520  51.7870255  16.3919716  26.1779556
  85.1574554  51.8390388  18.2541428  84.5600128  51.7813034  18.9997730
  84.8134079  51.2078285  17.6221294  50.7252693  43.3848763   7.8757105
  51.3811798  44.0734444   7.9847455  49.8862343  43.8416557   7.9357748
  86.4031372  47.8956795  15.5966015  86.7928238  48.2164726  14.7832928
  85.8718719  47.1460304  15.3282566  31.5782490  11.8834829  26.1272602
  31.2747593  12.7910442  26.1058311  30.7753181  11.3629274  26.1508503
  59.0646973  40.9289627   7.8611426  58.2561035  41.2247047   7.4428825
  58.8522339  40.8917809   8.7937241  30.1805649  54.8858223   4.9547400
  29.9617023  54.0023994   4.6582670  29.4470787  55.4258270   4.6604204
  77.1069641  70.8483276  86.7792130  77.1389160  71.8027191  86.7132339
  76.5913467  70.6798935  87.5678787  34.5077972  30.2543030  72.3763733
  33.7248650  30.2736015  71.8260269  34.1711922  30.2686958  73.2723160
  61.2254410  44.3427353  54.8585014  61.2096252  44.6930962  53.9678688
  62.0736427  44.6156654  55.2082176  52.8905258   1.0942138  88.3526764
  52.9335670   0.3324172  87.7747116  52.2624931   0.8452188  89.0307693
  22.3279514   8.2700310  84.5298386  22.9199963   7.9031253  83.8732605
  22.5887928   7.8495183  85.3492050  43.1139641   1.8870159  79.8202286
  43.9824638   2.2640498  79.9608688  42.9369926   1.3889229  80.6182327
  60.2645569   2.6991413  48.6328278  59.6533585   1.9839230  48.8092613
  59.7086258   3.4736261  48.5471268  66.1410828  57.9975662  23.2163353
  66.5028000  57.3186417  22.6467266  65.2008591  57.9844856  23.0373516
  79.7116089  27.3661671  24.5404091  80.6410904  27.2948723  24.7576981
  79.3969727  26.4621754  24.5345898  81.4979324   0.3589451  49.9110298
  80.7563019   0.5252807  49.3291779  81.9739532   1.1890243  49.9356117
   7.9102306   8.3273811  41.1893616   7.0669084   8.7721024  41.2745819
   8.0697298   7.9486609  42.0538635  63.6834221   8.5801754  19.4088497
  63.2204132   8.0307245  20.0412712  63.0048523   9.1468029  19.0418282
  11.2361107  57.9615097  75.1830750  10.7078590  58.1353188  75.9621582
  10.5991106  57.7192039  74.5109482  65.7352371  68.9303665  46.8656998
  64.8036270  68.8028641  47.0448341  65.9982376  68.1412811  46.3919907
   0.8417711   8.9547033  70.1600723   1.3377678   8.5306501  70.8603592
   0.5174251   9.7649956  70.5530853  73.4595795   8.6055412  77.6311874
  73.0350113   9.4398432  77.4313965  73.4482346   8.5538521  78.5869293
  62.0552025  34.6508446  82.0244827  61.2127380  34.6954765  82.4766922
  62.6404114  35.1921692  82.5543213   8.3019094   7.5660005  43.6333733
   8.8671732   6.7937393  43.6154671   8.8703671   8.2718153  43.9414520
  18.1517773  35.8577652  15.1415634  17.6096745  36.6278343  15.3128881
  18.5039349  36.0033150  14.2634802  26.2785416  57.1757965  57.7427788
  26.2931175  56.3995552  58.3026619  25.5561314  57.7033195  58.0834770
  81.1682281  21.1731682  46.2278214  81.7754288  20.7119122  46.8064270
  80.3085175  21.0387688  46.6266518  60.3203239  14.8451862  59.8979034
  60.3046532  14.4453697  59.0283432  61.1236000  15.3656483  59.9077721
   6.6389809   3.2717652   9.4594107   6.0584326   3.6944687  10.0922756
   6.4288054   2.3403358   9.5264730  60.5139046  27.1786728  88.8786316
  59.7355156  27.1030502  88.3266983  60.5390587  26.3581734  89.3709488
  56.8418503  58.0787239  74.1724091  57.2694435  58.8827934  74.4671402
  56.9780350  57.4586067  74.8887482  80.8046494  65.2500992   5.2534328
  81.2342453  64.9222412   4.4633727  79.9485931  65.5542145   4.9519334
  66.9248047  71.3688202  74.3305969  66.8322372  70.5483398  74.8148193
  67.8519669  71.5921097  74.4127426  77.0300598  25.0179195  65.6236496
  77.9631271  25.1606293  65.4647675  76.9867020  24.1560936  66.0379028
  72.9345016  47.8610573  24.4756603  73.1147156  48.8011208  24.4702644
  72.8654709  47.6251030  23.5505695  39.4298477  46.1460342  39.7160873
  39.6152611  46.9735374  39.2721329  38.6619339  45.7979240  39.2629242
  26.4037476   7.0486021  68.4544373  26.6787796   6.2356439  68.8783340
  25.4660206   6.9332671  68.3008194   0.6630408  24.6071186  25.7746410
  -0.1363780  24.3836193  25.2979774   1.3701626  24.4211750  25.1568756
  18.2776623  58.6107826  84.3469315  17.8383617  57.7611923  84.3849792
  19.1863174  58.4212570  84.5807266  72.8497849  65.4261475  58.5504913
  72.4176025  66.1144257  59.0561867  72.7977219  64.6502686  59.1086426
  43.8451538  70.3419418  60.1411781  43.7334557  71.2912369  60.0902252
  43.4310608  70.0089798  59.3450012  19.0577297  70.0342102   2.8750844
  19.8861980  70.3247070   3.2565079  18.9307270  70.6036072   2.1162112
  35.3294334  54.2996483  14.8632174  34.5298538  53.7804604  14.7774839
  35.0329704  55.1401405  15.2123766  43.3441124  36.6929283  73.3237839
  43.8217278  37.2650871  72.7231674  44.0262604  36.2721519  73.8470993
  76.9980164  22.5747013  82.4133453  77.6783066  23.1818237  82.7046127
  77.3644104  22.1616402  81.6314468  40.4052353  58.3099670  67.7679214
  40.0495529  59.1797867  67.9499435  39.6370010  57.7727509  67.5744019
  79.2392273  13.9701385  47.6219864  78.7774200  14.7076206  48.0208397
  78.5958252  13.5743074  47.0341263  30.7255783  14.4522600  26.1360130
  30.4791660  15.0977478  25.4735489  30.9214191  14.9719601  26.9156208
  58.5488892  64.3109055  10.6475544  58.3089943  63.6041260  10.0482693
  58.7201958  63.8710632  11.4802761  10.3213749  23.2167053  20.1299152
   9.4287462  23.4062729  20.4188995  10.4027033  23.6697159  19.2906303
  39.6535454  57.6840668  38.2121429  40.2472343  58.4085884  38.0150757
  39.7583885  57.5374222  39.1522141  49.9974518  57.3152008  79.9683609
  49.2834816  57.8729515  80.2772141  49.9536781  57.3765297  79.0141296
  79.7490692  16.5850334  12.7693853  80.5640106  16.0829639  12.7650681
  79.9985962  17.4437580  13.1107903   0.6977490   0.0226187  41.3222656
   0.3107151   0.8966295  41.3726807   1.3320107   0.0823856  40.6078644
   5.1947074   4.7840209  88.3372879   4.3426290   5.0992093  88.0358734
   5.6769004   5.5787010  88.5657730  45.1775970  55.9866600  86.2550583
  45.4572296  55.7003365  85.3855438  45.9052086  56.5184212  86.5776138
  19.3301525  57.7101479  13.0321960  19.1956100  58.5118904  13.5375109
  20.2728062  57.6860580  12.8677111   5.5288687  30.8344631  17.4687500
   5.6709442  31.6501007  17.9491501   5.5930948  31.0850029  16.5471554
  78.9626312  44.2402649  11.4131727  78.8761520  44.9117622  10.7365294
  78.1637192  43.7186508  11.3364592  84.5421219  62.7174644  56.6122627
  85.3099289  63.1689491  56.9627914  84.8799896  62.2057419  55.8772659
  25.8644047   1.0516247  38.6118355  26.0249939   0.6129811  39.4473190
  24.9109993   1.0650918  38.5277557  61.8882713  29.4120502  14.0658445
  62.8060493  29.1446571  14.0167150  61.5040092  28.8300648  14.7214870
  73.9832993   8.1397820  72.5954361  74.7847824   8.6163931  72.8115234
  73.9490128   7.4271159  73.2335358  60.0022354  12.5902433  19.8648167
  60.6596069  12.0726690  20.3298035  59.4868240  11.9444361  19.3815842
  78.0000000  58.6911354  33.3660698  78.0866165  59.6033936  33.6426697
  77.0945435  58.4622154  33.5757790  36.5052147  59.5264740  26.8741207
  36.9080849  59.0976372  26.1191216  36.0224266  60.2640877  26.5011978
  21.7523403  10.7441835   9.3023529  22.0177097  10.6041193  10.2113047
  22.4888668  10.4185648   8.7849226  54.0634117  46.7115898  80.5203476
  53.1168594  46.8190193  80.6137466  54.1910324  45.7657776  80.4469452
  82.0047302  27.6414890  78.6520996  81.9615784  28.5775871  78.4569244
  82.8329849  27.3545742  78.2675095   4.4796624  67.2742081  49.9043732
   3.9036124  67.9458542  49.5392799   5.0481119  67.0244217  49.1758804
  73.1754761  69.9697037   6.3206143  73.4131699  70.4140320   7.1344366
  73.3549423  69.0450974   6.4913034   8.5470209  55.5766258  26.7778091
   8.3951387  54.8725395  26.1473942   8.2704105  55.2099724  27.6176205
   6.1457567  56.7118759  27.7502766   5.6128526  56.1783142  27.1607399
   7.0436511  56.5819855  27.4450779   4.3424106   4.3055530   2.1175110
   4.6970410   4.4681625   1.2434248   4.9652166   4.7257166   2.7106442
   5.3709254  15.8966484  22.6740723   5.2893209  16.6187038  22.0510082
   6.3053284  15.8613186  22.8787041  83.1447449  70.2872238  13.2969885
  83.6484375  70.6011200  14.0479851  83.7494125  69.7140579  12.8257294
  15.1051569  70.7053299  43.1813583  15.8700027  71.0661163  42.7329407
  14.3731155  71.2402191  42.8743629  68.4332428  14.9920664   2.1078956
  67.7605133  15.4631433   2.5995803  68.6852646  14.2676268   2.6805222
  46.8131332  24.1282139  84.8288498  45.9164391  23.8135185  84.9434814
  47.2947693  23.3666897  84.5058365  71.1236725  12.0963888  28.2809181
  71.5877838  12.1595898  29.1156902  70.2395020  11.8174515  28.5189667
  73.1710281  14.7694273  64.8946152  73.6164093  14.8308115  64.0495682
  72.2581711  14.5872746  64.6715622  47.3120117   0.3135152   7.3400254
  46.6068268   0.1876434   6.7051253  47.1887589   1.2068640   7.6609116
  13.3809700  65.2386703  10.5696335  13.6700096  64.6319885   9.8879967
  12.5359468  64.8921051  10.8561001  39.0714188  67.9844131  55.2334137
  39.2365761  67.0416336  55.2222481  39.4872360  68.3098907  54.4350433
   7.5872455  36.6473808  88.6440659   6.6739988  36.5937920  88.9257431
   7.5410194  36.6938629  87.6891174  82.3715134  46.2824249  44.6848183
  83.2520447  46.6563110  44.7180138  82.5083771  45.3693542  44.4322128
  65.7416534  56.4306984   4.8304605  66.0003662  55.5649071   4.5146980
  64.7921982  56.4551811   4.7114496  17.3459969  56.0229034  71.4408188
  17.0912838  56.5602036  70.6907120  18.2296772  55.7212143  71.2302856
  38.6302795   1.4233376  71.2676926  37.8827400   1.9017597  71.6262054
  39.3333130   1.5680918  71.9009628   7.3385825  17.4168358  64.6362457
   8.0557470  16.7848454  64.5862961   7.5857258  18.0035515  65.3510361
  21.6300430  50.4513626  65.7856522  21.9901714  50.9963303  66.4853287
  21.8605175  50.9132729  64.9795837   9.8228931  12.4634161  79.6084747
  10.7501745  12.2260189  79.6134415   9.5287199  12.2614985  78.7202606
  43.7350121  66.9965210  77.1258698  43.2294960  66.4907608  76.4895630
  44.1124115  67.7136078  76.6163788  69.7718124  29.8452129  69.2374878
  69.9058838  30.2082634  70.1129608  70.6026154  29.9949722  68.7862854
  42.7600136  33.3967018   0.7683856  42.8390617  32.7026253   1.4227862
  42.7969055  34.2083473   1.2744501  19.7585430  27.7833061  27.9554844
  18.9765148  27.2341366  28.0109520  20.4686317  27.1703510  27.7649822
  50.2208481  68.6599960   3.5553491  50.3805656  68.7578049   2.6166499
  49.6457062  67.8977890   3.6223052  64.6201859  31.5604935  14.7383547
  64.7046738  30.8630352  15.3884659  65.3394470  31.4056072  14.1260633
  60.1054573  29.6166477   7.5296807  59.7625542  30.2234535   8.1857557
  60.9119110  30.0291061   7.2202539  16.2300243  27.9934883   4.3268199
  16.5012665  27.5397282   5.1247931  17.0160103  28.4552994   4.0349522
  77.7920380  11.5665674  40.7920036  77.2442093  12.2150898  41.2341995
  77.6805725  10.7675953  41.3072243  26.9424133  49.8211517  10.8094635
  26.6142864  50.7041702  10.9792976  26.8580647  49.7123642   9.8622141
  21.1571503  61.0507393  51.7408600  21.4169445  61.9719772  51.7484627
  21.3903236  60.7289352  52.6116676  24.0384789  39.0246010  13.6666470
  23.4886093  39.2533646  14.4160080  24.7765102  39.6320763  13.7168102
  75.7893982  63.1032982  50.5699539  76.5026627  63.0384903  51.2050018
  76.0890198  63.7580109  49.9392319  10.3419828   9.5380669  86.3847427
   9.5790596   9.6338310  85.8146439  11.0888586   9.7408075  85.8214417
  23.0702991  58.2892303  18.5168552  23.4958572  57.9716072  17.7204590
  23.7877979  58.4156990  19.1376896  41.1872520  21.1825981  41.1988335
  40.5046539  21.8036842  41.4528885  40.7165527  20.4787521  40.7524300
  12.1593132  12.1779118  69.8387604  12.4534187  11.8393307  70.6843948
  12.7876110  12.8677883  69.6253510  74.3215179  24.1312351  19.5565128
  74.1121368  23.6214771  18.7738628  75.2739334  24.0731735  19.6324673
  65.7804642  41.5752792  84.0632629  65.4741592  41.6393242  83.1586609
  65.4736252  42.3817101  84.4776917  77.6220703  40.3630524  83.7115326
  77.7028351  41.0551224  83.0552216  77.4341049  40.8272896  84.5272446
  29.7423668  40.8378220  16.8109512  29.0448303  41.0736656  17.4225483
  30.0046482  39.9560204  17.0752735  86.9679108  36.2499504  57.7207718
  86.8337173  35.4249382  57.2543221  86.1354675  36.7138901  57.6311913
  51.3306885   5.8981061  65.7288589  50.9706993   5.0556464  66.0061646
  50.6267624   6.3046713  65.2234573  34.9194946   1.2917254  11.7709913
  34.0454330   1.4718198  12.1171274  35.4248123   1.0074071  12.5326033
  22.2717609   9.9551477  67.5603485  23.0287971  10.3149948  67.0981369
  22.6102562   9.1787786  68.0063400  46.6215630  46.6462860  33.6293411
  46.9396553  47.2425232  32.9514389  45.7119446  46.4720993  33.3875122
  79.2311630  17.7891064  69.5885239  78.9594727  16.8768120  69.4878464
  79.9590836  17.8912907  68.9754028  38.2461777   7.5896382  48.0213623
  38.5260048   6.7707500  48.4304466  37.4625816   7.8450317  48.5081749
  59.0597839  70.2263412  85.5914230  59.2925072  69.4703903  85.0523376
  58.3162231  70.6238480  85.1382828  24.5902042  25.1264286  17.6231709
  23.9590492  25.1312237  18.3427887  24.8202648  26.0473995  17.5002270
  23.6773834  71.6639023  16.1174545  23.0350800  72.2751617  16.4780560
  23.2285614  70.8184509  16.1153908   5.2520819  65.0243835  10.7010889
   4.9363689  64.7727890   9.8331833   4.9408674  65.9219589  10.8182583
  18.6595058  47.8306236  30.3380470  17.8652668  48.0455933  29.8489609
  19.0214214  47.0693588  29.8844757  17.1760292  16.4874973  70.5224686
  17.7683392  17.0677567  71.0006943  17.2382545  16.7786331  69.6127472
  59.8429375  15.9858799  13.7869558  59.3899727  16.4962196  14.4582291
  60.0578194  15.1591702  14.2189369  11.7748766  10.6881819  81.5683670
  12.3419542  10.9768696  80.8533096  11.8452768  11.3813868  82.2246780
  15.2131310  51.4478531  48.4014664  15.2935839  50.7693710  47.7310791
  15.8942213  52.0835457  48.1818199  31.9182796   5.2136655  68.3035278
  32.8532410   5.1877432  68.5070114  31.5280266   5.6972761  69.0315704
  74.2937317  43.6664085  57.6513023  74.1635208  43.6340027  58.5990486
  74.0415726  44.5563965  57.4051857  71.5922394  41.2169876  72.4733429
  71.0669250  42.0117416  72.3803406  71.1785431  40.7392120  73.1922455
  20.3473396   9.1378698  64.9946671  20.7888508   8.6243963  64.3181763
  20.4303608  10.0446291  64.6995010   3.8493135   4.8794479  58.3178329
   4.6273065   5.1989636  57.8608131   3.5301147   4.1599922  57.7731056
  50.7762833   2.1726522  83.0176697  51.3420296   2.7625659  83.5158310
  51.3779564   1.5447859  82.6176682   3.4489570  65.2596130  66.3575821
   2.9812360  64.4370499  66.5020065   4.1949239  65.0177917  65.8086853
  15.8417950  20.4997082   4.0829625  16.0499210  21.0305347   3.3141081
  14.9571619  20.7704678   4.3286152  37.9133568   9.4110699  54.6470184
  38.6381798   9.7431622  55.1767082  37.1561050   9.4408245  55.2317581
  14.6759062  28.9804401   8.4952803  15.0725088  29.8514004   8.5144548
  15.3192415  28.4148579   8.9224434  74.7812042   9.7371492  40.7232361
  75.2213135   8.9013748  40.5682602  75.4788132  10.3898535  40.6636963
  52.1300163  63.4684334  54.2973061  51.6391754  63.0692863  55.0156326
  52.9542046  62.9823647  54.2712364   5.8267326  37.1600571  80.1509857
   6.0260739  37.8252831  79.4922256   5.5126920  37.6573677  80.9061661
  62.9981346  49.9189529  17.9987431  63.7368050  49.4314804  17.6340981
  63.3714981  50.7615128  18.2574368  53.4027748  53.9283447  51.0359993
  52.4515839  53.9445152  50.9301414  53.7067947  53.3064041  50.3749428
  13.4892635  43.8906097  69.1884995  13.5065069  43.5974960  70.0995483
  14.3204460  44.3500366  69.0689316  83.1765060  48.7609444  18.6357250
  82.5419846  48.0590515  18.7805119  84.0290375  48.3317413  18.7078114
  83.1744232  63.9829636  37.5411873  83.5811005  64.7763214  37.1927109
  82.4603577  64.3023453  38.0928612  31.1196690  16.0181026  35.4768486
  32.0361862  15.7463093  35.4282990  30.6242886  15.2325354  35.2450867
  51.7066345  25.5366497  15.3989363  52.5250206  25.3199596  14.9522619
  51.2002449  24.7246304  15.3783283  14.4514313  63.3342438  75.8149719
  14.8729801  62.6304169  75.3218613  13.7085114  62.9124985  76.2467575
   9.7239075  54.0216293  76.8914871  10.4234219  54.6408272  77.1000748
   9.5279160  53.5922661  77.7242355  43.6745987  46.6213951  33.2330322
  43.3349113  47.3085709  33.8062973  43.4820518  46.9309387  32.3479652
  81.6445770   8.4486341  17.1449394  81.8244400   8.4377985  16.2048531
  81.1950989   9.2806292  17.2932243  12.1381969  43.8785324  74.1417770
  11.2215452  43.6468887  74.2911835  12.1958599  44.8008881  74.3911133
  23.3626213  17.5039635   2.3208134  22.5846138  18.0577564   2.3859947
  23.0996208  16.6737423   2.7180481  75.8736343  29.7377300  60.3123016
  75.5152283  30.5218945  59.8965302  75.3265991  29.6059189  61.0866547
  14.6852417  20.7857609  29.8040428  15.3336267  20.5049286  30.4497700
  13.9865274  21.1834393  30.3235455  54.6193848  70.8100815  48.7645187
  54.6176567  70.1147614  48.1066742  54.4770966  70.3549347  49.5944748
   7.7087150  35.6027184  24.3103275   7.4270992  36.3893585  23.8432941
   8.1257048  35.9330101  25.1061020  54.8208160  56.9320831  22.6179237
  54.2123718  56.4758110  22.0366821  55.2937813  57.5348091  22.0441151
  75.1177292   1.6250014  40.4732513  74.6619949   2.1947505  41.0928650
  74.4865646   1.4855136  39.7672729  14.0684338  64.9801865  69.5473404
  14.9398508  64.7608414  69.2175674  13.5294275  65.0662079  68.7610168
  15.5184698  13.0623169  56.7255096  15.5274658  12.9605026  55.7737846
  16.4364033  12.9795494  56.9839287  62.4461288  42.0957146  78.9923325
  62.7979660  42.7604561  79.5844116  62.2866058  42.5647507  78.1733093
  47.9467583  21.4036789  35.9117279  48.5478973  21.7355003  36.5786285
  47.1169853  21.2863846  36.3742714  52.9020233  20.9336967  27.5893459
  53.4055901  20.7696686  26.7920094  52.0177994  21.1279602  27.2784748
  18.5253029   3.2973871   2.8417511  17.5786476   3.4058125   2.9329586
  18.8899498   3.7064722   3.6265526  28.6135139   3.7383544  26.0868034
  29.0338326   4.3011408  25.4365444  27.6931000   4.0007176  26.0714989
  39.9521828   6.7088614  66.3209457  40.6541748   6.0586891  66.3476639
  40.0215988   7.1707635  67.1564407  34.6146545  54.4355431  85.2383881
  35.3217735  54.7842369  85.7811813  34.8918800  53.5439377  85.0276337
  78.7016449  32.5395584  40.1154633  78.2349396  32.3626671  39.2986794
  78.5280685  31.7727146  40.6614075  70.6186295  67.8620758   8.6169987
  71.4825821  67.7582169   8.2182140  70.2443161  66.9811249   8.6104021
  82.2523499  36.0997543  45.1206017  82.1194992  36.1452446  44.1737595
  81.8115540  36.8778343  45.4619637  30.1427231   5.5917778  56.2954292
  29.7103977   6.4207373  56.0901184  30.1597462   5.5610051  57.2519836
  73.8672028   8.8568535  54.2191505  74.0131073   9.7990541  54.3040085
  73.3320694   8.6279573  54.9790688  56.8310013  27.0407276  31.0675793
  56.3429680  27.8112850  30.7772369  56.2801056  26.6498318  31.7457733
  61.0610924  38.1272583  77.6692200  60.9922295  38.2393646  78.6173325
  60.6693268  37.2703972  77.5002747  22.3994923  39.0978775  23.5729637
  22.9944515  39.4020004  22.8875694  22.9010067  38.4360924  24.0491505
  10.3363028  39.6815109  29.3659935  10.4344110  39.3656845  28.4677410
   9.5029802  40.1524734  29.3646164   6.3014655   8.7501183  46.2530556
   5.9676719   9.1531334  45.4515610   5.5962148   8.8641090  46.8901291
  55.8027840  49.8655815   6.1117177  55.8034019  49.0683899   6.6415472
  55.4443970  50.5379639   6.6911063  77.5099335  52.7598457   0.3267643
  78.0580597  53.3078651   0.8884257  78.0820999  52.5143814  -0.4002900
   9.3749866  21.9325829  80.1685562   9.1973085  21.3905964  80.9372711
   9.7061291  22.7558994  80.5273438  55.4432945  26.2858543  14.4348698
  54.9138756  25.4992332  14.3038111  55.1411629  26.8931713  13.7595091
  28.3625011  37.5274391  20.8313541  29.2242126  37.4758759  21.2449093
  28.3283272  36.7653503  20.2531796  43.6824493   0.2438039  24.5225449
  43.2397842   1.0256050  24.1922894  43.0037346  -0.2311386  25.0021420
   7.1375084  47.8702965  20.9105968   7.6828775  48.4708939  20.4025745
   7.4986858  47.0035248  20.7248859  71.9692459  29.6864300  59.3403549
  71.6908875  28.7872124  59.5140114  72.5540695  29.6146641  58.5859909
  30.0319099  60.3216400  52.8545876  30.5890274  60.4454651  52.0861359
  29.2008171  60.7326012  52.6166191  14.8381100  22.7771339  49.8855972
  14.0560560  23.3286991  49.9056244  14.5004196  21.8859043  49.7966690
  64.9380875   3.8993895   7.0938916  65.8580933   4.1571956   7.0359926
  64.6590347   3.8014839   6.1835198  46.4881096  13.7809935   1.6335807
  47.1595802  14.3967896   1.3400619  45.7871170  14.3359833   1.9753846
  38.3314133  56.9736900  14.1675940  37.7778053  56.7612076  14.9189930
  39.1093521  57.3793221  14.5503521  11.8897409  10.4059372  16.0849552
  12.4041815   9.6291323  15.8655062  11.0359926  10.0615902  16.3471947
  73.3246384  60.0142555  19.8292503  73.9627991  59.5688286  19.2719631
  73.8262329  60.2858810  20.5979214  14.1686058   1.5783266  14.3296556
  14.3387547   1.0768099  15.1270027  13.6551971   0.9866901  13.7795563
  50.5972214  29.6443920  64.0059357  50.4420471  28.9440422  64.6397018
  49.9009781  30.2791042  64.1751099  28.5507259  28.7857265  24.2616138
  27.7405167  28.6194115  24.7434139  29.2330551  28.7849350  24.9329262
  62.2592659  60.8992920  39.9594002  62.8919792  60.2034149  40.1373405
  61.8909340  60.6753082  39.1047668  86.6584778  31.8908043   4.9357681
  85.9487381  32.1547470   4.3502483  86.9670105  32.7101555   5.3226752
  46.4203453   5.2748823  76.9252701  45.8710136   5.7892790  77.5167618
  46.8977356   5.9277244  76.4132843  21.2542210  12.6137495  26.9892788
  20.4543724  12.4298458  26.4966774  21.7806644  13.1525774  26.3987255
  62.8601341  58.3225441  52.6147995  63.6062660  58.2897987  52.0160980
  63.1178055  58.9563942  53.2841835  54.1517906  71.2085876  42.3701553
  53.3108253  71.6655045  42.3548088  54.3736382  71.1463470  43.2992096
  20.3368301   7.9411550  88.0756302  20.3114758   8.6754541  88.6891403
  21.2400780   7.6268454  88.1154633  53.3181343  23.8419151  69.5503159
  53.9217415  24.5491791  69.3230133  52.4584236  24.2616005  69.5818253
  13.2622690  22.3210964  18.7434521  14.0712442  21.9062214  18.4440002
  12.8148842  21.6394253  19.2448521  66.8217773  52.9608612  27.8826675
  66.4284592  52.0888519  27.9162426  66.9477539  53.2022820  28.8003159
  42.8535881  49.3866348   4.6428847  42.4119377  50.0808144   5.1320624
  42.5506935  48.5757446   5.0514712  74.2131653  49.2092896  50.4194069
  73.3190918  49.0119705  50.6985474  74.5635986  49.7664604  51.1143799
  16.5331059   5.1578770  55.5760727  15.8721352   5.7629647  55.9125519
  16.2035198   4.8972144  54.7160378  78.6192627   4.0446954   3.3517962
  79.1757812   4.3296633   4.0765829  79.1584167   4.1724548   2.5712693
  84.8438644   2.4282746  36.4419441  84.7198334   1.5053116  36.2206078
  85.1783371   2.4166687  37.3387260  27.7010098  61.3563766   0.7823105
  27.8385353  60.4890327   0.4014762  28.5794830  61.7305794   0.8492951
  76.0563507   2.0294538  56.7800407  75.8420792   2.4266856  55.9359283
  75.2528687   1.5816725  57.0448799  56.9448738  17.6900673  71.4694061
  57.0714073  18.6263103  71.3155594  56.3456383  17.4123287  70.7765808
  68.4505997   0.3834282  37.9580345  68.3127289   0.6770638  37.0574799
  69.1295319  -0.2878600  37.8897934  82.3515472  19.0214500  34.7449341
  82.2752838  19.7257175  34.1011772  83.2742767  19.0284328  34.9993973
  81.4748230  47.5988770  11.3284864  81.7686996  46.7913132  11.7500439
  81.9886780  48.2888412  11.7481689   4.9979739  13.6796904  27.9091663
   4.1724882  13.9301167  28.3240070   5.3321595  14.4928656  27.5306206
  41.8625679  54.0208054  16.1067810  42.1572685  54.8050842  15.6438665
  42.3639793  53.3072281  15.7122822  41.3558159   8.8183336  30.2369556
  40.7182198   9.0395870  29.5581703  41.8038673   8.0421219  29.9008350
  84.9540710  49.7853584  69.8650742  85.5606918  49.9346733  70.5903015
  85.0513382  48.8556786  69.6590042  69.0571518  11.8501234  12.5789499
  69.4535522  11.7632046  11.7120361  68.9349594  10.9490442  12.8778763
  52.9513626  18.0875721  10.6645203  53.7212219  18.3215637  11.1829786
  53.1374626  17.2049103  10.3443527  16.9213581  19.6095867  79.7092209
  16.1127014  20.0614281  79.4680862  16.8816090  19.5400887  80.6630707
  18.7751656  25.5831051   4.8260951  19.4128857  25.8744164   5.4777718
  17.9245434  25.7737751   5.2214656   5.5440145  13.7734623  10.2349386
   4.6220694  13.9745426  10.3956118   5.8152270  13.2657270  10.9997139
  25.4412384  64.6671143   3.0719311  26.0545902  64.0128174   3.4064837
  25.9955273  65.3999405   2.8036745  18.1967373   4.1499901  25.3701210
  17.6809483   4.4843702  24.6363754  17.5589237   4.0208721  26.0720844
  64.0789642  52.3292389  22.5912247  64.1604156  52.9679947  23.2994537
  63.1684685  52.4033966  22.3053417  75.5598450  36.0782547  30.0966129
  74.7079697  36.0853958  30.5330658  76.1854324  35.8873520  30.7954865
  66.7418518  41.6859741   0.4166281  67.4009933  42.3353500   0.1715196
  66.4664993  41.2987747  -0.4143285  82.3961487  38.6380997  65.2017288
  82.5365372  39.0736885  66.0424347  83.2431030  38.6930199  64.7591400
  77.4874420  59.7679596  41.5023270  77.3988800  59.8292122  40.5512009
  78.1512756  60.4210968  41.7236214  58.3783951  70.7025299  55.5596504
  58.3132324  71.5031738  55.0391235  58.9913101  70.9222260  56.2612915
  20.9826431  43.3650360   9.4607267  21.4234409  44.0097885   8.9073544
  20.0497112  43.5270615   9.3206654  23.3581791  14.3136673  45.5154343
  23.1020107  14.1389732  46.4210205  22.6496010  13.9419231  44.9901199
  38.0878677  31.4212685  80.6420517  37.3778877  31.6005878  80.0256042
  37.6942787  30.8491554  81.3008423  61.0739021  16.6696472  81.7716064
  61.0554619  15.8423491  82.2527161  61.7344093  17.1948128  82.2234497
  65.5458527  47.0247040  65.3118362  66.2164078  46.4395599  65.6642609
  64.9074478  47.1112900  66.0197754  66.0031433  17.2530861   8.6439533
  66.5234756  16.6271439   9.1476212  65.4453125  16.7086258   8.0884199
  52.9250984   9.8175421  73.0469971  52.4840584   9.0459223  72.6915817
  52.2241402  10.4569426  73.1737137   9.6725836  68.5855408  31.1103687
  10.2050257  69.0154114  30.4410801   9.4542971  67.7337494  30.7321682
  84.0449753  34.9711304  29.1171322  83.2271805  34.5716782  29.4135780
  83.7679901  35.7055054  28.5692234  67.8357315  14.8177843  50.3683434
  67.6057281  15.6996746  50.0757713  67.2311859  14.2440023  49.8976707
  75.6145172  65.5638351  80.2360001  75.2419510  64.7690811  79.8541489
  76.2254028  65.8846741  79.5725937  41.2794838   2.8314092  16.2700653
  40.7728310   3.6354833  16.3840828  41.2859230   2.4273050  17.1377563
   7.3889503  26.5950279   9.3212738   7.9269080  27.0817890   8.6968555
   6.4972615  26.9039841   9.1610565  34.8114166  51.4533081  80.9685669
  34.2963600  51.1397629  81.7119675  34.9285622  52.3884850  81.1357651
   4.7244315  64.8866501  37.3299637   4.5698471  63.9433556  37.3802490
   4.8865638  65.1513901  38.2354240  46.7139511  39.0161781  18.6772881
  46.6596222  39.0886078  17.7243805  45.8024025  39.0085640  18.9692707
   7.0634136  64.0703964  54.0135078   7.2342415  63.1524849  53.8025665
   6.2679272  64.2841644  53.5259285  40.6257324  42.1083908   5.7144217
  41.2940292  42.7746353   5.5540128  40.9194527  41.3486214   5.2117171
  86.4084549  22.5685635  48.1367683  85.8553162  22.6862640  47.3644905
  87.1465073  23.1614552  47.9953651  68.4810333  15.1433258  25.3611259
  69.3820496  14.8252268  25.4178352  68.3796844  15.4142942  24.4486923
  33.8941498  15.0058880  22.3022995  34.0378036  14.2297077  22.8437214
  33.7029305  15.7033081  22.9294128  11.5279589  56.7476730  19.9419632
  10.9518480  56.3403854  20.5888348  12.3940239  56.7324829  20.3493118
  52.3325958  64.4347000  60.4008255  52.7453728  65.2952194  60.3275986
  52.4394302  64.0432587  59.5338821  68.0674515  34.3937988  41.5830765
  68.9152222  34.6281586  41.9607010  67.5580444  34.0648804  42.3237152
  60.1196938  24.6012383  55.2828979  59.8842773  23.7469635  54.9209290
  60.6192627  25.0271130  54.5862694  17.2451973  55.4164772  25.5308170
  17.1350479  56.1449432  26.1419086  16.3563862  55.0959015  25.3775940
  22.7479553  51.3340797  75.2782745  23.0963440  52.2148781  75.1402359
  21.8087769  51.4195900  75.1143723  54.3609352   2.1871445  45.4466324
  55.2865715   2.4073434  45.5512466  54.3601532   1.2573727  45.2191353
  37.5464287  42.1381226  81.3464584  37.5082436  42.2729950  80.3995743
  37.1680374  42.9352837  81.7173843  79.9904938  28.4520817  11.4243975
  80.6138153  28.0688629  12.0415239  79.1411896  28.1019135  11.6932840
  32.0207062  69.9360733  53.8863258  31.0727673  69.8338394  53.9711456
  32.2917595  70.3465729  54.7074547  63.9864731  57.0647659  42.2671280
  64.0042801  56.2555656  42.7781181  63.2673798  57.5709648  42.6451454
  47.0774231  49.1566467  73.2877426  46.4223747  49.6544838  72.7985611
  46.5656319  48.5714874  73.8462143   6.2879930  58.3780518   2.3387084
   6.1958914  58.6789780   3.2426946   5.6269760  57.6919594   2.2461443
  37.5845985   5.4710903   1.2090708  37.7205658   5.1750927   0.3089983
  38.1394234   4.8964944   1.7365578  47.2770844  16.7997437  21.6064911
  46.5562134  16.3134155  21.2064095  46.8495865  17.5044689  22.0931530
   9.3304548  54.8850136  72.1923523   8.6449642  54.3801041  72.6298447
  10.1103010  54.7458992  72.7296753  66.7575912   3.3934820  12.5994062
  67.1697006   3.3337674  13.4612837  66.4307022   4.2918825  12.5519524
  81.8788834   8.1485033  72.4956131  81.2460098   7.7883706  71.8743210
  82.1047363   9.0067883  72.1370468   1.0945631  27.7741146  51.1058388
   0.8334050  26.8841896  50.8690643   1.1069769  28.2491589  50.2749290
  35.6038246  11.7900276  26.0894394  35.9327736  11.1833324  26.7527237
  36.2349930  12.5096512  26.0890026  69.9307556  65.1256180  60.6430283
  70.6020737  64.4509583  60.7449913  70.4200363  65.9477692  60.6130409
  27.1495934  66.5544815  51.1443520  26.4082699  66.4986343  50.5413971
  27.3373699  67.4909897  51.2069740  71.9377289  52.5777893  13.4753675
  72.2324753  51.9618912  12.8045254  72.7255554  52.7753792  13.9818487
  82.0488968  45.4632072  13.0899410  81.2610016  45.1408691  13.5276051
  82.3996429  44.6981125  12.6340456  66.7077789  39.5256424  60.7556190
  66.4771347  40.1912117  61.4037323  67.6322403  39.3405342  60.9209671
  38.2878036  54.7839355  33.9678993  38.2475357  54.0821953  34.6176491
  38.3359566  55.5874519  34.4858513  49.6875572  57.4461670  83.5657501
  49.6554375  58.3685265  83.3118668  49.1888237  57.4048347  84.3817062
  45.3548584  42.1382523  17.2760525  45.7414246  42.3319397  16.4220715
  45.9685783  42.5136261  17.9074574  23.0488567  59.5134430  49.3580627
  23.7449169  59.6809044  49.9934273  22.3366795  60.0950165  49.6241570
  63.8028793  70.1481247  78.3885422  63.2814674  70.6523743  79.0131149
  64.1679382  69.4302292  78.9058228  70.1658936  43.7688217  59.5262909
  70.9037857  44.2260628  59.1229630  70.1306686  42.9257088  59.0744553
  10.4325323  26.7821903  37.4040298  10.2020044  25.9322758  37.0288811
  11.0454721  26.5743980  38.1092644  27.3133240  67.5812988   6.1111155
  27.0489311  66.7218018   5.7831020  27.2562389  68.1567078   5.3483090
  60.3250732  54.7944679  62.7272644  60.0562057  55.6844025  62.9552155
  60.2302666  54.7519417  61.7757187  58.4591713  16.3607159  79.3985062
  57.6645660  16.5037689  78.8843384  58.4642715  15.4198952  79.5747528
  -0.2839703   7.7348676  61.4909821   0.5323896   7.2764196  61.6900177
  -0.0271140   8.4286251  60.8835678  21.7922916  52.9097404   4.3732805
  22.5096397  52.7753525   3.7539389  22.2168217  52.9290390   5.2309709
  37.4994736  14.9421101  16.1220684  37.8273087  15.7569208  15.7414913
  37.1394501  15.2017097  16.9701385  38.1489220  39.8020248  12.9358931
  37.3586884  39.3067627  13.1514835  38.8065720  39.1329384  12.7460251
  79.3697968  44.4498711  40.9540062  78.8289566  44.2869034  41.7267723
  80.0835724  45.0019531  41.2733192  25.7423229  22.6390896  53.8195152
  26.6250038  22.9585457  53.6322899  25.1637630  23.2634544  53.3817177
  76.4646378  71.3969498  79.4667740  77.1877670  71.9595032  79.7439957
  76.1752243  70.9653168  80.2706223  37.6442146  16.3516884  30.8777409
  37.6395798  16.3601437  29.9205894  38.0727043  15.5272789  31.1079063
  22.4290752  66.4162064  66.6086044  23.1707268  66.8939896  66.9799652
  21.9079170  66.1551971  67.3678818  54.8408775   6.0681796  29.7768269
  54.5289154   5.1646447  29.8271790  54.9811974   6.3242693  30.6883965
  78.3380432  65.5294952  22.3936596  78.4429245  66.4176254  22.0524044
  77.3910294  65.4118347  22.4681988   0.4412999  16.4176865  68.3877335
   0.6150600  16.7457504  67.5054626  -0.2683062  15.7856398  68.2728119
  65.7809601  48.1715889  53.6360207  66.0115585  48.5652962  52.7945633
  66.3567505  47.4105415  53.7101860  31.3527470   4.4613137  18.0589676
  30.4939919   4.5023546  17.6381512  31.2001381   4.7849956  18.9467583
  42.8049164  62.0052261  11.9119892  42.4517059  61.5289421  11.1605740
  43.7506294  62.0176926  11.7646523   0.1823310  28.2812710  34.9826965
   0.8036989  27.9037170  34.3601341   0.4724451  27.9588947  35.8360100
  66.1081238   8.7530966  79.5278702  66.0314331   9.4477186  78.8737640
  66.9082413   8.9643717  80.0089188   1.0994908  29.5537987  40.9777565
   0.2556973  30.0051041  41.0015678   1.7265726  30.2012386  41.2999687
  33.8081932  66.0919342  18.6147346  33.0301132  66.0493698  18.0588455
  33.5639610  65.6115112  19.4057941  74.1747971  27.8321648  23.9770107
  73.5922470  27.9646835  23.2291393  73.6533203  27.3261356  24.6000919
   8.9761009  53.1559143  61.2258873   9.6482277  52.4775467  61.2914352
   8.6048861  53.0415421  60.3510437  67.2058334  52.3858414  83.8169861
  68.1278534  52.6222382  83.9181442  66.7751236  52.7689285  84.5811539
  21.4349422  59.1437874  63.8783875  21.7933502  59.5022659  63.0664330
  21.0671673  58.2972679  63.6246643  18.0312252  15.8111591   8.0553141
  18.4142380  16.5933151   7.6581173  17.2364616  15.6491270   7.5470567
  15.7219219  59.9529190  36.6392136  15.8954144  59.2092743  36.0620461
  16.5354233  60.4572830  36.6311226  80.1545105   1.3885410  54.0998955
  80.4759979   1.8297163  54.8861809  79.6607437   0.6383895  54.4311066
  65.7440872   8.6758270   7.6415443  65.0967789   8.0875607   7.2527413
  66.4922562   8.1121664   7.8384228  20.8705292  63.6270027  52.6756554
  21.7826061  63.8496857  52.4892159  20.7944584  63.7052155  53.6266174
  19.4225712  11.9329338  34.3372345  19.8866425  12.4190702  33.6556625
  19.4798946  11.0184441  34.0603714  76.8006592  44.4975853  39.7957878
  76.5358047  43.5947037  39.9715233  77.7385864  44.5134430  39.9862633
  51.3587112  62.4386902   0.7381272  51.9454460  62.7308540   1.4357023
  50.6644554  63.0973358   0.7175590  71.7698212  55.2380753  11.4487391
  70.8399124  55.0194130  11.3879910  71.8655624  55.6394119  12.3124495
  65.7416840  68.1438446  37.2757797  66.5614548  68.5144196  37.6027145
  65.9977951  67.6403961  36.5030060  26.0745583  57.2895279  88.3872986
  26.0189667  56.4073334  88.0200500  25.2684536  57.3893852  88.8937149
  85.8785477  53.4685555  49.1747246  85.5691452  53.1908035  48.3125420
  85.7735672  52.6943398  49.7277184   9.8724737  32.2511330  77.5368500
   8.9770660  32.2848816  77.2001953   9.9999027  33.0982895  77.9638443
  82.5664520  58.5475464  25.6882744  82.7403183  58.2659912  24.7900925
  83.3448563  58.2813721  26.1776390  31.5431118  16.9701519  17.4084454
  31.9523296  16.4100323  16.7488728  32.2013550  17.0470562  18.0991211
  19.6767311  39.5230255  29.1332054  19.8368607  40.2459221  28.5265636
  19.0720596  39.8839149  29.7815609  53.9897881   3.6529357  25.2309246
  54.1954956   4.4638367  25.6960659  54.3568001   2.9612844  25.7815189
  73.1887589  45.7352638   1.0595428  72.5087280  46.0991287   1.6264560
  73.1520615  44.7917633   1.2166891  20.5946789  19.7151985  16.0093193
  21.3033409  20.1473656  16.4860382  21.0199471  18.9870872  15.5562925
   4.1192842  57.8642960  66.8866882   3.4276922  57.6393318  66.2643356
   3.6736865  57.9136238  67.7324066  69.5102615  14.8969975  74.5505524
  69.6691360  14.0218124  74.9041672  69.4834213  14.7708597  73.6020813
  43.4785309  42.4452972   8.4502287  43.0578346  42.4004593   7.5916038
  42.8308144  42.8703384   9.0123987  23.4582062  51.5795937  35.1476250
  23.2894421  51.0096474  35.8978996  24.0604706  52.2440567  35.4822845
  56.4740334  65.7360001  67.0702438  55.6844330  65.6962357  67.6098557
  56.6118965  64.8341293  66.7806549  70.6028519  46.7548409  43.7580490
  70.9769287  46.4336281  42.9376106  70.2958145  47.6376953  43.5518417
  75.9471207  25.4062271  53.5441513  75.6715393  24.5645847  53.9073639
  76.2053299  25.2058239  52.6444855   0.5693932  31.7613468  23.2998562
   0.3706910  32.4049911  22.6198044   0.7974787  32.2862358  24.0671253
  62.3973198  25.9812679  63.8555908  63.3427658  25.9324322  63.9969597
  62.0463257  25.2204762  64.3184433  10.4812164  62.0143204  78.9805374
  10.7351923  61.8228798  79.8833542  10.1822577  62.9233475  79.0034561
  19.8080540  32.4589691   2.2978396  19.5011063  31.7656555   1.7136045
  19.2565632  33.2121582   2.0861831  58.4797020  47.9046974  70.1996307
  58.2061272  48.1914864  71.0709152  57.7419930  47.3884659  69.8747864
  60.3720169  69.9161758  72.9052505  61.2468224  70.2389526  73.1215057
  60.5135574  69.3088074  72.1791000  81.0939102   8.1935043  79.2238998
  80.9050064   8.5987129  80.0702744  81.2053146   7.2638826  79.4229507
   2.0859632  28.2779045  62.1204147   2.6444228  28.8654671  62.6294556
   2.0898333  27.4572239  62.6130600   4.5281477  64.4249725  48.0041695
   3.6522689  64.6666260  47.7030487   4.9482517  64.0403290  47.2348900
  71.0379715  31.6543159  35.5601730  71.2962570  30.7930737  35.8884773
  70.1298294  31.7566719  35.8448181  80.7333527  52.8697662  67.6005707
  81.0716476  52.4111061  68.3696136  81.5123825  53.0825920  67.0867081
  83.8728790   3.1428998  40.3550224  84.8168869   2.9923663  40.4042244
  83.5496368   2.9244759  41.2291107  41.2264175  69.4362259  20.5724010
  40.7654533  70.1086960  21.0739269  40.6477318  68.6744537  20.6048203
  35.0847015  61.7695732  26.0635109  35.4395714  62.6271820  26.2976189
  34.5623589  61.9327698  25.2781696  61.5756493  26.6191387  25.5122261
  61.0974731  26.6364727  26.3412495  60.9078789  26.7859650  24.8470306
  70.6288757  35.1486664  85.9891052  70.9679489  35.5258484  86.8008881
  69.7261658  35.4628448  85.9377670  42.6998901  25.8093338  85.4555130
  42.1715775  25.2740097  84.8634491  42.8490334  26.6230183  84.9739532
  68.2092438  15.5138769  42.4463844  68.0751572  14.5802965  42.6097260
  67.3293228  15.8596230  42.2966232  44.9610481   1.7232512  51.6928825
  45.3082542   2.4940324  52.1418571  45.3948555   1.7274046  50.8396416
  58.5255966  15.6537752   7.4713326  59.2459259  15.4285908   8.0601015
  58.1096191  16.4123135   7.8809862  86.6263809  32.8089447  62.2946243
  87.5466461  32.8442497  62.5555725  86.1800919  32.4135666  63.0434456
  19.2311134  24.5621643  62.5003662  18.9328213  25.0378056  63.2756195
  19.4480000  23.6879921  62.8244286  80.3032684  66.5670090  74.8234177
  80.6257248  66.8324890  75.6846771  81.0922852  66.4807816  74.2883987
  71.4453049  47.2096252  21.5182972  71.2071075  46.6447449  22.2534161
  72.3544693  46.9807930  21.3251762  11.0245199  15.6779242  58.6107445
  10.2378988  15.5768995  59.1467056  11.7350044  15.7771654  59.2444611
  77.5742111  50.9920807  48.2493820  76.9333115  50.3709297  48.5952873
  78.0077820  51.3461914  49.0258179  49.9737854  14.6627073  60.1877670
  50.3397408  15.5011101  59.9060059  50.6962090  14.2253723  60.6384048
  55.2026863  34.3534355  81.0543747  55.9735298  34.8461075  81.3359756
  55.4869461  33.8954582  80.2633667  63.8324738  36.3420410  71.7853470
  64.3278046  35.9975281  72.5284424  63.2587013  35.6213951  71.5251846
  70.8480759  56.0206223  59.0834656  70.0766068  55.4625854  58.9851646
  70.7457809  56.4207649  59.9469795   2.9915841  16.5596466  12.0298100
   3.8873589  16.3998699  12.3269472   2.9934371  17.4731350  11.7438602
  47.1952209   5.6628852  84.8931961  47.3302994   4.8263593  84.4479904
  47.4877930   6.3201923  84.2618637   7.7034955  35.8742180  11.7472878
   7.9697208  35.5912209  10.8724918   8.5260801  36.0657349  12.1977415
  78.6655960   9.1908693  28.6756477  78.0935516   8.7533216  29.3061581
  78.7928009   8.5459232  27.9798775  27.6382599  14.7922850  59.6906891
  26.6873550  14.7159386  59.7693291  27.7860165  15.0059099  58.7694054
  35.8011360   2.5958581  43.2820549  35.3214111   2.1840119  44.0007172
  35.1213036   2.8712406  42.6670532  73.4352264  27.3896675  19.3653088
  73.4096298  27.9606133  18.5974560  74.1162186  26.7478485  19.1639519
  62.2140312  39.4283485  86.7219391  61.5064011  40.0223732  86.9721909
  62.9414291  39.6668129  87.2966232  32.7814178  62.3964195  63.9075851
  32.3784065  63.1921921  64.2548065  32.0538521  61.9077606  63.5227623
  46.5268707  55.6085701  33.7754517  45.8572655  56.0722771  33.2726212
  46.1925087  54.7149887  33.8525925  75.8790817  61.6715050  20.0564213
  76.7816315  61.8938065  19.8278999  75.9349213  61.3315201  20.9494629
   6.9907751  52.7952194  11.1191587   6.6178589  53.6510391  10.9076529
   6.2666197  52.3093185  11.5137892  49.0438118  66.8613129  47.2546005
  49.6483040  66.5257721  46.5926094  49.5806541  67.4367981  47.7994423
  74.5630569  18.1066933  69.5576324  75.2770081  17.8333607  68.9816055
  73.8909683  17.4351330  69.4412918  20.9555931  56.1080856  77.3515854
  20.3028374  55.8275299  77.9930191  20.9374104  55.4280357  76.6782150
  46.0965347  65.1655502  66.8109818  45.9221649  65.8600998  66.1758270
  46.0263634  64.3556747  66.3056030  78.4069214  48.8592606  79.7504807
  78.7694626  48.3840599  79.0028305  78.8706207  49.6966476  79.7497330
  19.8572388  33.2564926  22.2352448  19.5173912  32.4316940  21.8881969
  19.8101120  33.8643570  21.4973354   9.1985426   5.7744007  69.9465866
   9.5805635   6.5773530  70.3009338   9.5806179   5.0738192  70.4752045
   1.6654062  13.1366072  66.3419266   1.3908536  13.4977236  65.4990463
   0.9821824  13.4105129  66.9538193  79.1851578  59.8960495  62.8462105
  78.6580811  60.2087326  62.1109161  79.2630615  58.9531136  62.7011795
  69.5577927  14.4965639  71.8832016  69.9706955  15.0033150  71.1839600
  68.6357040  14.4475346  71.6310425  40.6331444  55.7180328  80.6001434
  41.0048447  55.2709541  79.8397522  40.3093109  56.5497627  80.2543259
  81.1797104  48.1567345  28.0778599  81.2087479  48.8873329  27.4601097
  80.4820251  47.5909958  27.7470989  54.1573105  35.6071434  23.3869019
  53.4916420  35.9039726  22.7664089  54.9538803  35.5250282  22.8625355
   8.3322897  46.0491257  85.5313568   7.4709744  45.7242317  85.7936783
   8.9415340  45.6307755  86.1396637  52.1295586  57.4240227  85.7184982
  52.8394547  56.8125153  85.9143066  51.4672546  56.8897247  85.2801971
   2.2191741  45.4860649  74.7965012   1.3517612  45.8529778  74.6256180
   2.7816496  45.8805504  74.1299896  67.7551804  65.0079651  75.0496521
  66.9819107  65.5640945  75.1445312  68.4677887  65.6186905  74.8614120
  49.6373825  21.8024158  81.5525818  50.4499893  21.2990856  81.6032181
  49.8381271  22.5217533  80.9538422  70.7640228  59.0786171  65.5667496
  71.5478745  58.8395424  66.0613708  70.8761368  60.0098305  65.3756714
  74.3313675   6.5571618  52.9216537  74.1747818   7.4226170  53.2994080
  75.0876541   6.2196150  53.4015808   0.8983482  35.0767593  33.1922989
   1.5367368  34.4041939  33.4296761   1.4124885  35.7464905  32.7413521
  83.7294083   4.9726210  70.2313309  84.5921021   4.7524781  69.8798676
  83.1471863   4.3017287  69.8747482  56.4469566  16.6900330  19.1125984
  56.3395157  17.5228271  18.6530952  56.9602966  16.9099121  19.8900089
  78.4748993  30.7028751   6.1591778  78.5561447  31.4849529   5.6132956
  77.6809464  30.2716160   5.8431330  86.1353683  71.0111694  64.6223679
  85.1845398  71.0503845  64.5193405  86.3162918  71.5587234  65.3863602
  41.1719055  44.0693703  86.1847458  40.6645050  43.3806610  85.7552719
  41.0064507  44.8519859  85.6590347  83.5850220  13.3450422  10.7184505
  83.2164459  12.6697311  10.1489449  82.9839706  13.3852482  11.4623280
   7.6027980  24.8732777  48.3158112   7.6022582  25.1534271  49.2310982
   7.2398500  23.9877911  48.3361473  15.6419811  71.5460587  37.4538612
  14.7806406  71.5280228  37.0367279  15.5250263  71.0535660  38.2662659
  75.2082901  17.2184753  56.8112564  75.1168518  16.3170700  56.5024872
  74.4720383  17.6835861  56.4139709  71.1373901  16.5357513  76.0035477
  70.5090942  16.2147350  76.6503983  71.0270081  15.9526443  75.2525253
  69.6827087  70.6849442  82.3951645  70.1388779  71.3610840  81.8941879
  70.3832779  70.1562271  82.7771149  62.4167290  49.8057098  20.5346680
  63.3562317  49.9076920  20.6868706  62.3326645  49.7529831  19.5826244
   7.2728119  25.5486565  63.3627777   7.4976563  25.1974030  62.5012131
   6.4043574  25.9336395  63.2452812  71.4513016  16.7522163  88.4013062
  71.9911804  16.2963524  89.0470276  70.6138763  16.2889442  88.4193649
  78.0404892  62.1592979  69.1455536  78.3467331  63.0021324  68.8107681
  77.9807510  61.6010475  68.3703003  59.8754730  22.6358337  18.6346340
  60.5628204  22.1909180  19.1304493  60.0854187  22.4545422  17.7185097
  63.4992485  18.0844078  82.5319366  63.7517014  17.4884853  81.8266830
  64.3189697  18.2783680  82.9865494  85.7414627  13.3942051  46.6512222
  86.4068680  14.0627518  46.8140488  86.1473618  12.5769091  46.9401932
  45.7281418  15.5761595  59.8655243  46.5817032  15.1433649  59.8842392
  45.0954056  14.8607407  59.9291725  11.8167686  12.6958065  87.9646835
  11.7850399  13.6219854  87.7250671  11.7058678  12.6904488  88.9154205
  46.5105667  34.0651169  89.3027802  46.0469856  34.8548241  89.0240555
  47.4235535  34.2268372  89.0650253  30.7303696  37.7620277  22.5758667
  30.8284874  37.4096489  23.4604206  30.9077148  38.6979485  22.6698513
  82.3842163   3.0103209  49.5536919  81.6827393   3.6070142  49.8146782
  83.1851196   3.5256639  49.6496811   4.1421528   2.2187042  35.7559395
   3.8872817   2.2814405  34.8354301   5.0696588   2.4551239  35.7643013
   2.2808993   3.4644012  41.5556145   2.8502724   3.9899700  40.9936333
   2.8466177   3.1850016  42.2754288  73.5331497  53.9469490  77.2790985
  74.4814148  53.9406242  77.4094391  73.3156662  53.0412750  77.0584488
  77.0188293   8.1438932  84.5819550  77.3531952   8.8373213  85.1508026
  77.7954712   7.8023224  84.1387939  79.7579498  63.9258690  54.7810669
  79.9653854  63.0717659  54.4019775  80.5586624  64.1868210  55.2360344
  65.6456604   4.5833073  63.7790298  64.7970352   4.6570749  64.2156372
  65.4313583   4.5181713  62.8484039  70.9429703  21.3786297  28.2897682
  70.5921783  22.0061111  27.6577530  71.5252533  20.8200874  27.7747879
  51.9878044  59.3865547  17.5205936  52.2846184  59.1481171  16.6423664
  51.0644188  59.6123238  17.4082699  74.2552643   0.5250169  44.4406776
  74.5359268   0.5622453  45.3550491  73.3005524   0.4722813  44.4851379
  85.6249847  59.4660797  16.2390099  86.0858078  60.0662994  15.6528282
  86.3141022  58.9099426  16.6024113   4.6132689  40.6989555  79.6769257
   3.7965636  40.4616661  80.1161499   4.5675702  41.6505470  79.5840759
  20.4389324   7.1145396   6.3684468  20.2921810   6.8703961   7.2822790
  19.6768456   7.6454844   6.1370349   8.8473530  22.3267155  77.3980637
   8.1377821  22.9674282  77.3508835   9.1119099  22.3296280  78.3179779
  26.8157558  41.6663055  76.4675064  27.1384068  40.8104935  76.7498398
  25.8738194  41.5410347  76.3522034  62.8069801  11.4722614  24.5055084
  63.4989624  11.8982458  25.0114059  63.2421951  11.1768446  23.7057877
  50.0182648  20.2499542  77.0345078  49.4838448  21.0342102  76.9097290
  50.6999931  20.5200672  77.6497421  65.0262909   1.0462749   2.8367298
  64.3377914   0.5503266   3.2797179  64.5563965   1.7105900   2.3326252
  21.4431000  64.0386276  73.7134476  22.3222637  64.3122025  73.4518051
  21.5434265  63.1212540  73.9675903  57.2128563  43.4823341   2.8855598
  57.4043198  42.5518532   2.7681851  56.9291229  43.7793999   2.0209916
  73.1472549  -0.0384947   8.3975954  73.1734695  -0.3143682   9.3138046
  73.7503433   0.7035149   8.3535366   9.1030674  15.9278736   7.7830000
   8.5592871  16.7132835   7.8435521   8.4795132  15.2021532   7.8102551
  15.9543800  39.9384003   7.8911872  16.2453823  40.7525330   7.4804158
  16.7492580  39.5645828   8.2715321  19.4290028  69.8797226  -0.1037574
  20.1693420  70.2635880   0.3661149  18.7302189  70.5286026  -0.0207676
  71.7602997  63.9330521  21.4847755  71.6412048  64.7357407  20.9771004
  71.2559204  63.2723732  21.0100727  40.7222824  65.6899872  25.2199402
  40.8889694  66.1957016  24.4245186  40.1479912  66.2490463  25.7432652
  82.9170456  28.3238811  37.5923004  83.4919128  29.0626717  37.7921600
  83.4174881  27.7914143  36.9740219  71.5547256  29.1989059  36.6767540
  72.2166672  28.7349720  36.1640854  71.1927261  28.5319233  37.2601242
  24.6530819  53.8604240  36.8895645  23.9609089  54.3114548  36.4061356
  24.4058743  53.9583244  37.8090935  10.3161421  65.6651459  76.3046570
  10.5894489  65.3162384  75.4562454  10.0376396  66.5614166  76.1165771
   5.1766729  52.2634468  60.3800468   5.5913944  51.6491470  59.7743454
   5.4959216  53.1230202  60.1053658  64.3417664  48.9173050  39.0531540
  64.9032593  49.0859985  38.2965126  63.7289009  48.2466164  38.7518158
  38.0938377  43.1225967   6.7770114  38.7968369  42.7498398   6.2449598
  37.2895927  42.8597107   6.3294463  40.3424110  46.4210052   2.4725065
  39.5924873  46.6698685   1.9322140  40.9263992  47.1784973   2.4351664
  67.1154404  62.8253670   8.0914392  66.3922272  62.2540131   7.8330717
  67.2940216  63.3526802   7.3127980  33.2828979  69.8977203  24.8532543
  33.1014328  70.3956223  24.0561371  33.2028275  70.5388031  25.5595341
  22.9601364   9.7542677  13.8933887  23.7705421  10.0033922  14.3376951
  22.3561363  10.4741850  14.0754166  62.8153992  40.9575996  69.5287094
  62.7641869  41.5875473  68.8098373  62.6328316  40.1117859  69.1194534
   5.7212868  24.7563553  35.0741081   5.9235778  25.4450874  35.7073212
   6.3572955  24.0656242  35.2601585  68.9256210  44.3459511   5.7934909
  68.7435455  43.4280434   5.9947972  68.0852661  44.6980820   5.5001717
  73.2481461  14.9825497  37.0012703  72.4951935  14.9964228  37.5921211
  73.0552521  14.2768488  36.3840103  15.1614456  22.9698086  52.6780891
  14.2831421  23.1469860  53.0148735  15.0617228  22.9906521  51.7263260
  18.1218834  21.1461124  73.2483139  17.6843281  20.3002739  73.1516953
  18.9896717  20.9293137  73.5891571  14.2425108  68.1966324  68.1895218
  14.1206245  68.2359695  67.2409286  13.8821831  69.0228043  68.5117645
   3.7770698  19.9371281   2.3248057   3.5219309  19.1311188   1.8759365
   2.9704642  20.2479477   2.7359159  65.6508789  42.8804665   2.7619076
  66.0722885  43.4975548   3.3601103  66.3676529  42.5357246   2.2293448
  51.0152740  47.4654732  32.7785416  51.5886650  46.7391090  33.0231895
  50.1997871  47.2962608  33.2503242  11.6813889  58.6335449  87.2886200
  12.0939255  58.0052490  87.8813171  10.8230190  58.2551765  87.0981750
  81.0428543   0.4072876  66.3165588  80.4059296   0.2162957  65.6280212
  81.8741531   0.5075054  65.8527451  36.9404259  56.2777977  16.6029110
  36.0653343  56.1711922  16.9758492  37.1894875  55.3976135  16.3209915
  84.5188522   3.0554988  26.8898354  84.3505249   2.2236176  27.3324108
  84.6862869   2.8127372  25.9791965  64.5287170  37.0372581  78.7328110
  63.8347321  37.2919121  78.1247253  65.3404312  37.2555580  78.2748795
  78.7160492   5.8329239  40.6704788  78.6429672   5.0961928  41.2772064
  78.0864639   5.6354809  39.9770317  43.0286255  62.7975845  60.2445145
  43.1525688  62.9925423  61.1734161  43.5278702  61.9938164  60.0997887
  36.7303238  16.6720638  27.8379421  37.3770523  16.7592449  27.1376781
  36.1473999  17.4221344  27.7203579   4.8110371  56.2594719  70.9108963
   4.1560373  56.8900871  70.6116791   4.3762870  55.7784882  71.6150818
   3.7108350  51.4905853  67.6242752   4.1780748  52.0285721  68.2634048
   3.8643394  50.5903664  67.9111023  34.6575775  26.8066425   2.0542514
  34.5144081  26.8148880   1.1078552  35.5409126  26.4533463   2.1597874
  62.2759018  28.7718849  87.3507538  61.6599274  28.3714485  87.9643173
  62.6066895  28.0392723  86.8310547   9.4392223  48.4438248  79.1473846
   8.9962111  47.6332932  78.8963623   9.0012684  48.7163277  79.9537125
  15.0425653  15.2078304  36.0326118  15.0524988  14.3609419  36.4786072
  14.2811489  15.6605778  36.3952370  52.7835922   8.7154951  75.6206665
  52.8402405   9.3946667  74.9485397  52.4253159   7.9549394  75.1630325
  48.4343529  13.5417833  51.4832382  47.8561363  13.5827084  52.2449608
  48.8087234  14.4204102  51.4192352  47.9118538   3.7836583  64.5468140
  47.2618713   3.1908813  64.1694946  48.2149773   4.3092718  63.8064880
  19.9876251  63.7375107  77.1825104  19.8134270  64.1058578  78.0486526
  20.3509159  64.4671249  76.6805954  11.9668474  38.1155014   3.1772101
  11.5523462  38.6946945   3.8167062  12.1345558  38.6760902   2.4196842
  85.4353333   6.4843106  42.4742966  85.2001877   7.3709888  42.2009087
  84.7021713   5.9417677  42.1838646  76.4294357  12.5877352  19.6491833
  77.1894073  12.1668520  19.2472706  75.8638306  11.8612242  19.9109039
   1.8018630   0.8023264  62.1474342   1.2372539   0.7524246  62.9187698
   2.1123595   1.7076962  62.1360626  76.9298325  21.7966614  45.0045776
  76.5555496  20.9302769  45.1643372  76.1938477  22.3991051  45.1123886
  55.3827477  63.4619560  13.3675423  55.4558983  64.4036026  13.2120514
  55.2044983  63.0897217  12.5038853  18.0035992  15.0677910  60.9191704
  18.1549835  14.5387888  61.7024155  17.1452579  15.4667130  61.0617943
  21.0010014  56.0919571  66.5565872  21.0671349  55.2344208  66.1364899
  20.1476250  56.4278145  66.2824020  55.9320107  20.3496017  74.2272568
  55.3112679  20.2557411  74.9498215  55.4067879  20.6898403  73.5029602
  73.5603867  51.5019341   8.5444241  73.7939224  50.5743179   8.5792713
  72.6383514  51.5265656   8.8003044  36.6433411  34.1225548  24.1878223
  35.9338074  33.8007469  23.6317348  36.9898567  33.3376503  24.6121845
  80.6839371  14.9797678  10.1923485  80.3380127  15.7318726   9.7118187
  81.0049820  15.3484058  11.0153103   1.7442149  68.0941238   1.2169648
   1.0181977  67.4820633   1.0965176   1.3742523  68.8043518   1.7413123
  57.4365196   0.4523674  65.7215195  57.0636139   1.3240722  65.5899658
  57.7508774   0.4602788  66.6255875  10.9741774  61.6862144  33.5720596
  10.4480028  62.0721054  34.2723885  10.3561344  61.5540237  32.8531837
  61.2654419  64.8624802  69.5497437  62.1076164  64.8479691  69.0950317
  61.4786568  65.1424713  70.4398956  76.9318848  35.0614891  17.3389702
  76.6432800  35.7987404  16.8010120  77.0824890  34.3529243  16.7132816
  75.7318497  58.0577660  88.1822205  76.6866913  58.0608482  88.1150970
  75.4940262  57.1306343  88.1721115   3.0994916  44.3504677  47.0044250
   3.7986255  44.4499130  47.6506081   2.8964124  45.2452240  46.7316551
  10.2356844  62.1584663  43.9288292   9.3638458  62.5509415  43.9745750
  10.7564983  62.7891998  43.4316788   6.9303241  38.9255714  49.0335617
   6.2181363  39.4162636  49.4437332   6.4895000  38.2879906  48.4719582
  28.6625023  59.6545219  75.2838898  29.6136150  59.7611313  75.2996597
  28.3656654  60.2536125  74.5988998  25.7958488  53.4904099  46.7630768
  25.5433502  52.9189262  46.0378990  26.5916309  53.0922966  47.1158752
  69.9066086  61.9842415  46.9372559  69.1870041  62.6063232  46.8304214
  70.6406403  62.5172729  47.2427216  32.7135887  63.5369568  79.1865692
  32.9045944  63.4039803  80.1150436  33.3510170  64.1920319  78.9023361
  16.7026272  23.9461613  68.2133789  16.2717495  23.5267849  68.9581604
  16.2563915  23.5883007  67.4458923  83.8856735   5.5165091   6.7699213
  84.3101959   5.4979835   7.6276340  83.0784988   5.0165615   6.8913407
  38.2182465  19.5826130   4.2580724  38.0360336  18.7684422   4.7272811
  37.3849068  20.0535240   4.2629681  42.5482674  24.5243740  61.2044983
  42.5694618  23.9438953  60.4436913  42.6753578  23.9421749  61.9535828
  59.0354652  61.7310524  71.1849670  59.9775200  61.7941895  71.3423615
  58.9088440  60.8468323  70.8409348  85.3464127   9.6105185  59.5080032
  84.9416122   9.9681597  60.2982330  84.6971512   9.7553759  58.8197365
  73.7370834  43.3355904  54.7298470  73.5527267  42.4554176  54.4019089
  74.5196609  43.2305489  55.2709351  66.3740997  25.0167751   5.7009978
  67.1056976  25.2057533   6.2886109  66.7667923  24.5240803   4.9803867
  37.4751511  14.2305431  73.7243881  36.5784111  14.1256304  73.4064484
  37.8667984  13.3625517  73.6272659  34.7820854  51.8959465  36.7488213
  35.5516853  51.8133278  36.1856880  34.6494827  51.0169029  37.1036835
   8.5355883  61.3278542  53.9148026   8.1346560  61.5110855  54.7644539
   9.4596415  61.5474739  54.0336533  73.8437500   6.3300457  67.3888626
  73.3926315   5.6285663  67.8585968  73.1555328   6.7588720  66.8802414
  50.1812248  64.5678024  10.8990955  49.4262733  65.1560287  10.9156122
  49.8012276  63.6896286  10.9246273  81.2093735  65.3716888   1.1857741
  80.6734695  64.6892929   0.7815763  81.2201538  65.1479568   2.1163979
  55.1919022  71.6095734   3.7995522  55.6881638  71.1868515   4.5004487
  55.6422768  71.3486938   2.9962261  19.7563915  25.6749039  54.8440971
  19.3030510  25.0139561  55.3674164  19.5651188  26.5024433  55.2854881
  30.2040749  51.0217514  18.8096886  30.6172810  51.8070068  19.1686649
  30.6432419  50.2959900  19.2531242   8.2371998  30.4719601  14.7586985
   8.4012156  29.9036026  15.5112286   7.5415139  31.0610657  15.0506010
   0.9270584  66.4503479   4.5440435   0.0796156  66.8745499   4.4094009
   0.8945877  66.1312866   5.4459162  57.6955452  60.8674355  21.5804977
  58.4715691  60.5189629  22.0193443  57.9563065  61.7418594  21.2913208
  -0.0590160  24.8187523  13.9646511   0.3347855  24.0287781  14.3349085
   0.6867879  25.3727646  13.7342606  33.8390541  31.8204212  10.1860523
  33.4169846  32.3102608   9.4802542  34.6611214  32.2853279  10.3419333
  48.5527229  43.6275902  35.1624031  48.5431938  43.1722221  34.3205109
  48.6787415  44.5488091  34.9350166  80.6113129  10.7647467  13.1894712
  80.5229340  11.5404959  12.6357269  80.9470978  10.0879421  12.6017504
  78.3299484   2.8747985  70.7385178  78.4011612   2.7423041  71.6838226
  77.4184494   3.1325319  70.6007843  55.4872017  27.2212620  36.6583710
  56.1135635  27.8008652  37.0919189  55.6575775  27.3404922  35.7240295
  75.6134338  15.6488905  33.0332069  75.0228348  15.2609711  32.3874969
  75.2853012  16.5400753  33.1529961  33.8254509  40.3617783  82.6014328
  33.0833244  39.8788605  82.2377472  34.4427757  40.4359283  81.8736649
  40.1567879  64.1509094  88.2997131  40.7607384  63.5858727  87.8178329
  39.3516464  63.6377678  88.3680573  15.3661880  33.8177071  26.6794701
  15.0536261  33.4229279  25.8654118  15.9888830  34.4876099  26.3971405
  11.7071609  59.2585831  15.2828951  11.7858992  60.0582848  14.7627888
  12.3848810  59.3414841  15.9537563  72.8141937  62.2969284   6.7217054
  71.9919586  61.8943748   7.0012021  73.4319839  61.5677185   6.6686020
  14.4148836  31.1659946  60.3655777  14.1824512  30.3496361  59.9231262
  14.2993259  31.8417683  59.6975899  31.0508080   9.3121710   7.0296140
  31.1593304  10.2599106   7.1086340  31.9402599   8.9634752   7.0889277
  28.1694775  58.7897835  15.2865868  28.7866230  59.4979973  15.4704266
  28.5156136  58.3686905  14.4997568  24.0878086   9.5861015  60.1023331
  24.6944389   9.6435795  60.8405266  24.6234703   9.7899694  59.3356934
  72.3708954  21.6738129  10.8716707  72.9275589  20.9237900  10.6623278
  72.2466583  21.6227493  11.8193998   0.3155796  70.2215118   2.2487006
   0.4668970  71.1592789   2.3667126  -0.4003517  70.0168686   2.8501937
  22.3361778  64.3025360  10.1114054  22.5446110  65.1727295   9.7714729
  22.8435211  64.2334824  10.9201488   6.0045910  53.9683990  52.2703972
   5.0991411  54.0097542  52.5781021   6.5152531  54.3684998  52.9742241
  -0.0366439  44.5686493  76.9747238   0.8300906  44.2230797  76.7612228
  -0.6465264  43.9599915  76.5578232  77.7505112  37.9906693  42.4149132
  77.5497971  38.4548378  43.2276230  78.4431610  37.3753128  42.6553345
  85.1852875  33.9446602  12.5059643  85.3384933  34.8864746  12.4301271
  86.0615158  33.5594749  12.5155859  81.6498795  45.9134102  41.3838615
  82.4720078  45.6563454  41.8013077  81.8164368  46.7946472  41.0493279
  38.8517761  29.6917667  88.7847595  37.9262314  29.9357719  88.7925034
  39.3001099  30.4402905  89.1783905  65.8488007  52.5659790  38.9304161
  65.0771484  52.4869995  38.3695717  65.7549286  53.4222755  39.3477631
  85.5659027  49.2157822  79.2222748  86.0257645  48.6965599  79.8819504
  85.3525696  48.5895119  78.5305328  42.7657394  27.5201702  16.7659073
  42.4080887  26.6675453  17.0135956  42.8413048  27.9974022  17.5922070
  85.1643219   8.4343843  10.2055578  86.0599518   8.1585493  10.4004784
  84.8918762   7.8697648   9.4822254  67.7487030  44.1650810  52.4470978
  68.6448059  43.8327217  52.3944969  67.6612091  44.7393990  51.6863518
   2.5749271  41.3418159  52.8395424   2.4562635  40.6256790  52.2156029
   2.9153910  42.0647049  52.3125267  27.7591743  34.2444420  23.8490028
  28.2623863  34.6349792  23.1345158  27.9781647  33.3132439  23.8151188
  17.8213921  42.0965424  20.9060593  17.3672981  42.7378922  21.4525986
  17.2911568  41.3028259  20.9774361  82.2059784  41.8297157  35.4885902
  81.3726349  41.5016136  35.1507912  82.3080978  42.6894379  35.0803223
  71.6127701  59.8349991  46.1149445  71.8934937  60.3711319  45.3733330
  70.8266602  60.2720299  46.4424591  56.8156128  40.7589302  26.9287987
  56.1285973  40.9902191  26.3037033  56.9071236  39.8099098  26.8438396
  12.2191000   7.2049398  54.2242699  12.0362864   7.0361781  53.2999725
  11.5801773   6.6708121  54.6962013  15.8541603  12.9974346  71.1765366
  16.2816677  12.7838707  72.0059128  16.5737305  13.0821533  70.5510178
  20.6811333  10.1848707  20.5743885  20.6370659  10.1053925  21.5272636
  21.6142349  10.2836370  20.3851795   4.8865690  17.8124828  60.7784691
   5.6339431  17.6483364  60.2033882   4.9227676  18.7523994  60.9558907
  80.1071320  42.9379730   5.4155493  79.3092194  43.2427979   4.9835277
  79.8384781  42.7600861   6.3168888  49.5637512  19.9445286  86.7769699
  49.6907616  20.6456280  86.1377792  48.6181488  19.9228134  86.9239273
  57.4969254  22.3954105   1.0652642  58.3637733  22.1552372   0.7379677
  57.6168022  22.4957123   2.0096166  36.6491432  56.5230713  37.6149330
  35.9979286  56.1318054  38.1972237  37.4890137  56.2073212  37.9483261
  80.1046753  15.5652637  77.8225708  79.1563110  15.6825104  77.7669449
  80.4675217  16.3805141  77.4762421  79.0398865  24.9615250  18.8618259
  79.3113632  25.1825924  19.7527027  78.3483276  24.3098125  18.9769440
  23.9681816  54.3554726  20.8213120  24.8469276  54.6507034  20.5828266
  23.6011600  55.0802536  21.3274975  40.7977142  34.9772224  14.1103239
  41.7065315  34.9039116  13.8189335  40.4080811  34.1298256  13.8950701
   8.1534739  44.4632378  20.3208008   8.6499929  43.6451149  20.3402615
   7.4527273  44.3031464  19.6886959  71.7251358  17.7666702  11.2613459
  70.9978256  17.5619278  11.8489962  72.3474121  17.0511971  11.3921022
  84.3718872   9.4727154  32.7065849  84.1975479   9.5164404  31.7664108
  84.3200455   8.5402975  32.9166794  39.7186661  12.7402735  80.5353165
  40.2790451  12.8560104  81.3026581  39.3403816  13.6061201  80.3822021
  67.0748062   1.5976799  72.1728516  67.0059814   0.7779506  72.6622772
  67.2639465   1.3253547  71.2749100  10.8528538  12.7740459  58.0141640
  11.4714069  12.6189280  57.3003273  10.9538574  13.7031689  58.2209511
  14.0899467  25.8634720  57.3391724  13.2536945  26.3163338  57.2304039
  13.8505878  24.9450264  57.4632492  34.3751450  36.2484207  16.5835705
  33.8781929  36.1461487  15.7718983  34.0895805  37.0919113  16.9345798
  10.7973642  70.7694778   4.8737440  10.6182518  70.2360458   5.6480827
  10.8680544  71.6630325   5.2095842  76.7236252  15.7799282   9.5107737
  76.1048889  16.0146084   8.8191671  77.4536667  16.3882008   9.3955460
  73.3853607   9.4095631  66.3068695  74.2493362   9.7016830  66.5974655
  73.5627441   8.8583260  65.5446930  12.0217981  64.4724121  26.6487465
  12.7343931  63.8842506  26.8987675  11.4390335  64.4789276  27.4080715
  15.9143658  17.2660141  16.4987373  16.1689625  17.1431351  17.4132385
  16.6670628  16.9538021  15.9965391  53.8798866  61.6998177  46.2961426
  54.4938774  62.3233643  45.9082832  54.2315063  61.5294571  47.1699715
  38.6800652  67.4862900  23.7887173  37.8294525  67.1037598  23.5734138
  39.1495705  67.5108948  22.9549351   1.6004027  37.0745926  24.5379658
   1.1403629  37.2633858  25.3558617   1.5173030  37.8786583  24.0253220
  66.2861328  20.6380386  21.9986629  66.2258377  20.7140999  22.9509277
  65.8242798  19.8250961  21.7935982  82.0372086  67.4179306  11.4605427
  81.5793457  67.8263702  12.1952305  81.3379288  67.0982285  10.8904285
  17.4518528  57.5417671  57.2798653  17.1483440  58.0011597  56.4968758
  16.9533710  56.7246361  57.2864685  66.2182922   9.0191422  43.1527138
  65.4307098   8.9915762  42.6094131  66.9419937   9.0023756  42.5264473
  67.6066437   8.9577446  16.1662750  66.8442230   8.4823351  15.8362408
  67.2515411   9.5482111  16.8307152  78.4157410  42.1527557  25.7827454
  79.2215576  42.6130447  26.0173073  77.7344055  42.8234100  25.8299828
   5.6981010  18.1115799  28.4620361   5.6069345  17.5024662  27.7293015
   5.2934332  18.9216766  28.1518459  50.7937775  14.4053888  28.0014229
  50.6503601  13.4693775  28.1412334  50.1775398  14.8335133  28.5957222
   3.9081991  35.5229073  81.2091064   4.0929275  34.8323593  81.8456955
   4.7411113  35.6623116  80.7584915  57.8915405  58.9752655  45.6677437
  57.6792679  58.4060631  44.9280281  57.0738602  59.4347801  45.8587303
   5.9709344  45.8307304  -0.1100807   6.4324832  46.5399323   0.3373979
   6.2752714  45.0345650   0.3255026  23.7240162  63.5085068  52.0479889
  24.0813217  63.8247986  52.8777618  23.6635456  64.2906952  51.4995804
  11.1593218  17.7501392  65.7537384  11.4073362  17.2596684  66.5374222
  10.3856144  17.2950916  65.4212646  25.6104050  69.6905975  72.7280502
  25.2157745  70.5430832  72.5442886  24.8655262  69.1120453  72.8913345
  21.1685047   5.9660883  51.6139565  20.2187462   5.9316807  51.4999046
  21.3540478   5.3031316  52.2790070  64.7146454   2.6787100  86.0122375
  63.8681030   2.6976888  86.4586029  65.3121796   3.1240661  86.6129303
   7.8469362  46.4194183  27.6458912   7.2865620  47.1286964  27.9607525
   7.9320874  45.8305931  28.3957348  59.5191078  26.9692802   7.9166651
  58.7704506  26.5050697   7.5421600  59.3620491  27.8889713   7.7028151
   5.9114885  55.9994659  43.6995964   6.2590714  55.1517105  43.9765968
   4.9778576  55.8413887  43.5596771  66.4429626  47.0922928  47.6151619
  67.0193939  47.8437920  47.7537727  66.7931900  46.4124146  48.1907883
   4.2722368  46.4700584  76.3223953   3.8969748  46.8087997  77.1352081
   3.5257814  46.1032867  75.8485641  15.8803396  16.4846153  79.4426270
  15.6009703  17.3292255  79.0893326  16.7177887  16.6682320  79.8683014
  69.3806229  31.7593403  87.0415726  70.0528946  32.0143051  86.4096909
  68.5601654  31.8074112  86.5508881  60.2220154  26.7744865  72.9631042
  60.7448006  25.9771404  72.8784485  59.7398758  26.8334694  72.1382980
  11.8398647  57.2461166  48.5460014  11.6494780  57.7309761  47.7429504
  12.7320194  57.5053062  48.7764664  32.1449776  67.4619598  82.0605927
  32.9492264  66.9454269  82.0094681  31.8190041  67.4872894  81.1609650
  45.1940460  34.9289665  62.3303604  44.5758057  34.2192612  62.5045090
  45.9918137  34.4860802  62.0411301  56.6498756  18.5918388  79.9918823
  56.1300659  18.7297821  80.7837143  57.4969406  18.2820129  80.3123932
   6.7699270   2.4015782  35.5854378   7.0486293   2.3949289  34.6697350
   7.5863652   2.3766201  36.0844765  45.2564507  20.4420719  84.8644104
  44.5716324  21.0720272  84.6398926  44.9305573  19.6055336  84.5324097
  41.2302284  53.1158600  26.2094650  41.9248924  53.6114273  26.6431561
  41.6533775  52.3036156  25.9311905   9.7895498  57.1108093  59.2556419
   9.2488337  57.4409828  58.5381165   9.7935896  56.1612320  59.1351585
  12.3932743  64.8976898  59.0152054  12.4827337  65.3178253  59.8706093
  12.4027615  63.9599075  59.2067909  37.3326302  70.0353546  11.0797577
  36.7628975  69.5151901  11.6463861  37.3291245  69.5692368  10.2437267
  33.2810936  49.3765106  31.7196255  34.1124802  48.9068451  31.6529942
  33.1706772  49.5362244  32.6569252  15.9235077  58.8823204  55.1144485
  16.6886253  59.3596954  54.7936058  15.2112370  59.5208778  55.0805359
  83.9304733  56.1575089  60.6590080  84.5043182  56.8170929  61.0487289
  84.0541840  56.2598572  59.7153702  67.0615311  13.0366898  48.4164848
  66.8542404  12.5136127  47.6421089  68.0099640  13.1593781  48.3757858
  83.3642044  63.8995285  45.8404617  82.6110916  63.7916489  46.4213409
  83.9012451  64.5678024  46.2661629  22.1861362  20.6702232   7.2144752
  22.1944160  21.3529606   6.5436287  21.8490543  21.1070595   7.9966402
   4.1446648  47.7871857  83.8040771   3.4302428  47.2271576  84.1077271
   3.7189324  48.4355278  83.2431564  41.7080193  54.0805817  12.6691170
  42.5865669  53.7265472  12.8071270  41.1208496  53.3963547  12.9905119
  57.9645042   6.7623334  35.6959152  58.3752403   7.1240420  36.4812164
  58.6686554   6.2875128  35.2543869  60.9816628  52.3327866  26.2347546
  60.4979057  53.1417809  26.4013100  60.3514977  51.7635002  25.7931252
   3.0479097  28.1184864  25.3576298   3.6491416  27.6771336  25.9575958
   2.4322917  28.5768433  25.9296036  49.8356667  15.2601366   3.2103176
  49.4540977  15.2710285   2.3325257  50.7507744  15.0165892   3.0706859
  77.5405426   6.3144107  74.9325256  76.9174500   6.8933992  75.3715744
  78.0522461   5.9295726  75.6440659  57.4998589  62.8927460  66.8873215
  57.9546471  63.2017975  67.6708298  56.7150917  62.4583969  67.2215576
  34.3094902   6.2487602  42.2829704  33.8758659   6.2664766  43.1361313
  33.8613167   5.5537968  41.8008957  80.4939117  63.1055756  36.7843704
  80.8008041  63.8576202  36.2779388  80.0823135  63.4899178  37.5583878
  65.5082474  42.2575798  53.8916588  64.7694397  42.8398514  53.7145767
  66.1667557  42.5015640  53.2412186  48.9259453  65.0727921  29.8431110
  49.5648117  64.3624115  29.7844849  48.9284554  65.4696579  28.9720650
  77.5400162  15.5379486  73.0647964  77.3253403  15.7008400  73.9832764
  77.9122849  16.3638554  72.7557220  10.8398323  29.8166981  78.7056198
  10.3801031  30.5826035  78.3617172  10.2995510  29.5223103  79.4388809
  44.6533203  10.5487185   0.5328738  45.3357544  10.9032717  -0.0370425
  44.6562271  11.1250114   1.2971447  18.6530781  64.0461731  55.8047256
  18.4901848  63.1037140  55.8431053  19.6070595  64.1245956  55.8059235
  80.7982483  49.0114365  75.1642838  80.2264328  49.4941673  74.5674286
  80.7213974  48.0993271  74.8843079  85.2992783  67.3529816   3.7037909
  84.8131866  66.8518982   3.0489137  84.7063828  67.4059982   4.4533863
  60.8617401  25.1419392  28.3009224  61.7930222  24.9703293  28.1613102
  60.8129845  26.0847473  28.4589252  40.5374031   1.8669760  78.3830261
  40.1609306   1.1727611  78.9239120  41.4281998   1.9740196  78.7165680
  46.3472710  55.2422676  63.0489006  46.9487877  54.5947800  63.4165497
  46.7827187  55.5493698  62.2537270  57.9944267   5.8105087  19.0775452
  58.4442787   6.1246676  18.2932186  58.6947708   5.4748654  19.6370926
  60.0437927  60.0935478  25.8124199  60.9889565  60.2428780  25.7878418
  59.8879356  59.6849022  26.6638584  76.1808624   2.7725260  80.2140045
  76.1766891   3.7295115  80.1941757  75.7637177   2.5483723  81.0458527
  61.6824074  70.7628937  36.1975288  61.5671921  71.6726913  35.9232674
  62.2124481  70.3691254  35.5045395  10.0240498  13.2648382  83.9721222
   9.7000198  13.7350845  84.7403030   9.4853983  13.5868425  83.2493515
  65.4361420  35.0946159  67.5561218  66.3302994  35.1089363  67.2147751
  65.1356888  34.1987610  67.4031296  86.6667328  35.1954536   4.8140435
  86.3246155  35.3451881   5.6953864  85.8882980  35.0490112   4.2766223
  56.0812340  63.1245461  45.6331711  56.9175568  62.6810150  45.4914856
  55.9865074  63.1587410  46.5850601  54.7183533  24.8933792  23.8425045
  53.8257942  25.2391644  23.8425465  55.2005234  25.4750366  23.2547817
  64.5957489   1.8763899  46.7933540  65.3585739   1.3132533  46.9245567
  64.2543945   1.6214024  45.9362144  35.0971756  14.0011883  77.0853958
  34.9897804  13.1599159  76.6415939  36.0353584  14.0584345  77.2664261
  40.5763054  59.0236206  18.5983582  40.4378967  59.9557304  18.7664299
  39.8306122  58.7645454  18.0570164  38.6029320  65.3511505  47.6206360
  37.7877274  65.8503265  47.6706085  38.7202377  65.1769333  46.6867638
  25.9423904  12.7925367   5.4060307  25.6318054  12.8421688   4.5019813
  26.6046543  12.1015244   5.3941679  61.0960426  66.7420120  41.1841965
  60.5120621  66.7482071  41.9425926  60.7479439  67.4227448  40.6082954
  86.0538483  46.3296776  12.6974230  85.7308960  45.7989998  11.9691935
  86.5457687  47.0362892  12.2791643  49.3576927  59.8046532  25.0254860
  49.9060287  60.2276802  25.6862526  49.9733620  59.5188942  24.3505611
  18.9716721  59.9541473  65.6936111  18.8759384  60.6403694  65.0331802
  19.8225403  59.5579605  65.5057526   6.5245433   8.5896549  34.0046921
   7.1974545   8.2133770  33.4373856   6.5781822   9.5322876  33.8472176
  84.1592484  61.6157150  59.5293350  84.5653763  60.7822952  59.2912102
  84.0990906  62.0972252  58.7042503  70.9116669   1.2371840  85.5676880
  71.6884460   0.7266568  85.3391953  71.2580643   2.0302091  85.9767761
  39.5024033  22.3123016  78.8348236  39.3418198  21.4831123  78.3843918
  38.6297073  22.6384907  79.0544510  81.3090591  16.9155579  35.9111137
  81.6847153  17.7084446  35.5284309  80.3661041  17.0795460  35.9243317
  17.1951370  28.5713902  30.2941456  16.8393555  28.8974819  31.1207752
  17.2956314  27.6294613  30.4316292  60.6218948  29.9925423  43.8373337
  60.4665833  29.1261654  43.4611664  61.0687218  30.4781227  43.1439476
  16.4822559   5.7792282  11.6953440  17.1659546   6.3606477  12.0281172
  16.1086140   5.3758416  12.4788637  16.9367218   2.7554302  50.5076370
  17.0887814   2.0135164  49.9222527  16.3106861   3.3066289  50.0380707
  61.9758720   2.2801633  61.6756058  61.1520691   1.8713943  61.9410973
  62.6341858   1.8859662  62.2478523  66.6281662  29.4084606  15.8528376
  66.4628143  28.5828991  16.3081818  67.5822449  29.4819698  15.8290844
  48.2969780  14.3999681  13.4775743  48.8657532  13.7043934  13.1475716
  47.4332199  13.9925756  13.5422659   7.5027161  33.6658630  42.8966408
   7.1302619  33.1316185  42.1951485   7.6290159  33.0543442  43.6221237
  82.6935577  26.6436138  28.8121605  83.0660400  26.5113888  27.9403801
  83.3784409  26.3489838  29.4124584  41.2619591   8.5938749  83.7848129
  41.7499275   9.2230711  83.2535629  41.4229012   8.8672237  84.6879272
  38.9345436  12.2657213  15.6399794  38.7214546  11.3478088  15.4718666
  38.1731682  12.7505713  15.3214550   3.4569864  55.8929443  40.9738693
   3.2103689  54.9778214  40.8398361   3.3038843  56.0482178  41.9058990
  78.8116989   3.7427061  80.1412659  77.9618073   3.3572156  80.3541183
  79.4483337   3.0756350  80.3980637  15.3039246  23.8582783  65.6425705
  14.8136683  23.0673695  65.4181976  15.8202953  24.0501461  64.8597717
  10.2013216   7.0675187  39.5950127  10.6492691   7.5963936  40.2552147
   9.2902288   7.3585777  39.6327705   6.8110528  44.1261673  32.8689919
   6.2643108  44.2242165  33.6485405   6.2086754  43.8203239  32.1908836
   8.2595282  12.3134518  57.0902023   8.0449171  11.4200516  57.3585510
   8.9987583  12.5595179  57.6462822  42.1774597   8.2626963  16.8613853
  41.7960892   8.4554253  16.0048561  42.7446442   9.0115728  17.0450134
  40.8777885   4.8700099  20.5653267  41.5231094   4.8245549  21.2708263
  41.1155701   5.6560197  20.0735111  38.7959328   5.8505120  80.3588333
  38.8804550   6.4904718  81.0656128  39.5332718   6.0368266  79.7775803
  25.7738972  68.2524872   1.5913681  24.9979744  68.0461426   1.0702155
  26.2031250  67.4076843   1.7266968  31.0089111  65.8249283  74.9677048
  30.6334534  65.0840149  75.4434280  30.2534657  66.3576736  74.7192688
  63.6959610  61.1022110  51.6411629  63.1616135  61.3773613  52.3861427
  63.1620674  60.4464188  51.1926918  74.1526642  15.4394598  54.7041016
  74.6205139  14.8254480  54.1381226  73.3385773  15.6242552  54.2357559
  73.7019730  19.5558510  82.0502701  73.0201645  19.0560780  82.4992752
  73.2898178  19.8456573  81.2364044  67.5045090   6.1408486  14.1753426
  67.9252319   5.8340082  14.9785080  66.6613083   6.4893975  14.4647484
  64.8253250  42.1212311  74.4585419  64.9492416  42.5111847  75.3238831
  63.9130898  42.3105125  74.2389450  74.7154160  16.9080715   6.5933261
  74.4281921  17.4331741   7.3403225  75.3535995  17.4613094   6.1429000
  78.5845947  35.1746025  47.0620575  78.5120468  36.0786972  47.3679695
  77.7971802  34.7448463  47.3959961   1.5901976  19.0360050  66.6311874
   1.1847954  18.5295658  65.9273376   2.4795718  18.6879234  66.6951065
  68.0257492  53.8409462  52.7636147  68.1261215  54.6499100  53.2653465
  67.7834244  54.1326942  51.8847580  47.8220291  21.9068184  88.8588181
  48.6381111  22.3896866  88.7281418  47.4820786  21.7673721  87.9749527
  17.9879723  19.8448563  63.5389366  18.2107372  20.5972252  62.9907150
  18.3078041  20.0800877  64.4099121  40.6908150  66.9339142  22.0974464
  41.4066353  67.4129715  22.5149860  41.1166000  66.4117126  21.4175644
  85.6576767  57.0888557  78.7421799  85.1613998  56.8733902  77.9525452
  86.4671860  56.5844765  78.6613846  16.5805225   5.2045097  46.9100609
  16.6117096   5.6176419  47.7729530  17.3943291   5.4755211  46.4852066
  53.1950226  20.0977230  65.7619553  52.2478790  20.1865826  65.6558609
  53.5317688  20.9881916  65.6624451  70.2051697  36.6147766  66.7515335
  70.1340179  36.8062477  65.8163834  70.2004089  37.4741745  67.1730194
  21.2234707  67.1022339  64.4114227  20.7895641  67.9470673  64.5306854
  21.5307274  66.8651581  65.2864227   6.5296412  56.8349876  66.1499557
   5.6199765  57.1277733  66.0950317   6.7418861  56.5449562  65.2627869
  66.5057449  65.8906631  40.8837738  66.7236481  66.7545090  41.2337990
  65.5943909  65.7509460  41.1409645  24.2800426  44.1539459  88.4334412
  23.4132385  44.5494270  88.5255203  24.8868561  44.8388252  88.7144241
  48.0771599   8.5993843  33.0141487  48.7359543   9.1324558  32.5691185
  47.9030647   7.8788638  32.4085312  51.9812889  13.9233923  36.8847313
  52.2651711  13.0548906  37.1699448  52.6448822  14.5187206  37.2332458
   1.1559861  59.4462929   6.5137177   0.6067185  59.1006355   7.2173219
   1.5326098  58.6694756   6.1002674  34.7799454  62.6894836  30.8805904
  35.2609329  63.4954796  31.0683441  35.4607010  62.0382957  30.7110004
  62.8146667  61.6591148  64.9921188  63.4396629  61.0040474  65.3027649
  61.9922409  61.4295807  65.4247360  42.1320457  10.7409420  61.3892441
  41.4059601  11.2068644  60.9745865  42.9136009  11.0751562  60.9491272
  47.7430267  17.1901302  28.3326168  47.7408142  16.4134617  28.8920937
  47.7813530  16.8431683  27.4413376  12.7041445  48.1471939   6.2625709
  12.8295059  47.2002525   6.2007685  12.0729294  48.3507805   5.5723891
  54.6685104  15.0089245  84.8506622  53.9911880  14.8141232  84.2029648
  54.8405037  15.9444180  84.7434158  59.2575188  40.4498978  65.0596848
  58.6630974  39.8381538  65.4940338  58.7229309  41.2264061  64.8939056
  59.9278412  70.8322144  77.6549988  59.2339096  71.4439087  77.4089890
  60.5976639  71.3812332  78.0626144  64.5002670  21.3217239  46.9370193
  64.6392136  22.1153526  47.4538193  64.3105469  21.6406345  46.0546761
   8.0844793  46.6890869   1.7012337   8.1690559  45.8746643   2.1970110
   8.8630886  47.1941261   1.9356177  86.4216309  41.3222466  31.8076286
  86.8269424  42.1281891  31.4876099  87.1439590  40.8288040  32.1961937
  78.6882019  46.2746048  36.8893242  78.1126175  45.5670853  36.5988998
  79.5524826  46.0318680  36.5571671  65.5597916   4.7034593  38.7759361
  65.9129181   4.7227049  39.6654053  64.7366028   5.1883926  38.8345108
   1.1401495  26.5352726  54.1731567   1.8023580  26.2802258  54.8155441
   1.4340850  27.3876114  53.8516655  72.2075806  25.1015911  42.4454575
  73.1321640  25.2445335  42.6477852  71.7555084  25.8373680  42.8583717
  48.7591209  54.8798370  22.5308018  49.4797630  55.5098419  22.5291100
  48.5843201  54.7183723  23.4579506  38.1757584  15.9048491  69.4788284
  38.0038605  15.1293955  70.0130157  39.0447197  16.1972923  69.7538071
   2.5068345  63.1081047  38.7801399   1.5907344  63.0428467  38.5104485
   2.9719408  63.3724022  37.9863777  15.3529701  64.3628845   6.7580805
  14.7179699  65.0787430   6.7816448  16.2051983  64.7986984   6.7550459
  27.9114475  10.3074865  83.0995331  28.1198578   9.4129419  82.8301163
  27.1962643  10.5714855  82.5206985  74.4582138  29.8433418  48.0692749
  74.3605347  28.9280243  48.3317337  74.1457443  29.8678188  47.1648407
  65.3624268  55.2165947  87.6801071  64.5729904  55.4005737  88.1892014
  65.3482285  55.8629036  86.9741974  14.1161947   9.5145044  49.3468742
  14.5225906  10.2162657  48.8383408  13.4260912   9.9500151  49.8471909
  13.0702486   0.3059475  81.8664246  12.8498478  -0.6117545  82.0260468
  13.2570705   0.6619880  82.7350845  47.6436005  55.4095573  60.6078491
  48.1464081  54.6001320  60.5170250  46.7502785  55.1649895  60.3661919
  12.2282810  46.4028587  75.3725739  11.3979778  46.7176628  75.0151825
  12.6993599  47.1984138  75.6203842  75.2907257  69.9252472  36.5687981
  75.5144730  70.5029144  35.8390884  75.9945221  70.0579834  37.2038536
  23.4562321  49.8360672  69.2550735  22.6347160  49.5112457  69.6236343
  24.0395718  49.9220772  70.0091019  10.6509380  60.4825096  65.5588226
  11.0570736  60.5314178  64.6934357   9.9512091  59.8370476  65.4588776
  19.7617340  47.3724823  88.6518555  19.2221699  46.5818481  88.6537094
  19.2746201  47.9936142  88.1104279  80.5356750  45.3708382  27.5118790
  80.4404068  44.8410072  28.3033543  81.4486771  45.6580734  27.5244026
  30.0498714  10.4339314  19.8815289  30.3447094  10.8818922  20.6743927
  30.4165974  10.9506426  19.1640663  65.5708618   0.6963267  88.4302597
  66.1196976   0.7320743  89.2136765  65.1713943   1.5646070  88.3778534
  54.9960022  45.1051254  73.4746399  54.3874397  45.0204010  72.7406769
  55.8304901  44.7849922  73.1320419  59.0546227  52.5186577  75.7172394
  59.0924110  51.6363564  75.3479843  59.8925858  52.6260567  76.1672516
  16.9593258  11.9054155  61.0305214  16.3099499  12.5352182  61.3433990
  17.1348705  11.3463802  61.7874184  70.0357666  70.3231277  87.1817932
  69.9460678  71.1979980  86.8039169  69.3556595  69.8052979  86.7510452
  45.6337929  25.1023350  78.3427429  45.5033531  24.4901772  77.6185303
  46.5577431  25.0066147  78.5737991  19.0370598  45.1515427  28.7756176
  18.4766369  44.6979828  28.1459808  19.6290379  45.6751823  28.2356243
  56.5891647  71.5279236  16.9244919  55.7511139  71.9771576  17.0344505
  56.4221649  70.8716354  16.2480106  56.9770889  48.6879883  13.6062555
  56.4227219  48.6648560  12.8262720  56.3617249  48.7665062  14.3352232
  30.2416115  10.7487497  65.1161118  29.4641132  11.0382147  64.6386795
  30.8545094  10.4764881  64.4331284  74.9855957  25.0843525  37.6561546
  74.1477051  24.6450901  37.8017998  75.6143799  24.3708611  37.5475769
  14.0563793  58.8539658  38.2899818  14.5471745  59.5166550  37.8039818
  13.6311617  59.3407249  38.9960175  14.0281353  11.8698997  84.7832794
  13.3225183  11.2295275  84.8741684  13.6375589  12.5875006  84.2845535
  13.3418036   7.4440584  62.4994049  13.9367523   8.1199913  62.8240318
  13.3724031   6.7578053  63.1660042  68.2943497  68.6114044  11.5122442
  68.8364563  68.2047806  12.1882648  68.9121628  68.8498230  10.8210897
   2.6509714   5.5483589  23.7080669   3.3822596   5.9156680  24.2045860
   2.6031647   4.6355042  23.9920425   9.4749231  63.2025757   6.3412032
  10.1741238  62.5914879   6.1089888   8.8048315  63.0654945   5.6715641
  83.7936707  68.0926285   9.2857904  84.6238632  67.7101669   9.5699377
  83.1525192  67.7713547   9.9197721  12.1963577  53.4061775  39.7691650
  12.3097763  52.5686874  39.3197479  12.7615871  54.0129967  39.2911301
   8.4981833  50.5327530  40.7074432   9.3270092  50.5396271  41.1862259
   8.3576555  51.4463387  40.4587593  47.5629654  61.6874123  84.3816528
  48.3010063  62.2650948  84.1872101  46.8577652  62.0009079  83.8153992
  61.6794128  18.6734390  20.3031864  62.3577499  18.3455830  20.8936100
  61.3819695  17.8985901  19.8263569  21.2383060  19.9502716  61.5991631
  21.0015736  20.6638031  61.0066605  22.1582241  20.1095581  61.8103714
  12.1505423  48.6985054  14.9165840  11.8231993  48.3062897  14.1071110
  13.0231504  49.0207062  14.6908150  43.9053078  35.3201981  11.0524769
  43.0851784  34.9344902  10.7444983  43.8134842  35.3494110  12.0048141
   0.3598605  40.6059532  80.7738037  -0.5642329  40.5121307  80.5425415
   0.7180220  41.1834641  80.0996857  47.4028931   4.7056298  47.9077873
  48.0869331   5.3000903  47.5996666  47.3978996   3.9939442  47.2677002
  50.2257004   7.1209826  62.0096779  49.8496132   7.4701319  62.8176918
  50.7610092   7.8362341  61.6660347  56.5042915  39.9457626  83.0176239
  55.5739822  40.1643257  83.0722351  56.7086945  39.5546036  83.8670044
  81.2919464  19.2141247  25.1005611  80.9320450  18.3307133  25.0212708
  82.2362061  19.0814457  25.1842194  14.8355846  41.3352852  36.8136864
  14.5502377  42.1206207  36.3467178  15.5813894  41.6263313  37.3383751
  20.5316811  48.8248711  33.9327049  20.7826271  49.2239265  33.0996323
  20.1825428  47.9668159  33.6917114  71.3918686   5.9128680  45.9991837
  71.4794693   6.7797446  46.3955193  70.8370972   5.4258714  46.6085243
  47.8874855  12.8713017  48.6138573  47.8604202  13.8176498  48.4727097
  47.7627411  12.7661533  49.5570526  64.5939865  14.2424479  16.3193989
  64.2222824  14.4063463  17.1861191  65.2304993  14.9463968  16.1947422
  57.4898415  68.4154892  81.1455612  57.6293106  68.8429718  80.3005524
  57.5752563  67.4807281  80.9580841  21.3332310  60.2587242  18.5489655
  21.7406216  60.8659134  19.1666908  21.9263954  59.5078583  18.5246925
  51.2707024  60.2806053  32.1211357  51.7958107  59.4886475  32.0058517
  51.7110672  60.9401093  31.5850716  35.9878654  16.0521469  11.5601597
  36.8164864  15.6394110  11.3167095  36.1114693  16.9783134  11.3523912
  45.0034294  38.8164406   7.3789444  45.6717262  38.1669655   7.1603189
  45.4469299  39.6589546   7.2804260  66.1313705  66.4147491  68.6006775
  67.0631180  66.2707672  68.4353333  66.0795059  67.3203201  68.9064102
  42.8973274  36.1855698   2.1799972  42.2923088  36.8719673   1.8988475
  42.5634651  35.9065018   3.0325749  53.5593071  11.3436375  60.5256462
  54.2679367  11.8641958  60.1473732  53.2646904  10.7828360  59.8080559
  77.5693893  18.1483536  12.3341122  76.6568451  17.8621311  12.3737326
  78.0773010  17.3499889  12.4785881  32.2001991   7.0737104  43.9034729
  31.4524174   6.9305139  44.4836006  32.8140564   7.5890689  44.4267502
  71.5253906   5.9502931  51.0197029  71.8023148   5.0530901  50.8337746
  72.2403183   6.4947901  50.6901054  37.1089058  68.8365479  58.2450218
  37.8715935  68.3302307  57.9654198  36.6777115  69.0904388  57.4290276
  11.0589266   8.2736053  64.6864395  11.3764620   8.3004293  63.7838364
  10.5691671   9.0891695  64.7923737  49.1769142  43.6556587  27.9977322
  48.7512665  44.0685043  27.2463264  49.5195389  44.3874779  28.5108414
  22.8215408  50.3938637  32.1546974  22.2872353  49.7688408  31.6646996
  22.5962276  50.2347031  33.0712852   8.8712864  57.5528908  82.2579727
   8.7518187  56.7698746  81.7205276   8.0731010  57.6067162  82.7835541
   2.3760066  32.5328217   3.8670416   1.5881338  32.1632919   3.4683740
   2.4005160  33.4374542   3.5551558  54.1674385  49.8556976  65.3730240
  53.4135246  50.1089516  64.8403778  54.0085907  50.2657356  66.2232361
  76.2339706  22.5270710  85.8785477  75.7679214  21.8542747  85.3821793
  75.6860504  22.6793137  86.6485138   9.2530651  53.9888687  10.0266914
   8.8859358  53.4915848  10.7575512  10.0709772  53.5379715   9.8170671
  55.2556496  27.9908352   1.4448278  56.0110359  28.5019798   1.7352632
  54.7116127  28.6174126   0.9676943  76.8741531  67.6847153  38.6952782
  76.8778915  68.5893097  39.0082092  76.1137695  67.2875290  39.1198997
  20.5479202   5.6722898  24.4322910  20.2368908   6.5338621  24.1544666
  19.7494869   5.1762838  24.6131649  81.9389420  46.0726357  33.0912361
  82.4374008  45.4319839  33.5985222  82.1493454  45.8720512  32.1792450
  54.2739182   8.0424261  77.7895508  55.0841141   8.0883303  77.2819061
  53.5789909   8.0343666  77.1313400  35.9425240  29.9875221  17.1934128
  35.4258690  30.5558109  16.6221466  36.2200127  30.5573997  17.9106789
  52.5253296  70.3699036  53.9663200  52.3759689  71.1080704  53.3755302
  53.4754410  70.3419266  54.0792084  22.5606537   5.6714973  79.4374695
  22.4285126   5.4412127  80.3571091  21.9129658   6.3551908  79.2663116
  44.5496521  10.7761478  74.1940384  45.2519569  10.3004532  74.6375580
  44.9247856  11.6364222  74.0057983  46.8462868  58.1332092   7.0411344
  47.2881050  58.9511871   6.8132176  46.8906288  57.6066055   6.2430410
  75.0903702  44.9297638   9.3643503  75.6636124  44.2001266   9.5994177
  75.3178635  45.6225014   9.9845028  13.4854212   6.8931322  24.3621674
  14.3153267   7.3283429  24.5573082  13.5657864   6.6233139  23.4473057
  47.4744797  20.9368820  65.1265717  47.6708488  21.1769829  64.2210236
  46.7224197  20.3484211  65.0606384  67.3662872  70.4155197  23.1880512
  66.6119080  70.9820786  23.0263004  67.3337326  69.7667923  22.4849644
  24.2687073   4.8262024  14.4018993  24.8721485   4.8274298  13.6588717
  23.4015121   4.9140325  14.0063114   4.4269576  42.6903114  34.2565002
   3.4935675  42.8376083  34.4092064   4.4693084  41.8256683  33.8480530
   6.0846648  37.9351196  53.3612900   6.6861262  38.5105629  53.8338776
   5.2147474  38.2019653  53.6583900  20.4911823  70.5226746  33.9112930
  21.2164288  69.9024963  33.8362274  20.5823288  71.0914612  33.1468277
  37.6535110  68.7883987  19.1796856  37.6560555  69.2108078  20.0386333
  38.0619278  69.4284515  18.5967979  42.1468544  28.2509384  81.2033615
  42.3922653  28.2564106  82.1285477  42.6297150  27.5126610  80.8318481
   3.5680923  46.9751053  73.0007095   4.2076755  47.6697884  73.1574860
   3.5269065  46.8981247  72.0475006  77.7983322  13.8336887  79.1906281
  77.8210907  13.9144049  80.1441498  78.4374390  13.1490898  78.9928894
   4.5520430  65.4648666  23.3246708   3.7788563  66.0276794  23.2839394
   4.2423553  64.6103439  23.0244770  40.4739265   9.5880642  65.1855698
  40.3381424   8.9045916  64.5293274  39.6320534   9.6586800  65.6355667
  64.1964264  58.3996429  80.7009583  64.0627975  58.8535576  79.8688889
  64.0806351  57.4732513  80.4897079   9.5204039  68.5693207  75.7179642
   8.6115198  68.3738480  75.9458923   9.4933214  68.7797394  74.7845688
   6.7918663  43.8086624   1.4809291   7.4167972  43.1596870   1.1576241
   6.8758798  43.7682381   2.4335778  29.4977512  25.8335915  21.3317928
  29.6028805  24.9404106  21.6595287  30.3296375  26.2620983  21.5332317
   4.1600895  28.5517979   5.8982930   4.5229139  28.2879105   5.0527434
   3.2319486  28.7067051   5.7228217  39.1550140  31.3092747  27.6511364
  39.9618874  30.9953823  27.2428989  39.3893967  32.1601181  28.0217590
  78.5348892  61.1269913  54.9874916  78.9009399  61.2747574  55.8595009
  79.1108170  60.4715424  54.5938835  40.2288933  42.7749176  78.4392166
  40.3564911  41.8503723  78.6517334  39.9370461  42.7730637  77.5275955
  79.5759964  68.4988785  51.2034073  80.3142853  67.9728622  50.8960419
  79.9386444  69.0290070  51.9131165  52.7766380  17.1980133   3.5730884
  53.5404701  17.7748566   3.5800195  52.3292389  17.3830833   4.3988075
   1.2949468  44.5070152  28.3179760   0.6890475  44.6836128  27.5983009
   2.1604064  44.6919937  27.9532909  55.8687782  25.1693745  85.6588287
  55.9249382  24.2237568  85.7962570  55.0453835  25.4234848  86.0755844
  30.6576900  53.0221291  66.0214691  30.4269180  52.1942482  65.6000595
  31.3692207  52.7958374  66.6204224  86.4387589  60.6290131  64.6938553
  86.6264343  59.7265625  64.9519196  86.5022354  60.6231461  63.7387810
  32.5755424  58.0167122  15.6204596  31.7085133  58.0465279  16.0249348
  32.4029083  58.0636864  14.6801281  51.4878731  31.8395805  14.0459261
  50.7721558  32.4727135  13.9900188  51.1416664  31.1344032  14.5928230
  27.4725895  65.9359131   1.6960808  28.2853737  66.1998138   2.1273193
  27.6426163  66.0676575   0.7633616  75.0896225   1.0219003  60.4486771
  74.2003784   0.8232719  60.7419739  75.4785538   1.5082748  61.1755905
  27.9765644  64.3373795  67.8701859  27.8909931  64.5626526  66.9438171
  28.6509399  63.6583786  67.8902588  78.6847382  24.9809074  39.0992775
  78.2600479  25.6458797  39.6412048  79.5165329  24.8079948  39.5402451
  83.5050125  57.2287674   7.2520089  83.3386002  56.3621788   7.6228971
  83.8779144  57.0520706   6.3883204  51.4719086  21.5973854  61.4173241
  51.9642792  20.8010025  61.2183876  51.0430565  21.8261147  60.5927048
  19.7686996  14.4558821  47.8972435  20.0386143  13.7150612  47.3545074
  19.1781559  14.0743265  48.5467873  66.6895905  59.0844994  78.6175461
  67.5375748  59.2960892  79.0079041  66.6808243  58.1286545  78.5673904
  84.7297745  45.6466179  20.6242828  84.5235825  46.2731400  21.3179607
  85.5104675  46.0050850  20.2020798  67.8983612  44.8204269  70.9897003
  67.1767197  44.3441048  71.4002762  68.6608582  44.6117592  71.5294113
  62.5937424  51.0073967  46.8220062  63.0179710  51.6924248  47.3387299
  61.8236923  50.7625465  47.3351364  40.8921127  65.7855835   6.2934818
  41.3938484  65.7043304   7.1045861  39.9787788  65.7017822   6.5674086
  21.9581623  45.4957314  18.8651142  22.1791115  46.3811493  19.1539898
  21.8976784  44.9879112  19.6742439  20.2725887   1.8672106  80.7100906
  19.9467335   1.7201484  81.5980225  19.6639919   2.5030489  80.3338547
  65.5877457  15.3247938  34.9228325  65.4554901  14.7629833  34.1592178
  65.3094406  16.1933270  34.6322670  43.9393501   4.1570516  18.5684490
  43.5233994   4.1583800  17.7063484  44.5115814   4.9243193  18.5594711
  45.7665901   2.0711555   5.4426117  45.2648582   1.2579705   5.3857903
  45.1057777   2.7519324   5.5695205  75.6784592  43.8129005  25.9734135
  75.3390274  42.9914055  25.6182175  75.7733841  43.6472054  26.9113731
  47.8355408  14.0623207  42.3600845  47.0675354  13.6942444  41.9231377
  48.1546860  14.7343102  41.7577477   1.2144685  58.7275505  19.6082592
   0.5253234  58.1615067  19.9559727   1.3610075  59.3767662  20.2962112
  45.7944832  71.7206192  82.0489655  46.6297264  71.3259277  81.7983398
  45.1365204  71.2057266  81.5818481  18.4437084  12.0353937  28.9900303
  17.6898594  11.4745550  28.8072586  18.3900967  12.2100315  29.9296360
  28.7164516  58.7992477  78.1884308  27.8049526  59.0844116  78.2523346
  29.0853004  59.3321266  77.4840012  85.7909317  53.1106644  82.5397949
  86.2043991  52.8696747  81.7108231  85.0799179  53.7008934  82.2901459
  30.0491600  50.0611343  76.9015503  30.1721859  50.7366867  76.2346725
  30.9250469  49.7019119  77.0430222   0.6088254  71.6230240  31.2441235
  -0.0721987  70.9739151  31.4204655   1.1837560  71.1997910  30.6064987
  60.1868362  31.1959782  63.2970963  60.5488739  31.5337963  62.4779243
  60.2631302  31.9258442  63.9116745  82.9431458  20.6230164  62.3652000
  82.2484741  20.0904884  61.9778099  82.6849060  20.7239285  63.2813683
  15.7642260  25.5090218  88.9680328  15.8930254  25.8212566  89.8636627
  16.6037521  25.6670551  88.5362320  73.6447067   7.9894104  64.0267944
  72.7434616   7.6834288  63.9249992  74.0276260   7.9011955  63.1539726
  49.1039734  12.9103928  21.2744637  48.6824837  13.0814095  20.4322453
  48.6101761  13.4391956  21.9011707  39.5051842   9.3963690  74.6111832
  40.4136543   9.3372431  74.3155136  39.4767952   8.8635855  75.4058990
  56.4762802  70.1350784  52.6413345  56.5202103  70.9106979  53.2005424
  57.1253242  69.5363541  53.0108032  75.4510117  17.4613857  77.8728485
  75.8801041  16.8732624  78.4943161  74.6027679  17.0520020  77.7022018
  25.6487923  42.2373009  83.8282318  25.6929131  42.4181061  84.7671661
  26.5256157  41.9265862  83.6026917  33.7686806  57.9667740  45.6358109
  33.2106285  57.2026253  45.4912872  34.1854973  58.1226768  44.7883530
  44.9675179  52.9472885  10.2310581  45.2438126  52.5575256  11.0605011
  45.0637207  53.8900833  10.3656378   3.9382234  28.4859390  17.7360325
   4.1478434  27.8062458  18.3765869   4.6264362  29.1416168  17.8486481
  73.3680267  58.6017265  41.1129951  72.7274017  58.0728951  41.5885696
  73.9222183  57.9619484  40.6660194  19.5558205  31.5688992  16.1517181
  19.4413338  31.9835396  17.0068207  20.4811993  31.6990147  15.9444113
  76.8716583  45.2124901  61.5612221  77.2972107  44.5634460  62.1214714
  76.5038986  44.7019386  60.8398895  58.4792290  45.0657158  66.5195007
  58.0034065  45.2465134  65.7088623  59.2403183  45.6451721  66.4848175
   4.7124133  44.3144341  82.1890717   4.5542488  45.1734924  81.7976151
   5.6630788  44.2690849  82.2910995   9.8895025  21.8457985  34.2716408
   9.3605280  21.9974957  35.0548439  10.0205355  22.7175121  33.8985748
  80.6818542  21.4198723  71.2501602  81.3014832  22.1318054  71.4096909
  80.8884354  21.1161137  70.3662567  67.1595840  11.5748196  70.7915344
  66.2695465  11.2408943  70.9035873  67.6728973  10.8079157  70.5373688
  74.8864822  31.5523033  23.4808598  75.7420197  31.3722954  23.8705826
  74.6752777  32.4410629  23.7667465  72.2051697  47.8384476  10.8748417
  72.2348709  47.6939316  11.8206024  73.1155930  48.0023270  10.6288834
  53.8374214  27.4157982  16.7724934  53.3342400  26.8038883  17.3097134
  54.5200577  26.8774662  16.3719463  64.9394531  58.3462715  55.9886627
  64.2468948  58.8208084  55.5288696  64.5186996  58.0196953  56.7839890
  44.2401237   9.4518204  21.6857414  43.5297470  10.0646935  21.8754292
  43.9265556   8.6111155  22.0190907   9.1882706   6.9087057  80.1270294
   8.8325739   7.7970057  80.1522064  10.1292915   7.0236754  80.2592926
  85.6686478  23.6709595  55.0946960  85.6732712  22.7618217  54.7952309
  84.7518692  23.8494854  55.3041420  25.5551682  40.8581657  19.7683010
  26.4589996  40.9294281  20.0752888  25.1435623  41.6774750  20.0431480
  30.5081825  36.7527275  25.0744762  30.4954090  37.5180130  25.6492825
  31.3928909  36.3990173  25.1662102  35.0974083   3.5821850  22.5026703
  35.8043404   3.1821523  23.0090866  34.5166473   3.9629374  23.1614399
  13.6818275  38.0299416  32.5149727  14.2851257  38.5537872  33.0420837
  13.5189056  38.5629654  31.7367859  69.1953888  71.0449066   2.7291059
  69.5966568  71.4997253   3.4696112  69.9075928  70.5299835   2.3498371
  74.1321640  11.1026068  73.9311371  74.3734436  11.7975674  74.5435486
  73.2247238  10.8930073  74.1521530   5.3213425  33.6320915  23.1092548
   5.1949739  34.5174217  23.4505024   6.1210518  33.3231773  23.5350132
  71.6612396  67.4995956  42.1532249  72.4379959  67.1433487  42.5844650
  71.0995331  67.7888336  42.8722916  18.9604855  63.9139786  60.7368469
  18.5836830  63.0909424  60.4256134  19.8662643  63.6950951  60.9556808
  71.4993362  65.0479660  16.4867229  71.5464630  64.4537735  15.7377577
  72.4078445  65.1471024  16.7713490  36.2458954  70.3762131  35.9240074
  36.5422897  69.4678497  35.9811096  35.6418800  70.3848419  35.1814957
  63.9311371  19.8685989  85.6395950  64.2886505  20.5786915  86.1726837
  63.5986824  19.2354565  86.2758636  70.4404373   4.6210794   0.7838025
  70.2232971   3.8238099   1.2669644  71.3773956   4.5442977   0.6036779
   9.5756598  42.3641434  53.0290909   9.6711864  41.6316147  52.4203987
   8.6547251  42.3410110  53.2890434   6.1817980  30.8408833  34.9222145
   6.6179957  31.2146034  35.6879158   6.4432368  31.4082317  34.1969604
  27.1034470   0.5312346  82.7319717  26.8618641   0.8933181  81.8794708
  26.6040211   1.0498694  83.3627090  24.7080345  70.4378815  76.6289978
  24.0996876  70.6217651  77.3447723  25.0379257  69.5587692  76.8149185
  55.1961708  48.3369865  11.5616789  55.6062088  47.5446625  11.2148027
  54.3342896  48.3622704  11.1460400  34.9005775  54.4014091  53.5347328
  35.1726112  54.4924202  52.6215248  34.5320435  55.2553215  53.7611008
  85.3417740  41.1181946  44.1424103  85.5313950  40.1807442  44.1042023
  86.1838379  41.5247345  44.3470802   9.6337004  14.9232540  13.2780476
   9.9905672  15.7680979  13.5521221  10.3492737  14.3035603  13.4200516
  66.2091751  30.4243717  51.2106133  66.8134384  30.3760548  51.9513969
  65.5137024  31.0116215  51.5067368  33.1792755  68.8211899   2.0538948
  33.7392120  68.1618195   1.6441053  32.9024353  68.4214020   2.8783679
  76.9073257  23.1678867  32.1170578  77.0152664  22.2658024  31.8156853
  77.0334549  23.1205215  33.0647316  30.9300766  62.6376038  19.2174911
  30.2727032  62.8922310  18.5699921  30.4934597  61.9767456  19.7549553
   4.5842314  59.1240578  44.6897507   3.8442006  59.7186432  44.8124580
   4.3595395  58.3517303  45.2086487  31.8146286  41.9914589  86.3240585
  31.6771545  42.5866623  85.5871277  30.9627113  41.9470482  86.7582169
  80.0659637  26.6078148  53.7005463  79.9257126  27.3590851  54.2768745
  80.9756546  26.6917057  53.4147720  70.2189102   8.1907339  10.3831930
  70.1290131   7.4814491  11.0196400  70.9980774   8.6692505  10.6663103
   6.5316958  33.9874268  82.6605530   5.8434987  33.4968605  83.1099548
   7.2840528  33.9396553  83.2503967  85.2876282  22.2403431  29.0064278
  85.9665680  22.8481236  28.7133865  85.6912766  21.3757210  28.9307060
  56.9405136  11.1640358  83.9408951  57.0037003  12.0334044  84.3364182
  56.6635742  11.3303833  83.0398560  83.2706985  19.6956463   0.1006343
  83.5424957  20.6066093   0.2124609  82.4028015  19.6536331   0.5021548
  47.4778595  48.5520744  89.2844772  46.6347656  48.7375259  88.8709183
  48.0934830  49.1407623  88.8477936  81.4585800  63.7120667  78.7228088
  81.4700394  64.6683426  78.6822968  81.7180328  63.4320259  77.8450317
  45.1039925   8.4536848  33.5311928  46.0352020   8.5287857  33.7396164
  44.9891853   8.9940128  32.7494659  74.3271713  66.9119949  39.1507950
  73.8020935  66.2031250  38.7792892  74.6412811  66.5651321  39.9858131
  73.6303101  32.4574623  11.2531166  73.9453430  31.5590477  11.1539116
  74.2249756  32.9805298  10.7155304  62.0372391  47.8425179  83.9619598
  61.2035027  47.6002731  83.5589218  62.6827011  47.7278366  83.2644882
   9.2560434  29.0674038   1.5614620   9.2625141  29.0749474   2.5186105
  10.0735950  28.6321335   1.3198413  80.3870697  57.8832245  19.2497139
  80.2209778  58.8030128  19.0432396  81.3186111  57.7610741  19.0665932
  64.9768524  35.8180504  36.4194946  64.5392914  35.3690567  35.6961823
  65.2448196  35.1147461  37.0109253  26.4085827  15.1349735   8.9040489
  25.7081108  15.4565191   9.4716568  26.4611435  14.1985817   9.0954628
  70.2785645  69.6441574  23.3752365  70.9165421  69.7181778  22.6654930
  69.5253143  69.2090836  22.9757957   5.0158424  14.3289843  46.9377670
   4.7154827  14.7909241  47.7204704   5.4637570  14.9989777  46.4213219
  85.9366455  68.9397888  61.4626007  85.1074829  68.5742569  61.7709770
  86.4619598  69.0446091  62.2558784  81.7889404  69.4039688  21.8131180
  81.6295395  68.6251068  22.3462238  81.9591141  69.0625839  20.9352055
  57.3297844  65.3882294  83.1554871  57.2782211  64.5687332  83.6474152
  57.0410423  65.1563187  82.2728348  74.4068451  49.4838028  13.4897013
  73.6589966  49.3553085  14.0731773  75.1627121  49.1977425  14.0025902
   3.4620881  16.6757393  58.4170456   2.5713127  16.3962288  58.6282921
   3.6816068  17.3112679  59.0983276  48.1778412  64.3173141   7.9511347
  48.8651505  64.7536697   7.4477134  47.5607414  65.0157318   8.1693993
  81.4201813   2.0223837  80.3886719  82.2988129   2.3094683  80.1400452
  81.5650864   1.3892111  81.0917587  58.1555023  19.8994675   2.4510090
  57.4665794  20.2437954   3.0193882  58.9555016  19.9759216   2.9709990
  65.9797974  54.9152870  40.7073936  66.6743088  54.8195305  41.3590927
  65.3096695  55.4389038  41.1466942  83.0072861  26.4039860  84.0956802
  82.6395874  25.5248165  84.0057373  82.6776657  26.8805580  83.3337936
  38.7064934  22.0050030  30.1165352  39.1944237  21.2553940  30.4574833
  37.8680801  21.9747162  30.5773811  73.4098129  62.6215591  53.2597008
  73.0897598  63.3470573  52.7235527  74.2077179  62.9586143  53.6670990
   4.3341041   1.5691668   5.9177132   4.3646970   0.6369230   6.1326957
   4.1435628   1.5925845   4.9799619  26.2932892  53.8036385  24.4819336
  27.1367626  53.5476685  24.1087532  26.3840885  53.6320000  25.4192333
  75.4563370  42.5236015  21.8336411  76.4066544  42.5289803  21.7191887
  75.1859207  43.4197502  21.6335640   9.1843538  67.0126953  33.8806915
   9.8213205  67.7106781  33.7279816   8.6143379  67.3550568  34.5692406
   7.1188622  58.3326683  37.6994743   7.6573672  57.5667686  37.8985786
   7.4104528  58.6113586  36.8314095  64.5130997  26.9693451  89.1591415
  64.8853989  27.7751427  89.5173569  63.7229424  27.2540245  88.6999664
  63.2170792  34.9119759  38.8189125  63.1049347  34.7246780  39.7508850
  63.5544930  35.8073730  38.7934685  32.9637604   9.2420759  88.1184311
  32.6460075   8.3628616  87.9128876  33.2404556   9.1889706  89.0332260
  70.7495804  30.0457726   4.8978634  71.1468964  29.2986412   4.4504628
  70.1288834  30.4029007   4.2627020  19.0489445  34.7403374  30.5860348
  19.0960331  33.8586197  30.9556103  19.1180172  35.3215179  31.3434563
  66.0370865  18.3323383  65.3807526  65.3885651  18.6491966  66.0094376
  65.6335449  18.4799385  64.5254211  42.9515686  65.1747818  26.6684647
  42.1246109  65.3291550  26.2118034  43.4700012  64.6535263  26.0554752
  66.5226135   4.2561398  66.4698868  67.3814697   4.6731176  66.4011536
  66.0235672   4.6131053  65.7351990  23.3843422  70.4975281  55.7008934
  22.7305794  70.6198273  56.3892746  22.8710499  70.3464203  54.9072151
  65.6683044  29.9420013  69.2607574  64.8335571  29.5196552  69.0581436
  65.4298019  30.7006550  69.7934799  52.0134277  61.9994316  83.0474625
  52.1760483  61.2352715  83.6004944  52.8078957  62.0874138  82.5208664
  75.5958710  35.0800514  35.9523735  75.9020920  35.9616699  35.7397385
  76.3941498  34.5538902  35.9986115  71.9387817  71.1665878  89.1305618
  71.5279846  70.9924622  88.2837067  71.6420364  70.4507141  89.6924286
  61.4783669  28.9985065  11.1901722  60.6091232  29.3813381  11.3088894
  61.8316994  28.9269466  12.0768871  58.6976891  20.2525883  29.5238590
  59.4230652  20.7096367  29.0982189  58.1849861  20.9481544  29.9356289
  71.5645752  20.7557507  85.3217850  71.1780701  20.3750992  86.1104202
  71.2273178  21.6512527  85.2980270  77.6319656   6.8297129  43.3710136
  77.4693298   6.2507606  44.1157265  77.0342331   6.5189514  42.6910324
  10.0790310  33.8772202  45.4831810  10.2256794  34.4527702  46.2338257
  10.5212946  34.3148727  44.7557907  76.4514236  51.5065918  87.3088074
  76.3716202  52.4604530  87.3055725  75.8244247  51.2160301  87.9711380
  37.6122894  65.9302826  57.0751114  38.3637924  65.6911087  56.5326385
  37.9587860  65.9544907  57.9670677  62.7692833   3.4909618  41.8997917
  62.5170517   3.5889831  42.8179436  63.7256813   3.5291219  41.9087601
  15.3798141  63.8928986  65.0715790  16.1931477  64.3960876  65.0325775
  15.6069136  63.1089706  65.5716858  73.5455093  13.2522182  16.2884979
  72.6981812  13.6584978  16.4707184  74.1718750  13.7652683  16.7990608
  72.0645370  46.2346992  85.4765015  72.6539230  46.9842453  85.5604019
  72.5623779  45.4977455  85.8304520   9.9993811  41.5116425  81.1867065
  10.1151867  40.8922806  81.9072723  10.8899298  41.7185173  80.9032364
  19.1770706  34.5115204  86.6215591  19.3059082  34.9588585  87.4579391
  19.4445114  33.6079254  86.7895432  33.7676735  43.9621162  86.3257294
  33.2353897  43.2038956  86.0848770  33.2141075  44.4627190  86.9250565
  63.9826088  51.2129478  72.1668854  64.6804581  50.8351822  71.6315994
  64.3733292  51.3113213  73.0351486  44.4360466  14.7487993  29.9804726
  45.1342583  15.3825331  30.1451435  43.8961601  14.7765999  30.7703953
  25.6708794  45.1990280   7.1989651  25.4285049  45.7521896   6.4563355
  25.8508930  45.8158913   7.9084082  13.9676495   5.7835865  21.6857357
  14.2929621   5.0617747  21.1477852  13.9653225   6.5386291  21.0974026
  27.1442242  68.5369492  39.4233360  27.7451115  69.2778549  39.5022697
  26.6239147  68.7325211  38.6440659  47.4966888  26.8256512  33.8304634
  47.8941383  27.2067909  33.0475197  47.9137230  27.2856941  34.5589371
  79.5340195   5.5394654  31.9509354  79.3563766   4.6379924  32.2193031
  80.4534836   5.6798902  32.1769829   5.2390347   4.2760944  63.3828430
   5.0259686   3.4356411  63.7883949   4.9276328   4.1929088  62.4815407
  33.3644905  61.1641922   8.7986870  33.6595192  62.0746689   8.7838745
  32.6133652  61.1461334   8.2056293  58.8567238  31.5824223  76.0949554
  58.3189621  31.9011173  76.8198547  58.7019043  32.2092171  75.3882751
  14.6501026  14.7015324   3.1480606  15.2606840  14.0035248   2.9109814
  14.3778000  14.4886112   4.0406675  81.2236710   7.7455654   8.6271143
  80.3713760   7.8758993   9.0428610  81.6107178   7.0088620   9.1000786
  39.1763077   1.2510978  25.3838310  38.3776817   1.5258121  25.8343468
  39.1236534   0.2955471  25.3642807  84.2223129  70.6825256   3.9724100
  84.5263977  69.7895432   4.1347308  83.3395462  70.5743332   3.6185088
  66.2593994  36.2630806   4.9089212  66.5571518  36.4810295   4.0257053
  66.9502335  35.7032356   5.2632484   8.1557512   0.4644801  82.0725708
   7.5178380   0.7990401  82.7029419   8.1159639   1.0809767  81.3414154
  62.8421288  34.4269447  45.6842232  62.7104683  35.3427429  45.9296150
  62.1391182  34.2424393  45.0613556  63.9379997  34.7941284  34.3275719
  63.4993706  35.2229958  33.5927887  63.4313469  33.9956932  34.4760170
  50.8295975  61.7227058  57.3084106  51.3155746  61.2461510  57.9814301
  49.9445648  61.8034248  57.6639900  25.1584892  36.4860039  13.4978733
  26.0576077  36.6610374  13.7756891  24.6850243  37.2939911  13.6959095
  56.3248482  66.8324509  54.3563080  56.3927956  66.8685913  53.4022064
  57.2272148  66.7243195  54.6567612  43.7683907  18.7783756   1.1616422
  43.9252510  19.7185574   1.0739852  43.4698524  18.5035095   0.2947182
  19.1650295  44.4147644  19.5519505  20.0802727  44.4048653  19.8320637
  18.8615189  43.5180588  19.6934910  48.3176689  57.3570480  64.5960999
  48.5666199  57.4599991  63.6775970  47.3907013  57.1200447  64.5678940
   1.7099811  45.1593018  22.7296181   1.5706437  45.2345657  23.6736259
   1.1088666  45.7984810  22.3470726   1.1561834  32.2909393  39.1578827
   1.2398207  32.8745117  39.9119911   2.0533288  32.0184593  38.9652290
  18.6466770  30.8000374  73.6711044  19.2364330  31.2557983  73.0705261
  19.0209999  29.9230595  73.7549057   6.7031040  53.3790207   0.6619434
   6.8686762  52.4463348   0.7994666   6.8204107  53.5068550  -0.2794015
   1.7813765   7.9916587  36.4057961   2.6807671   7.9836521  36.7333107
   1.8086237   7.4490752  35.6177025  68.3496780  14.5338840  20.6754360
  69.2979660  14.6277018  20.5849743  68.0157089  14.6035271  19.7810955
  33.0191078  57.2242813  76.9358978  33.9148750  57.4460716  76.6816483
  32.4906044  57.4464149  76.1693649  78.8281784  44.3799553  54.5920029
  79.3405304  44.2887726  55.3953819  79.2115326  45.1363564  54.1480064
  44.6648102  41.3857231   5.7552500  43.9617424  40.7394447   5.8204417
  44.2126846  42.2189674   5.6228971  18.2305355   4.2367969  21.3841648
  19.0558605   3.8013625  21.5973949  18.4625130   5.1616073  21.2996407
  34.9191551  70.0538101  70.0324631  34.9520874  69.6792145  70.9127045
  34.8750458  69.2949524  69.4507294  81.1469116  53.0914612  52.9216995
  81.5582886  53.1285744  53.7851944  80.2226410  52.9217949  53.1038246
  37.4764938  18.4721870  84.7403183  37.0571938  18.2369404  85.5680161
  37.4157944  19.4267673  84.7038956  80.3208466  59.2298546  53.7202950
  79.8832474  58.4651413  54.0944061  80.7647400  58.8945618  52.9413414
  66.4550400  37.1767349   2.1881709  67.1075134  37.8755112   2.2352746
  66.0332718  37.2997894   1.3377591  55.6484871  63.5007935  30.9691525
  55.9077950  63.1833954  31.8341675  56.0775337  64.3526001  30.8880482
  15.2652206  54.5678596  38.7566490  14.9161997  54.9130440  37.9349060
  15.1385860  55.2767830  39.3872223  46.1936264  42.7714386  71.1511612
  45.6523323  43.5389519  71.3359833  46.7351341  42.6662674  71.9334335
  54.3454361   8.2099047  80.7086868  54.2034988   8.1413307  79.7645493
  54.8595238   7.4335709  80.9306107  32.1097565  16.3267593  46.2731590
  32.2848320  16.0060902  47.1578903  31.4933319  17.0484066  46.3975677
  18.4207592  22.5975571   2.0272634  19.0263462  22.1738720   2.6355298
  17.6571388  22.0206909   2.0087991   9.4975967  54.3073196  66.9094086
   9.3051043  55.2266273  67.0939407   8.6723785  53.9512520  66.5800705
  46.0602112  48.5493851   7.6793909  46.3592415  49.4089050   7.9761043
  46.8147392  48.1779518   7.2222672  66.4237595  22.4125576  74.9400177
  65.8596649  22.7651844  74.2517700  67.3100815  22.4919586  74.5873642
  19.4358749  18.0341396  62.0809250  20.1342812  18.6537533  61.8698845
  18.8042049  18.5476341  62.5844612   5.2217546  62.0452652  78.0431061
   5.9856267  61.4784775  77.9359436   5.3720169  62.4950638  78.8745651
  17.8831806   9.3228388  17.0722256  18.7968197   9.3670645  17.3542538
  17.6681995  10.2194614  16.8151608  59.7435036  37.1088028  41.4699745
  59.3859444  37.4134674  42.3039780  60.6552162  36.8921547  41.6651077
  51.5864029  23.3294773  39.0566063  52.4934502  23.1035862  38.8505287
  51.5504265  23.3273144  40.0131302  65.5540695  58.9143143   3.5481496
  65.7886353  58.1695938   4.1018686  66.3822708  59.1919861   3.1567254
  77.6146698   4.0138645  12.3131008  76.9505463   4.5439153  12.7538061
  78.3171158   3.9258125  12.9573441  66.4701843  61.7169609  66.6687698
  66.9101105  60.9977455  67.1220093  65.7166061  61.9232635  67.2217484
   2.6817546  36.0837097  56.3588524   2.4569404  36.8737526  55.8673973
   2.0178528  36.0323486  57.0464783  76.5675125  69.1230087  61.9304237
  76.9583893  69.9777451  61.7491341  77.0644150  68.7856369  62.6757469
  50.4586067   5.9219203  47.5356598  51.2396126   5.5156765  47.1598625
  50.4299393   5.5982642  48.4360237  22.2412796   0.8731703  88.6782379
  23.1694946   1.0600939  88.8186188  22.1073189   0.0130017  89.0762329
  52.1250458   7.1410570  69.3110275  51.5978012   6.3977695  69.0181656
  52.9565849   7.0423627  68.8473129  47.0588760  70.6574097  26.6687298
  46.5191917  71.2497101  27.1923256  47.5765419  70.1733017  27.3120747
  68.1190109  64.6244659  20.2879429  68.7996063  64.2957993  19.7005749
  68.0213013  63.9388351  20.9486942   1.2658597  50.7836876  25.9560547
   1.1619464  49.8335381  26.0075588   1.0375744  51.0009499  25.0522213
  15.1548882  70.8674774  67.0789261  15.2495356  71.7796173  66.8045883
  14.2092142  70.7211685  67.1019135  83.0341797  22.6114883  48.8731270
  83.3615570  21.9633083  48.2494965  82.7038956  22.0926781  49.6066017
  48.0714569  47.3862572   5.9477987  48.1148338  47.3441467   4.9925098
  48.7956200  47.9611893   6.1953292  77.1521912  69.0132980  42.3682899
  77.5079651  68.9882965  41.4800148  76.4780121  69.6920776  42.3372574
  30.6401634  51.2245712  31.3637867  30.3902073  50.3867378  31.7533970
  31.5855160  51.2808876  31.5029507  40.3871765   5.0385613  72.2406311
  40.4519424   5.0922160  71.2871323  41.1305428   4.4946232  72.5009537
  40.2767258  29.2667618  39.6468010  39.9457855  30.0040455  39.1338463
  39.6007652  28.5942173  39.5631828  17.1547318  30.9195194  11.3127394
  17.9628429  30.6306133  11.7366734  16.4754353  30.7816467  11.9728756
  17.1660480  27.4689026  11.3557644  17.3732662  27.3224926  10.4328041
  17.9153042  27.9587898  11.6946697  66.1561127  28.1562977  57.4419327
  65.2578125  28.4537067  57.5862808  66.6642227  28.5862865  58.1298027
  40.3154678  68.9513702  67.1714249  40.8474464  68.4430313  66.5592041
  40.8567467  69.7113342  67.3852234   9.8028288  29.0745964  66.2678909
  10.1049976  28.7894135  67.1302109   8.8479242  29.0432835  66.3262787
  83.9502029  64.3106079  59.9771271  83.8942719  63.3819962  60.2024994
  84.7129898  64.6287460  60.4600105  63.1877060  41.9736328   8.8102293
  63.0177155  42.2640381   7.9141278  63.0523834  41.0263863   8.7847595
  41.3680954   8.4563274  45.4902992  41.2456589   7.5489907  45.2110481
  41.3393288   8.4186459  46.4463234  34.6866379  12.7565355  85.9053650
  35.2106438  13.2962446  85.3134537  33.7816887  12.9169760  85.6378479
  42.0104485  15.9878340  28.5820484  42.6689911  15.3213081  28.7777424
  41.1828423  15.5959644  28.8608665  72.5939941  25.2855358  60.9211693
  71.6843719  25.2145615  61.2106056  72.5403442  25.7085838  60.0642052
  56.4570465  40.7669983  67.3403473  56.9499359  40.9329758  68.1439285
  56.8918533  40.0117798  66.9443436  22.6999912  53.8089943  30.3871670
  23.4628925  53.6727867  30.9490051  22.4805508  52.9347115  30.0651283
  57.6715546   1.0653830  60.3150558  56.7812233   0.8336723  60.5793571
  57.5735550   1.8916779  59.8419151  50.6834564   9.7637062  13.5287132
  51.1082649   8.9661703  13.8444757  51.4034958  10.3778229  13.3850660
  67.2589264  14.1706057  75.9382706  68.0213089  14.2791624  76.5067978
  67.6279526  13.9633589  75.0797272  53.9060173  22.1271553  79.9437027
  54.0523720  22.2297649  80.8840637  54.7270470  21.7639008  79.6117554
  53.3088493  10.5560913   1.1841419  53.5031433  11.1125126   1.9383816
  54.1672707  10.2825298   0.8608627  44.0861435  19.0164661  67.4069824
  43.5276604  18.3931999  67.8715973  44.6459465  18.4708710  66.8545532
  16.7694855  14.5316658  13.4781694  15.9794903  13.9940968  13.5343685
  17.3710480  14.0177794  12.9393959  83.9793549  65.8492203  47.6760826
  84.3348465  66.4505539  47.0216675  84.0462723  66.3276825  48.5024147
  33.2583046   0.9912788  79.6455688  33.5385475   1.3939511  80.4674911
  34.0720825   0.7122489  79.2258759  85.0133286  24.9279575  15.9804878
  85.5313110  25.3542099  16.6632977  85.5160828  25.0652637  15.1776114
  47.6939354  10.5355759  54.5762062  48.3264160  11.2496519  54.6555481
  47.9254570  10.1006355  53.7555618  26.9042492  55.1387329  42.4386330
  27.8556709  55.1809349  42.5347977  26.6633587  54.2901535  42.8102722
  25.3808041  10.9384308  15.0513916  25.9708481  11.6615868  14.8389664
  25.9614239  10.2270575  15.3216896  29.6552906  63.6277199   9.8181887
  30.0384579  63.8585396  10.6644382  28.7952309  64.0478592   9.8221006
  48.1936836  18.2404079  77.0319443  48.6426277  18.1487408  76.1915436
  48.5966301  19.0088234  77.4361801  53.7921028  39.9096527  84.0633698
  53.3333282  40.6099777  84.5273743  53.1715240  39.6183624  83.3953400
  12.2174520  12.0098143  13.8707809  12.0410843  11.3870306  14.5759525
  11.7471075  11.6562662  13.1157904  74.7473526   2.5009561  67.7029953
  74.2086716   2.5119941  68.4941559  74.1520462   2.2106609  67.0119324
  73.3353424   5.0850372  57.8622551  73.3950272   4.8645349  58.7917976
  72.3960419   5.1588488  57.6934357  32.1381378   6.7143230  26.9453411
  31.5951500   6.8570137  26.1700764  31.8006325   7.3345413  27.5916004
   9.6178303  70.2271118  12.4347134  10.4094381  70.6236877  12.0709639
   9.0134563  70.9604797  12.5492859  72.8846512  58.2060280   0.7808695
  73.6133499  58.4746857   0.2213594  73.2481232  58.2109261   1.6663603
  23.8005390  53.9448929  73.9654999  23.7992249  54.8828125  74.1566544
  24.6198483  53.6246872  74.3429031  27.1359959   5.6554737  80.3789749
  26.8050995   5.7167130  79.4828796  28.0034714   5.2613153  80.2875519
  62.0639458  10.1660271  11.4445772  62.7561417   9.7191505  11.9318161
  61.7635880  10.8572378  12.0346994  58.7396851  52.1788521  22.3969440
  57.9166679  52.6099548  22.1666718  58.8636475  51.5191917  21.7145100
  85.7247849  36.2226753  78.7816772  86.6340866  36.0530434  79.0279083
  85.7157211  36.1412964  77.8279877  69.2741699  39.4257469  32.9986610
  69.9016647  39.0835686  33.6353760  68.4376831  39.0366478  33.2538567
   3.8674448  66.0163651  58.8840256   4.2983408  66.5466080  59.5544014
   3.3406312  65.3879166  59.3777390  41.1370049  43.5042229  81.1207657
  41.7733650  42.9624748  81.5874405  41.4170036  43.4684258  80.2061310
  20.9864807  68.8382339  80.7340164  20.7252827  69.7488098  80.8713455
  21.9096699  68.8886490  80.4861984  17.6477051  57.9679489   1.0659779
  17.7503300  57.7398224   1.9899139  17.7372570  58.9206772   1.0431336
   7.7024603  18.9432602  66.9087219   8.4216976  19.5498142  67.0848465
   7.8285565  18.2330551  67.5379639  41.1562462  65.0191879  35.9086876
  40.9228477  65.5122452  35.1221428  40.9557037  64.1093063  35.6893044
  74.1877441  28.7616253  30.9885368  73.5913086  29.3928852  30.5860348
  75.0162964  29.2338009  31.0708981  65.5249329   9.6137648  88.7901764
  66.4080887   9.2846289  88.9572983  65.0897522   9.5750847  89.6418533
  84.0109711  69.7704239  32.6621552  84.4991608  69.5083847  31.8816147
  83.8061752  68.9465637  33.1043663  10.4303780  11.4457159  28.9762192
  10.9661350  11.9108868  28.3337135   9.5291424  11.5987806  28.6923580
  65.4923630  28.7225857  65.6331024  64.7066345  29.0238590  65.1769257
  65.2040710  27.9531307  66.1240768  63.4802895   1.1441962  44.4026947
  62.8587646   0.4837087  44.7087860  63.9122620   0.7368645  43.6518860
  34.8579636  38.2995567  23.4615631  35.5571022  37.9508286  24.0145798
  34.1487961  38.5025597  24.0715637  59.0466614  64.5845871  65.2109985
  59.6085129  64.9571838  65.8905029  58.4785004  63.9726524  65.6789322
  14.8387623   4.1091352  49.6122475  14.9950771   3.7680066  48.7316628
  13.9392948   3.8505776  49.8130951  50.1869049  42.9065742  75.1794281
  50.3230629  43.3818321  74.3597794  51.0197868  42.9871941  75.6442337
   0.4508359  43.2744675  44.0168610   0.0375399  43.9191589  44.5911369
   1.1212842  43.7687531  43.5452576  62.7311440   9.4553194  15.1287756
  63.2861443   9.4528837  14.3489027  62.4640007   8.5423679  15.2354841
  72.3977432  58.1093178  67.8624420  72.1355057  57.2800255  67.4627762
  73.3055038  57.9689484  68.1317062   1.6895300  66.8622894  83.6946411
   1.2401811  67.0156860  82.8635025   2.6043253  67.0802765  83.5161362
  20.9803181  59.1031647  74.8952866  20.1445236  59.5557976  75.0084381
  20.9964237  58.4512444  75.5959854  59.5082855  47.3329926  13.5197067
  58.6145668  47.6643524  13.6074524  60.0577545  48.0262833  13.8853054
   1.8569334  70.9259109  83.1789627   2.5769255  71.4001312  82.7630768
   1.1075908  71.5171432  83.1070938  63.2176056  33.1292725  80.1654205
  63.8782730  33.7300377  79.8206940  62.7682076  33.6317825  80.8449478
  63.2602310  66.3458557  65.8914413  63.0086212  65.6764984  65.2551270
  62.4903984  66.4453049  66.4515305  53.2445221   4.3065610  20.1328506
  52.8809967   4.8098879  20.8613720  53.9769135   4.8361936  19.8176975
   4.9353447   8.2381449  51.3850746   5.5313683   7.7510691  51.9540596
   4.3368907   7.5749044  51.0412788  55.3854828  62.1004143  78.4263840
  55.3458328  61.2429428  78.0028305  56.0506096  62.5806351  77.9332047
  57.7807388  34.8568420  71.3088684  57.3653603  34.5642471  70.4976501
  58.5233192  34.2641258  71.4250336  60.3035316  38.3922005  39.1772995
  61.1103401  37.9904137  38.8550262  60.0390854  37.8410034  39.9138336
  30.4649563  64.6391068  56.3126106  30.0461063  64.7236557  57.1691437
  31.3163986  65.0632095  56.4194450  16.9224072  68.4584045  69.0930023
  16.0111408  68.3610001  68.8167114  16.9726810  69.3477325  69.4434433
  78.3799591  49.6981964  68.4412384  78.8243942  50.1160240  67.7035828
  78.1612167  50.4208565  69.0295792  45.5864143  35.8108177   6.5483341
  46.4301872  35.7822647   6.9994040  45.0241013  35.2247314   7.0548325
  77.8298416  10.7441072  11.6639605  78.4147110  10.1352215  12.1149797
  78.2031937  11.6081457  11.8379602  46.0235329  21.8447247  17.9724503
  46.5943298  21.9900322  17.2179241  45.3783760  22.5501804  17.9240952
  80.7082443  69.0024719  13.3793831  81.4871826  69.5439301  13.5070896
  80.0210114  69.6242142  13.1398230  13.1265316   1.5508143  88.5116196
  13.1830912   2.1280951  89.2730484  12.5726986   0.8258433  88.8013000
  27.2969608  45.0998421  20.3462734  26.4576530  45.5286636  20.1792068
  27.2308598  44.7873878  21.2486229  14.0362291  31.7220192  12.3257322
  13.4062757  31.1687794  11.8638706  14.5767021  31.1070213  12.8216143
  86.1974564  48.1488152  76.5740204  86.9663849  48.7161713  76.6296768
  86.1796951  47.8582497  75.6621628  82.3871994   4.3475327  30.1472340
  82.5408783   5.0401955  30.7897549  83.0996170   3.7247155  30.2914505
  83.0812225  56.5186653  10.9445601  83.7890091  57.1598816  10.8804302
  82.4833603  56.7499619  10.2337170  34.2401924  28.6026001   4.4827499
  34.2828064  27.7082443   4.1443067  33.7706032  29.0921288   3.8074124
  73.6484680  29.3243847   9.9794111  73.6054916  28.3986397  10.2189522
  74.5242691  29.4356632   9.6095190   1.0468626  16.0284252   0.3478151
   0.5491868  16.6684494  -0.1610268   0.5590169  15.9420147   1.1668216
  21.9715443  66.2664185  79.2931137  21.7747288  66.9115601  78.6139297
  21.1957893  65.7065048  79.3236237  23.4344330  42.4901657  13.6400013
  24.0096169  43.2378426  13.4775867  23.9055977  41.9608498  14.2834768
  45.6212234  63.2231789  38.3959579  46.2339821  63.9505920  38.2881393
  44.8613510  63.4699669  37.8687744  10.1418619  45.3488579  24.4162693
  10.2782764  44.4355354  24.6681900  10.3528051  45.3739433  23.4829407
  50.2474899  22.0429611  13.3987560  50.0618858  22.2221413  12.4769764
  51.0866814  21.5826435  13.3890162  39.8448639  55.2288055  86.9394302
  39.3222160  55.7435417  87.5543365  40.7469139  55.3410759  87.2393112
  54.3336029  64.7226791   8.7613869  53.4873123  64.3022308   8.9138536
  54.8077469  64.1098099   8.1994219  76.5841827   6.0211649  14.1373587
  77.3194122   6.3771529  14.6362963  76.0703278   5.5348191  14.7820721
  65.0378342  70.6303711  86.4366226  65.1626663  71.2699051  87.1377945
  64.9698563  71.1577759  85.6407242  62.6732597  38.3560066  60.8521385
  61.9308281  38.6937904  60.3512115  62.3384285  38.2641907  61.7441521
  30.9174442  60.8271255  49.4005280  30.1584358  61.2805786  49.0337639
  31.2974968  61.4548264  50.0151711  28.8825970  52.5471840   3.7413414
  28.3713913  52.7593842   2.9603980  28.2427788  52.1883163   4.3562222
  76.5031662   6.0762529  58.4354553  76.0994492   6.3950243  57.6282196
  75.7794189   5.6906366  58.9291420  63.9277039  45.4223442  45.0965271
  63.5390930  45.5305290  45.9645767  64.7134781  45.9686089  45.1161194
  28.5295753  55.5695267  84.6026611  28.8786507  56.3006058  84.0928574
  29.2891541  55.2161179  85.0656662  70.1528931  23.5018768  76.7833023
  70.3017044  22.5679779  76.9313507  69.2261658  23.5629635  76.5516129
  17.8848972   2.4077706  45.5594521  17.7548218   3.1496260  46.1501846
  17.3489380   2.6144583  44.7937775  78.1124191  28.8849506  61.3033867
  77.4261322  29.2578754  60.7500572  77.7022858  28.1232204  61.7130127
   6.2020106  32.2694550  15.0502539   6.3722453  32.4098892  14.1188412
   5.4380293  32.8144035  15.2389269  20.1694012  16.5050449  64.1362686
  19.8926563  16.9700642  63.3467102  19.7789707  15.6352406  64.0512009
  19.4403801  31.8213196  79.8479767  19.3997898  31.3391724  79.0220718
  19.6664963  31.1590652  80.5010605  28.3776169   7.0836530  59.7935333
  28.6084499   7.6156373  60.5550690  29.1989002   6.6647253  59.5361900
   1.6812942  63.7430611  55.0644569   1.9050887  62.8692322  54.7441826
   1.7565311  64.3068619  54.2945900  68.4656830  13.2416477  53.0276871
  68.5191803  13.8748131  52.3118134  68.9504776  13.6497250  53.7450981
  56.5098000  47.8382568   8.0708199  56.0285912  47.3233109   7.4231310
  56.6916466  47.2215881   8.7799635  61.6240082  45.5281487  52.3012314
  61.8262558  46.3681602  52.7131920  60.6922379  45.5835533  52.0891876
  47.9900818  38.1912346  23.3536739  48.8804588  38.0285378  23.0422440
  47.7550240  37.3966713  23.8328934  22.5728722   1.4168056  32.3974991
  22.5242043   1.2057858  31.4651203  21.7036304   1.7552935  32.6121521
  56.6614113  22.6403790  86.6696625  56.4378014  22.1373825  87.4527435
  57.4862213  23.0730667  86.8903503  13.2295017  71.2468185  36.4043694
  12.5287399  71.3798676  35.7660408  12.8930616  70.5701141  36.9918251
  15.0640640  56.4604530  14.5253258  15.5684280  55.6485481  14.5768833
  15.0786886  56.6929550  13.5969076  37.5275307  68.7001114  78.2427673
  36.9138641  69.2657013  78.7115555  37.8258667  69.2307358  77.5040665
  21.7933140  64.9223862  30.2058697  22.0982056  65.1712952  29.3333359
  22.1211510  65.6141434  30.7805214  84.3217545  37.3117180  57.5830154
  83.7249069  37.8454704  57.0584946  84.6044846  37.8925095  58.2893944
  79.2341461  46.3704185  31.2627563  79.5390396  45.4678650  31.1696281
  79.0851822  46.4771690  32.2022476   6.0210814  21.2760201  23.2765026
   6.3128171  20.7821579  22.5101986   6.7831349  21.2919788  23.8555107
  40.8851662  67.3195343  69.5690842  40.5235825  67.3300095  68.6828690
  40.1247978  67.4329529  70.1393509  67.5454254  36.7372169  32.9910736
  68.2954483  36.2522469  33.3353157  67.8520203  37.0916748  32.1564560
  86.3349533  17.0881786  77.0040894  86.2435532  17.2742176  76.0696030
  87.2333374  17.3444443  77.2125778  20.5796165  69.0646973  29.2539425
  19.8879547  68.9656906  28.5996990  20.2084484  68.6911774  30.0532837
  20.8144379  28.2110271  78.8352585  20.6681633  27.4523544  78.2702332
  21.7439804  28.4131966  78.7289124  65.1354370  18.6651535  13.8921204
  65.2923203  19.2285690  13.1343727  64.2456131  18.8811378  14.1710386
  54.9498024  61.2366791   4.0993676  54.1984367  60.9881020   3.5609524
  55.6867867  60.7608681   3.7163727  80.3308487  22.4853020  67.1956558
  79.3747406  22.4594517  67.2334442  80.6114655  21.7296181  67.7118149
  61.2360039  66.4083786  38.1918983  60.9464874  65.8835907  38.9382286
  60.8134117  67.2579193  38.3181419  81.0131454   3.9039679  12.0644026
  81.4018707   3.4314513  12.8005075  81.4522018   4.7545280  12.0670767
  82.1612701  51.5213242  11.8674030  82.5284882  50.8217659  12.4077778
  82.7329178  52.2723312  12.0269203  53.4467201  46.8716087  65.1970901
  53.5760384  46.6098747  66.1086884  52.7658348  47.5433121  65.2350464
   4.6144762   8.0641365  68.0233231   4.8515029   7.3001847  68.5490875
   4.8036585   8.8124924  68.5893631  53.0444832  59.6896896  84.8493576
  53.0703392  60.3200150  85.5692520  52.8277130  58.8566666  85.2680588
  55.5464439  14.2542171  24.6068039  54.7964554  13.6849670  24.7791595
  55.1636200  15.1217270  24.4760151  14.5270939  15.2843161  70.5038528
  14.8867559  14.5867710  71.0518570  15.2666054  15.8716841  70.3478012
  41.0606804  23.7327423   4.7714972  40.8155365  23.4500980   3.8904479
  41.0656776  24.6887321   4.7236333  16.1346130   1.9824765  24.0985641
  15.3415155   1.8891672  23.5708103  16.2186394   2.9254363  24.2399788
  14.2288923  50.2591705  34.5894775  14.1895971  50.2936668  33.6337051
  14.3748026  49.3346481  34.7899818  53.2488747  12.5992165   5.2699413
  53.1792564  13.3775415   4.7171345  54.1892776  12.4879246   5.4095392
  54.6132889  21.5483475  12.7738810  55.2531242  21.7225227  12.0835857
  55.1420250  21.3856831  13.5550413  14.2325354  24.9509468  34.5793877
  13.8396158  25.5646000  33.9586830  13.8817110  24.0969925  34.3265724
  76.8842850  69.4323044  28.0813274  77.3731232  68.7634506  27.6018353
  76.6562729  70.0838242  27.4181862  11.3694677   2.9802558  26.8788872
  11.3618097   2.3063080  26.1992054  11.2301655   3.8000832  26.4048519
  13.1862869  55.6238327  57.2908707  13.0234680  55.2659683  58.1636009
  12.5302324  55.2047348  56.7339287   4.7859321  49.0914803  22.4128647
   5.1741328  49.2288933  23.2769547   5.3820124  48.4827461  21.9765549
   7.7378063  18.3177013  49.7639618   8.1278486  17.5464592  49.3525238
   7.9619107  18.2338676  50.6907730  25.5808601  60.1746559  39.2055359
  26.4384346  60.1292648  39.6283112  24.9563065  60.1815834  39.9308739
  13.1069117   8.0554295  16.1260605  13.7849569   7.4083071  16.3202724
  12.3079462   7.6851740  16.5012913  63.5548477  19.1091976  23.4258003
  62.6150017  19.0942345  23.6066399  63.7306900  18.2689381  23.0023918
  30.2928886   5.6247692  13.6996460  31.0602608   5.7851052  14.2488842
  29.8637161   4.8698139  14.1022434  20.7023716  67.6589432  17.9069042
  20.8720856  68.5785294  17.7024746  20.4846020  67.2623062  17.0634060
  74.6029129  41.0993042   4.5054569  75.4778137  40.9185486   4.1617908
  74.7482376  41.3235016   5.4246125  11.2826796  10.8966837  31.7742615
  11.7664585  11.6841478  32.0234375  11.2056856  10.9542027  30.8218994
  83.0486298  50.8078003  39.9150238  83.2919922  51.2051392  39.0788841
  82.1100540  50.9771042  39.9964867  77.8418655  15.1177254  14.1724215
  77.3495331  14.8184509  13.4080410  78.6990585  15.3630428  13.8241920
  34.9668465  55.7505341  68.2092514  35.9027328  55.5505562  68.1902771
  34.7850876  56.1280022  67.3486099  22.8783894  12.6432066  47.9396858
  22.0471840  12.1742697  48.0133591  23.4169178  12.2886915  48.6471710
   9.8763638  15.3765087  76.4656830   8.9213514  15.4005671  76.5257187
  10.0941734  16.0639248  75.8361969  50.7721062  31.4588432  30.0758171
  51.1988678  31.4141121  30.9314499  50.6159935  30.5449028  29.8379612
  55.7125969  32.8152657  65.1561966  56.4523354  32.6365662  65.7367935
  55.9232750  33.6569519  64.7519531  63.1793518  34.3686104  85.8396683
  63.9302254  34.2814789  86.4268875  63.4723816  34.9817123  85.1655273
  12.5003405  20.6144371  52.9274864  11.6362152  20.8361225  52.5805359
  12.5408487  21.0613842  53.7729607  50.3905945  22.7931843  63.8732719
  50.9101944  22.4104156  63.1663551  50.0926018  22.0415173  64.3855515
  70.4455185  32.9389725  70.2475204  69.4899902  32.9877930  70.2190094
  70.7393494  33.7193222  69.7774734   2.1693609  59.7740059  41.3630791
   2.9110034  60.3667603  41.2412567   1.9985911  59.7944221  42.3047028
  17.6405201   8.1980076  64.6447754  18.4539032   8.4990807  65.0497437
  17.8810673   8.0057125  63.7384682  48.5060616  43.2900505  84.7594147
  47.9230194  42.6212692  85.1186142  48.3147011  44.0752029  85.2723923
   5.4373660  51.5890541  20.6168938   6.3785925  51.4328575  20.6938744
   5.0333471  50.7975082  20.9724941  82.3920593  29.9456730  75.7595596
  82.7157745  29.8016682  74.8703461  81.4411697  29.8659439  75.6841278
  32.2839851  11.6256895  18.4659157  31.8028393  10.9535427  17.9832706
  33.1588287  11.6194201  18.0775280  74.8977890  35.2124596  42.8282661
  74.2208633  34.6187325  42.5034676  75.6036530  34.6348953  43.1187935
   4.8038282  63.1675377  80.6519394   4.0271692  62.6155891  80.7434921
   5.1608930  63.2274513  81.5380249  33.8592300  61.7645226  66.2516937
  33.5107117  61.9670982  65.3835220  34.5997772  61.1820908  66.0825806
  12.2561569  12.9222002  27.3503590  11.7722521  13.7466154  27.3994160
  13.1377563  13.1437368  27.6502514  59.3860626  22.3207722  66.4722290
  59.7696037  21.5965309  66.9668045  59.1711693  22.9765224  67.1355896
  12.7872095  48.2189140  71.7929535  12.3087807  47.6726036  71.1693573
  13.1169157  48.9485664  71.2684250  19.1682911  21.8893738  19.4552269
  18.3589020  21.5015945  19.7880135  19.8648930  21.4238968  19.9181614
  80.1568146  58.5499382  59.5054779  79.3698273  58.1734657  59.1115799
  80.8762817  58.2145882  58.9705582  80.7532654  61.6543159  13.0081778
  79.9981232  61.0824509  13.1458511  80.6556931  61.9675865  12.1089716
  25.1242409  15.4189529   5.8620238  25.0880451  15.4922075   6.8157296
  25.3013439  14.4924212   5.6995234  71.4889297   6.0344257  53.7670288
  71.7362671   5.2039571  54.1736984  71.6115494   5.8877282  52.8291206
   7.3819733   0.3333757  13.5919828   7.8926654   0.4862693  14.3869972
   6.5772176   0.8344967  13.7241859  58.5840225  66.2599869  87.4429245
  58.5567513  65.6570129  88.1858292  57.8466988  66.8527985  87.5884018
  81.8226242  35.4239235  32.3570023  81.5625763  34.5130005  32.2197800
  81.0982513  35.9364586  31.9980736  12.2164631  25.6236763  27.3864002
  12.9816475  25.1658497  27.0383797  11.8101969  24.9932861  27.9812012
  61.0706520  61.4640236  42.5917778  61.1748428  61.2620697  41.6619415
  61.5052299  62.3095512  42.7033882  51.8494530   7.4890656  30.9217224
  52.6053848   8.0350990  31.1377010  51.0940514   7.9999008  31.2126656
  77.5756531  52.9394913  35.9701385  77.0779114  53.4662857  35.3448677
  78.4045258  52.7604446  35.5261269  53.1454811  41.8257065  76.5108871
  53.1069527  42.1272354  75.6032410  53.0231934  40.8780670  76.4538574
  30.8738098  66.1245193  44.5085220  30.2088451  66.7933655  44.6719284
  31.7047844  66.5978165  44.5498199  73.0233002  61.2586098  44.4591675
  73.7940521  60.8435249  44.0720215  72.8053894  61.9690437  43.8558159
  25.6854649  66.5296936  13.3537874  25.9131966  67.3065720  13.8645029
  24.8010426  66.7051010  13.0324440   9.6842451  45.3085480  52.8601723
   9.7074232  44.3603401  52.7313461  10.4784508  45.5020828  53.3581810
  84.0747757  30.6129379   1.6983094  83.2046967  30.2730942   1.9073600
  83.9328384  31.5432205   1.5232091  10.7519302   1.6978509  58.6638222
  10.3640928   0.8859972  58.9904823  10.7261801   2.2937670  59.4124565
  37.6967468  11.2564354  44.9953537  37.4653702  10.3560352  45.2233391
  37.0522728  11.5092945  44.3343353  45.7634315  66.3704605  13.2819777
  45.8177261  66.3766022  14.2376175  46.2476273  65.5875549  13.0195961
  11.0950804  34.9058418  42.9307060  11.5227842  35.2582169  42.1502380
  10.2283611  35.3120766  42.9328957  26.0944176  17.7619781   1.8827204
  26.2088947  17.3739433   2.7502198  25.1774368  17.5950165   1.6647671
  77.5723801  48.2004128  58.2697182  77.8111725  47.9687614  59.1672401
  77.6338043  47.3770523  57.7854309  47.9192047  70.9903641  39.9827385
  47.3150597  71.7004318  40.1996269  47.6207657  70.2515564  40.5131454
  62.9603386  20.5101147  39.7922821  62.4256248  19.8519077  40.2362213
  63.3999023  20.0286369  39.0914307  70.1076126  24.6689339  53.8391075
  70.7081528  24.6177082  54.5827255  69.7335587  23.7903805  53.7723656
  10.0302372  63.5331993  17.6663494  10.8689480  63.7210922  18.0876465
  10.1297712  63.8674583  16.7749481  19.2074127  67.0791397  46.5572472
  18.9338436  67.4049149  45.6997757  19.9286137  67.6541977  46.8130035
   3.4873655  15.3325081  68.9900970   3.8751137  14.6594648  68.4307251
   2.8534677  15.7762499  68.4266281  53.1980553  47.8392258  17.1835785
  53.8107452  48.5746231  17.1898098  52.7852135  47.8641167  18.0468140
  22.8411198  38.7404137  61.3174400  22.5845623  39.4890327  61.8559418
  23.0273495  39.1167450  60.4572525  15.0535278  30.5557270  87.7889862
  14.4858732  30.4298820  87.0286102  15.3900375  29.6811123  87.9840240
  55.8168793  53.6629868  48.4433823  55.8796310  54.6068687  48.2971458
  56.4833031  53.2867165  47.8684616   1.9296172   6.4590745  33.8516846
   1.7652470   7.2614307  33.3562660   1.6209664   5.7566900  33.2793007
  85.6149750   0.1768626  80.3304062  86.1911926   0.7759379  79.8557281
  84.8849945   0.0214261  79.7310791  57.9784393  70.3922119  63.3669128
  58.7682304  69.8786774  63.5364571  57.6998177  70.6954193  64.2310104
  50.1685104   2.8618865  70.5524750  49.4382133   2.4709454  71.0321274
  50.9330177   2.3543854  70.8248672  85.6526871  33.5083427  32.2567291
  86.3847046  34.1244621  32.2287064  85.2122192  33.6972504  33.0853004
  31.1634674  69.8255920  12.3757143  31.9672775  70.0181046  11.8929510
  30.6121502  69.3598557  11.7469330  76.6740875  16.4264431  44.4348450
  77.4801178  16.6306152  43.9606438  76.1672974  15.8894835  43.8256912
  72.8640442  56.2721939   8.7802896  73.4429092  55.6466599   8.3445663
  72.5958252  55.8295898   9.5855179  70.8037338  35.9627609  55.6341019
  70.7087860  35.0758858  55.9814720  71.2688217  36.4404793  56.3209114
  56.6851654  11.6054945  60.3913040  56.5387878  11.8013630  61.3167458
  57.0121460  12.4256830  60.0217018  28.8183937  33.9939384  49.4861336
  28.8917828  33.1610794  49.9521713  29.7092438  34.1826591  49.1911736
  47.5457687  57.7625961  26.2791271  47.9336205  58.3287354  25.6118279
  48.1975708  57.7367859  26.9796410  11.4344234  67.1891785  14.2049885
  11.6090927  67.9500885  14.7588272  12.3018827  66.8660660  13.9613752
  74.4316559  52.9429970  51.2616310  75.1557922  53.5664864  51.2056999
  73.6456757  53.4891853  51.2732620  13.0583363  51.3253174  38.1191902
  13.3837709  51.8562012  37.3922195  12.2563887  50.9250145  37.7832298
  39.4768066  18.9846554  59.8431435  40.3232384  19.3609238  60.0844116
  38.8762589  19.2904453  60.5228996  78.3085785  64.0050049  27.3340225
  78.4752808  63.9623604  26.3924141  78.5303802  63.1314163  27.6563320
  79.0379944  53.1951218   9.2708788  78.6671295  52.3728676   9.5911722
  78.4503784  53.8707581   9.6091967  84.3521652  64.6012268  27.0445938
  84.7269440  63.7471428  26.8293762  83.4953613  64.3989868  27.4203892
   7.5111179  64.8902435  74.9360046   7.9215603  64.3929443  75.6434402
   7.8737035  64.5113678  74.1352386  67.9037857  29.3645287  53.3154221
  67.8698578  28.4164181  53.4425735  68.7647934  29.6199341  53.6465721
  17.9128513   0.4733371   0.2074225  17.1658516   0.3808833  -0.3839098
  17.9496956   1.4097925   0.4021673   4.1677356  24.8760529  75.3183441
   4.6076155  25.7253971  75.2815857   4.1041212  24.5995064  74.4041748
  11.6687269   4.0683451  77.2559891  11.8549061   3.6390374  76.4209671
  11.1748676   3.4176800  77.7549591  38.2686310   4.0950766  32.1600952
  37.5294495   3.7378039  32.6522293  38.7073975   4.6799474  32.7778664
  69.0630569  66.2346573  57.0894508  68.7727585  66.0529938  56.1956100
  68.6116943  65.5823059  57.6251183   6.3528619   6.2162485  39.0054665
   7.2738762   6.3182230  38.7655373   5.8978033   6.8902736  38.5006447
  14.1336842  30.0502434  81.9453430  13.6298294  30.7967091  81.6210709
  13.9362707  30.0164776  82.8813553  25.5400562  58.9647293  75.2575455
  26.3362312  58.8399696  75.7740402  25.4793777  59.9122505  75.1360779
  58.6111832  35.0442352  16.7111244  59.1577339  34.9673042  17.4931698
  59.1686249  34.7333298  15.9978037  57.2546883  69.2534637  49.8576393
  56.5596352  69.8089294  50.2106094  58.0061760  69.4193726  50.4268227
  72.5864105  45.9919052  50.2833481  71.8771973  46.6101303  50.4595528
  73.0540695  45.9203835  51.1154594  64.1329269  54.9057922  33.2869682
  64.7162247  55.5302696  32.8556671  63.3048172  54.9851761  32.8135071
  62.6126480  23.3215199  45.7742615  63.5440903  23.4493961  45.5945473
  62.3973846  22.4934654  45.3450546  71.9398041   7.6796765  86.0474472
  72.1812134   7.7752318  85.1261368  72.6228867   8.1512232  86.5241852
  54.0919609   4.4157987  14.2332993  54.7082558   5.0102363  14.6611519
  53.3044624   4.9431319  14.0991488  78.9184494  17.8812485  37.2284279
  78.7183380  17.0168552  37.5876083  78.9913254  18.4485359  37.9959602
  78.1272583  22.0316105  52.6689682  77.8464508  21.8965855  53.5740356
  78.6161652  22.8542595  52.6900787  85.4468460  58.0293236  46.2831955
  85.9594803  57.4727745  46.8694420  84.7480774  57.4593735  45.9620781
  12.1746597  12.9348574  53.6625481  12.1445646  12.0217199  53.3770523
  13.0765839  13.2084398  53.4954681  32.9727478  39.3827629  28.8280277
  32.5397797  39.7575645  29.5950298  32.2660027  38.9694061  28.3321609
  19.8776817  26.0072441  65.5401993  20.1092129  26.1850338  66.4518051
  19.3746567  25.1936245  65.5751495  62.0707016  52.7584000  55.8151474
  62.5528259  53.5732689  55.6745148  61.1606026  53.0342979  55.9239235
   5.3579240  10.3203640  37.6498413   6.1328697  10.8449163  37.4485054
   5.5576019   9.4530668  37.2974815  21.2403336   7.0499959  36.0714836
  21.8293591   6.3713641  36.4012451  21.7565117   7.8551164  36.1111412
  45.3883553  19.9638500  69.8948517  45.8814125  19.2093754  69.5725174
  44.6621895  20.0566235  69.2781601  16.9277325  59.2876320  80.7126160
  16.6028023  58.9582443  81.5505600  17.1112976  60.2131004  80.8739929
  47.9087677  46.9115143  10.1206141  48.1742477  47.8159904   9.9542732
  47.7147751  46.8873062  11.0576382  51.1624794  68.1525879  39.9074287
  51.7440796  68.1044922  40.6661491  51.2377281  67.2929993  39.4930878
  52.3693390  47.9825249  19.6823807  52.8355713  47.7344437  20.4806995
  51.5121880  47.5647507  19.7659702  54.9784393  67.7066879  18.4543152
  54.1701050  68.2039948  18.5788975  55.6653900  68.2750092  18.8026581
  26.1786613  18.6424789  15.8210287  26.1958942  17.7362022  15.5134630
  25.4042473  19.0217457  15.4054890  46.3842163  66.9439240  25.3527031
  46.2285080  66.6600876  26.2534962  45.6209373  67.4788589  25.1348095
  73.4423218  69.0686951  86.7760849  73.9600601  68.5527802  87.3941498
  72.5399246  68.9719620  87.0803223  26.4538631  27.9511757  18.9308872
  25.7515373  28.4635086  18.5302811  26.9382572  28.5831223  19.4621468
  81.8144302  42.5799217  24.0136967  81.6151962  41.6466904  23.9387646
  82.0515289  42.7011414  24.9331112  82.6153030  63.5703201  85.5311584
  82.1265717  64.1753616  84.9732208  82.9693375  64.1211853  86.2293243
  20.2585602  45.0126839  36.5066185  20.1963234  44.5561905  37.3456497
  19.6765480  44.5242424  35.9244537  11.7184229  60.9109497  71.8365936
  12.4905710  61.3666763  71.5014267  11.4103279  61.4601021  72.5575180
  38.6775055  39.3512383  89.1448441  38.1440887  40.1431580  89.0773163
  38.1997910  38.6965294  88.6355515  25.4068756  13.8950739   2.7617719
  25.1761322  13.8908691   1.8328093  26.3540039  14.0331326   2.7726834
  18.7678413  54.6455193  15.5992250  19.0662193  53.7750549  15.8628511
  17.8149929  54.5678253  15.5515022  64.8344345  64.9008331  15.3349352
  64.5853195  65.8207626  15.4237957  65.1364822  64.6491089  16.2076530
  27.6038265  15.0700321  56.2073822  26.8684139  15.5887175  56.5335197
  28.0506153  15.6495199  55.5902863  36.0863037  32.6943283  79.0343475
  36.6473351  33.3147202  79.4997406  35.3486938  33.2217712  78.7278061
  15.4505386  41.4080467  86.5080566  15.3263502  40.5864754  86.0328369
  16.4003601  41.5006065  86.5822449  61.9690247  39.7771339   8.0442696
  61.7920685  38.8799896   8.3271980  61.1069031  40.1369286   7.8356318
  21.5791206  56.8760300  41.4712677  21.4839859  57.4489403  42.2321587
  20.6812458  56.7012100  41.1893311  20.8266983  65.1304855   6.9143577
  21.2090321  64.2669754   6.7581363  21.5802650  65.7057190   7.0465474
   1.3696595  51.3310051  29.5107155   1.3537495  51.2948837  30.4671001
   0.5059580  51.0155754  29.2447186  34.0580177  65.6158295  81.9870605
  34.4344292  65.7032166  82.8627930  33.5793304  64.7873459  82.0136948
   8.3062391  23.9800987  44.0441437   7.7918053  24.5355549  43.4584351
   8.0290670  23.0884666  43.8334312  18.2450657  35.2542343  83.6143875
  18.2266197  34.6998711  84.3945007  17.3440914  35.5629387  83.5185776
  85.9659195  22.5800800  64.3870239  86.6871185  22.2534313  63.8490601
  85.2566605  22.7409458  63.7646828  59.1013489  45.6185112  51.9115524
  58.6041451  44.8505211  52.1929932  58.5309067  46.0543060  51.2783775
  30.0168209  68.9953384  42.1149254  30.2375889  69.7176819  42.7028999
  29.4308186  68.4391937  42.6282845  10.3502417  64.9891205  15.1739101
  10.9702663  65.6481247  14.8616409   9.9922180  64.5999908  14.3760166
  58.1390343  67.7903290  74.3999329  58.8249969  67.6969833  73.7388916
  57.5235901  67.0827789  74.2080078  68.6465454  56.9293480  17.7545376
  68.9771194  56.2753143  18.3703232  68.3351440  56.4187965  17.0071430
  80.5523987  61.0662956   4.2560964  80.8125381  60.3387108   3.6911387
  79.8292160  61.4851799   3.7894337  22.9860249  66.4381866  56.0984726
  23.7641106  66.9695816  55.9298592  22.2666187  67.0689850  56.1263809
  64.5828629  24.8533669   8.6506119  63.9003487  25.4795094   8.8921738
  65.0124588  25.2482281   7.8918200  70.9174194  32.0522957  59.0175476
  71.6298523  32.3761520  58.4663811  71.2286606  31.2059231  59.3385010
  67.0589142  57.4949112  62.0018158  66.3828964  57.3674850  62.6673927
  67.8300552  57.7758751  62.4943924  45.0892715  37.4582939  61.3215637
  46.0086250  37.6725616  61.4800301  45.0068932  36.5432205  61.5900497
  82.0549622  39.3174210  69.3075790  81.1816330  39.4856415  69.6614609
  82.0429993  39.7195892  68.4390411  25.4417076  62.9044342  70.7438965
  26.0733414  62.4119301  70.2197647  25.8589745  63.7541389  70.8857269
  38.5470123  55.7593956  73.2220612  37.9983177  55.0214615  72.9563217
  38.8662872  56.1291046  72.3988876  11.9040260  45.2741089  11.9407425
  12.4162254  45.8285866  11.3521528  12.1765327  45.5408745  12.8186979
  76.3375320  41.4771996  76.9555435  76.3752289  40.6311264  76.5094833
  77.0694580  41.4557610  77.5720291  61.7014351  69.8820343   9.4377089
  61.5763741  70.4307251  10.2120028  62.4738884  69.3543167   9.6403418
  45.1448746  68.1398315  87.2260666  44.9217606  67.9305801  88.1330795
  44.3883171  67.8450241  86.7191849  80.5785522  67.8943787  36.6022415
  81.2691040  68.0349808  37.2500038  79.9305878  67.3554611  37.0560570
  25.4890995  22.2444038  23.7828293  26.0629196  22.7720909  24.3382664
  25.5662785  22.6399155  22.9145870  57.2145958  21.3920345  61.9616013
  58.0888824  21.4914856  61.5848198  56.9892616  20.4749870  61.8051491
  47.6246223  16.3910713  39.5042648  47.4596252  16.8061047  40.3508797
  48.0868416  17.0580368  38.9965820   2.1402879  39.4875946   4.9265304
   1.7488343  39.7597237   5.7565565   1.3959320  39.3808327   4.3342738
  36.0093536   5.5577497  13.2511997  36.4092903   5.3244624  12.4134293
  35.0816002   5.3501649  13.1397667  63.9450607   5.8612733  87.5069962
  64.1793823   5.9663639  86.5848846  64.1139145   6.7192645  87.8963165
  31.2144699  70.6275024  19.5335140  30.4662437  70.6549225  18.9371624
  31.2979374  71.5253983  19.8545132  64.0661697  44.5038338  70.7199249
  64.7148666  43.8206062  70.8891296  63.6300583  44.2258415  69.9144745
  65.3554230  62.0346756   1.8835093  64.4665146  61.7456245   2.0897086
  65.7377472  61.3046722   1.3965256  12.4356031  19.2273254   8.0903273
  12.4895744  19.0402946   9.0275240  12.5883827  18.3819294   7.6681948
  15.4189444  24.7815094   9.1016073  14.9129763  24.7181053   8.2915411
  14.9699755  25.4551792   9.6123199   2.2516339  27.7796116   8.8899851
   1.6079818  27.1257877   9.1628551   1.7267765  28.5216026   8.5896416
   2.7087128  10.4696293  28.6283722   1.7810342  10.6828585  28.5274906
   2.7879472  10.1671915  29.5330734  18.8044758  58.5831070  35.9953346
  19.6969509  58.8581429  35.7853928  18.2744999  58.9166756  35.2713966
  50.6795311  18.9385338  81.6568756  50.5985527  17.9866829  81.7173233
  49.7767258  19.2565670  81.6626816  26.4783134  51.9112701  14.7280045
  25.7630997  52.0752487  15.3426685  26.7788963  52.7832832  14.4721355
  74.3977814   2.8852975  54.6724854  73.5274124   3.0727632  55.0239639
  74.7794189   3.7471187  54.5056038  54.2835808   6.9080205   2.4073243
  53.3597412   6.9625430   2.1628234  54.2940178   6.3423405   3.1794181
  67.6940002  64.9342804  59.1748848  68.4829941  65.0488586  59.7045937
  66.9962692  64.7865219  59.8132973  25.4095306   4.2862582  83.2849960
  24.9678574   4.7516971  82.5746994  26.3421001   4.4185052  83.1145401
  69.6079559  10.9361973  63.5782318  68.7779617  11.1063623  64.0236359
  69.4441833  10.1488409  63.0591164  82.2168732  64.1467667  56.1624680
  82.9823074  63.6118622  56.3727455  82.5660172  65.0309448  56.0504303
  52.2504654  59.9040718  45.1816902  51.6504364  60.2635231  44.5282402
  52.9243965  60.5761566  45.2834015   4.8384743  19.6079731  44.5235443
   5.0134249  19.5153675  45.4600525   3.9863520  20.0419025  44.4808350
  51.8142319  61.1294937  34.7199936  52.2814369  60.4371185  34.2524834
  51.4307480  61.6688309  34.0284081  55.4460564  55.2930565  10.4149036
  55.6494637  56.0771561  10.9248466  54.9252014  55.6144333   9.6789274
  63.3489723   3.4369111  80.7825928  64.2655487   3.2453351  80.5840454
  63.3867302   4.0928340  81.4787064  22.6829510   7.5832334  75.6859894
  22.3161030   8.2273569  75.0803833  21.9691181   6.9639850  75.8383255
   6.1090388  27.9711246  89.2668839   6.9522457  28.3729362  89.0576401
   5.7546387  27.7028217  88.4191513  37.9501534  55.7159157  23.1985741
  37.4726982  56.0113182  23.9738178  37.7998428  56.4024162  22.5486851
  68.4861374  34.3015709  10.6679659  68.5021362  34.9029465  11.4124956
  68.9822388  33.5389137  10.9653969  11.6711416  29.6262379  36.7674751
  11.5424786  29.1176739  37.5681229  10.8702297  30.1432114  36.6808014
  19.1349583  30.4908142  67.1469116  19.9793358  30.7749500  66.7968750
  19.3590279  29.8536453  67.8251724  61.3809776  54.1663246  13.7493782
  61.6077728  55.0756760  13.5547562  62.2003059  53.6851158  13.6337481
  34.5492210   8.7653685  79.3478622  34.5901871   7.9487991  79.8456192
  33.6357689   8.8305006  79.0693054  59.3731804  58.3204117  14.2209082
  59.6489067  58.2933693  15.1371384  60.1675568  58.5492630  13.7383862
   0.8709753  37.1268921  36.7406769  -0.0836240  37.0570107  36.7312584
   1.1688216  36.4153290  36.1739388  44.7483025  70.2193756  68.4593048
  44.1759720  69.8202972  69.1145935  44.4098701  71.1087036  68.3554688
  76.9841156  15.9906521  64.1260757  76.8711700  16.1093273  65.0691452
  76.1696091  16.3177948  63.7442513  52.0005150  11.7720118  74.9624710
  52.5596886  12.5269108  74.7789383  52.5173187  11.2305555  75.5591049
  68.3078232  48.6998672  15.7437563  67.5186996  48.1817093  15.9019823
  68.8876877  48.1115494  15.2601547  37.9163895  14.9195709  48.7648010
  37.4559593  14.4100227  48.0980186  38.8393326  14.6983919  48.6403389
  75.0321884  41.6779022  61.1107178  75.7766113  41.2649574  60.6730576
  75.4150391  42.1203346  61.8682899  81.5194778  49.8784561  25.6625843
  80.7453842  50.3623962  25.3747940  82.2093658  50.5398598  25.7157726
   9.0514812  43.9507408  80.2442474   9.8282290  44.4964218  80.3672333
   9.3049717  43.0929527  80.5850906  29.4190464  37.9394608   8.6839542
  28.8750267  38.1949005   9.4289541  29.0085354  38.3642769   7.9307985
   1.1825923  65.1893692  52.4449348   0.2353932  65.1329193  52.5708656
   1.3369153  64.7713470  51.5977783   2.3619273  23.9516926  18.7463074
   1.8248266  24.6993656  19.0084915   1.7806809  23.4172478  18.2052402
  85.1944656  60.9623299  24.7103329  85.0721588  60.0234795  24.8511581
  84.7114716  61.3766975  25.4253464   6.2830777  59.1718216  51.6719360
   6.1412783  60.0079613  51.2280960   6.2218423  58.5177155  50.9757843
  35.7878418  27.0756416  78.6399994  35.9755020  27.2267246  77.7136078
  35.7474976  27.9522667  79.0222702  51.7694435  54.9876900   3.6837666
  52.3466835  55.6220665   4.1087317  52.2723045  54.1732445   3.6770222
  82.3565292  19.8331642  72.9735641  82.7887192  19.1807804  72.4223480
  81.9052887  20.4079952  72.3553543  60.1516304  20.7590523  62.4013405
  60.5567398  21.6007671  62.6102257  60.5780716  20.4827480  61.5901451
   5.6641479  13.1165752  56.0176392   5.5372715  13.9701567  56.4318047
   6.5145874  12.8180313  56.3399086  53.8890991  60.8403473  56.9855957
  54.2567711  60.5951195  56.1365280  54.6460800  60.8887177  57.5694351
  74.4040833  13.4885302  81.6004791  73.5432434  13.9032822  81.6567688
  74.2421112  12.6610842  81.1473465  73.0364151  25.4309750  56.2572060
  73.8847809  25.0148506  56.1044083  72.4649048  24.7149391  56.5345230
  65.1645432   4.2776008  15.9246483  65.1262817   5.1251354  16.3678799
  64.2510757   3.9984088  15.8624220  48.5542641  28.0992947  82.0062714
  47.8978577  28.4777908  81.4213791  48.8839035  28.8435478  82.5099182
   2.7364924  34.7408600  69.3677521   2.8001709  35.1405487  70.2351761
   3.0137594  35.4309349  68.7651291  32.9366226  53.1005669  72.1910934
  32.2666931  52.4295425  72.3220673  33.7443924  52.6076431  72.0469894
  74.7745438  20.1615887   4.1415191  74.6110992  19.6201820   3.3692522
  75.5816345  19.8080082   4.5154495  56.7355881  60.7818680   6.9963961
  56.3095856  60.1794777   7.6062174  56.8011246  60.2884293   6.1788054
  67.5365982  67.7831497  21.9010544  67.7842484  66.8861237  22.1251888
  66.5891495  67.7444992  21.7703514   0.5406690  36.0936050  42.3548431
   0.8606704  36.1092262  43.2568359   0.5426920  37.0116997  42.0840530
  48.3160667  17.6267242   4.9009790  47.9310875  17.1748657   4.1500807
  49.0342522  17.0587063   5.1798973  41.9047318  26.6699390  33.6897087
  41.7156639  27.6048317  33.6093216  42.8402672  26.6309986  33.8884239
  86.2269592  32.9815559  21.1444569  86.7977982  33.0401802  20.3783379
  85.5025711  32.4236221  20.8612633  15.8431425  59.7179832  45.6111794
  15.7978687  60.2436218  44.8125038  15.9301062  58.8168793  45.3002510
  58.7768135  51.2231483  78.6435394  58.2259445  50.5378075  78.2652740
  59.6505814  50.8341827  78.6818695  39.0727081  28.9926319  17.1844196
  39.2145958  28.0608521  17.3514080  38.7734718  29.3434410  18.0232410
  52.6568565  42.0332146  15.2308578  52.7286453  42.5054588  14.4013615
  53.5178452  42.1311073  15.6374874  11.5115814  68.8356094  77.4688187
  10.6420841  68.6863556  77.0974274  11.5609732  68.2344742  78.2120743
  76.0026932  62.7639656  39.7737999  75.0804672  62.5076523  39.7680054
  76.3565292  62.3673172  40.5698547  24.5534039   9.5500441  11.2479191
  24.2991409  10.1348486  11.9617710  25.2798691  10.0001507  10.8167763
  10.9942608  17.0676823  13.7316914  10.4284964  17.8077717  13.9517107
  11.8514681  17.3088226  14.0828018  71.3059845  35.1378670  68.8342133
  72.2218552  35.3197746  68.6237106  70.8128281  35.7999878  68.3498383
   1.9231827  22.0413437  75.6406860   2.5135121  22.7758636  75.4726944
   1.1490406  22.2300854  75.1102982  15.6411562  68.0288544  29.4219971
  16.2031593  67.2649612  29.2921638  16.1712780  68.6300659  29.9452019
  68.4859619   7.5510044  33.1324501  68.6371460   8.4885292  33.2525406
  68.2300034   7.2366672  33.9995804   0.5970421   2.1505902  46.1735420
   0.9786341   2.5251262  46.9674835   1.3279225   1.7076308  45.7424622
  57.7296791   4.0283899   5.3574920  57.6797791   3.8971515   4.4106455
  58.4371834   3.4500787   5.6424942  68.5438843  32.2926712  35.8692551
  67.9702301  33.0513039  35.9770966  68.2015381  31.8412781  35.0977135
  79.6129227  59.9542084  76.5178375  79.5884705  60.6169205  75.8275909
  79.3329010  60.4191437  77.3062897   8.4441710  55.6262054  -0.1052889
   8.6540871  54.8459206  -0.6184396   8.5196905  55.3414040   0.8054347
  18.0431995  63.1826363  66.9194107  17.5804558  62.3824310  66.6708679
  18.8441639  62.8743134  67.3432312   4.2816849  52.2532272  11.9919815
   4.2059150  51.8838463  12.8717833   3.6748662  51.7362823  11.4621038
  13.2056198  60.5623512  81.0126266  13.4713764  61.3573112  81.4748459
  13.0463505  59.9233246  81.7072525  22.3753242  39.7793922   1.7972577
  21.4184513  39.8039513   1.8019042  22.6355801  40.6444206   1.4806734
  63.1347885  19.4118958   1.0764929  63.7299957  19.9363670   1.6121186
  62.8731537  19.9974079   0.3658919  66.7274857   5.4265804   9.8434439
  67.4223633   4.8834743  10.2154827  67.0999374   5.7684650   9.0306540
  57.3488350  69.4298325  24.4379196  56.9189034  69.5475616  25.2849922
  56.7026138  69.7280273  23.7978344  32.8732872  44.4737701   7.0652900
  33.1063309  43.5666428   7.2628899  33.1701164  44.9690552   7.8287139
  64.1360931  15.9643850  22.7038326  64.4693832  15.0789347  22.5584793
  63.7300377  15.9282913  23.5698853  64.5275574  11.0460224  70.5535583
  63.5717773  11.0161381  70.5108032  64.8086700  11.0359106  69.6386261
  39.3405647  49.7565231  84.7838058  39.9637871  50.3755836  84.4035568
  38.4878464  50.1773529  84.6742630  49.6902161  59.1586304  65.7935486
  49.1242638  58.4342880  65.5265961  49.3305855  59.9224052  65.3423920
  11.5247860  20.5203190  37.6548882  11.8963461  20.1335564  38.4477234
  12.2582617  20.9798717  37.2461624  61.3198357  34.0001183   4.8279371
  62.2114944  33.9090767   5.1639266  60.7630463  33.9251823   5.6029205
  14.5724754  27.9899502  84.1758118  14.9021292  27.7217903  85.0335159
  15.1745644  27.5860653  83.5508347  69.0603027  41.5100746  78.4535828
  68.4703217  41.9671249  77.8541946  68.8646088  41.8830795  79.3131180
  54.2060585  38.5755692  18.9366875  54.0843086  37.9251900  18.2450104
  55.1538124  38.6139374  19.0652428  73.9711227   6.1642232  74.6213837
  74.1902313   5.2609949  74.8502960  74.3045959   6.6842480  75.3525467
   7.2854056  70.5206223  36.7177887   6.3471251  70.4831924  36.9034271
   7.5038257  69.6411514  36.4094658  65.7415314  38.1845741  81.2863693
  65.1756439  37.9336548  80.5562668  66.5603485  38.4569168  80.8721390
  45.1951332  63.2357368  29.5524426  45.4962997  62.8345604  30.3676662
  45.5196075  62.6539688  28.8650589   2.1257946  69.2972794  32.4021835
   2.4375846  69.6441193  31.5662899   1.3047551  68.8549271  32.1866570
  31.8478985  49.9593163  87.6592331  32.1860924  50.1794281  88.5272217
  32.1945381  49.0849113  87.4817810  76.7451096  45.1007080   7.0791087
  76.2194519  45.4374352   7.8047347  77.4305496  45.7572250   6.9550481
  25.5168571  64.2982483  24.4344997  24.5699577  64.4277267  24.3811207
  25.6649551  63.4436951  24.0294952   7.5092902  33.7091484  59.4217987
   8.2249660  34.2557793  59.0973969   7.8010702  33.4210167  60.2867126
  81.3124390  43.2435608  75.9469299  81.3215714  42.4310226  76.4528275
  80.7462692  43.0536003  75.1988678  40.6616364  52.1744385  62.5666313
  39.7274666  52.3189049  62.7172585  40.9564667  51.6899681  63.3377304
  62.2869301  17.4760418   4.7313848  61.7792015  17.1153145   4.0045266
  62.1783066  16.8399429   5.4383588   4.5909038  40.4951591  56.6853409
   3.7773480  40.5456696  56.1835327   4.3804984  40.9046555  57.5245514
  61.1937561  10.1356030  48.3872528  61.8916092   9.8664370  47.7899437
  60.4192314   9.6659250  48.0778275  28.1953354  66.8466721  60.0306091
  28.5581818  67.7301407  59.9669342  27.3219032  66.9181442  59.6455879
  49.8355713  15.2725515   9.5964718  50.6505508  14.8049870   9.4136505
  49.2379189  14.5963802   9.9155941  33.9265938  68.1932297  11.3924847
  34.1238403  68.3076401  12.3221273  34.7829208  68.1881561  10.9648066
  77.6382904  16.8335762  26.7292328  77.2024536  17.6755981  26.5978012
  77.2213211  16.4671974  27.5090637   4.7278752  40.3212166  49.8967934
   3.8333526  40.3463287  50.2365417   5.1004186  41.1686745  50.1402245
   1.5670662   6.4484310  26.9335098   2.1109145   6.4452748  27.7211971
   2.1237226   6.0635591  26.2565765  69.7597504  25.9514637   4.5979495
  69.3032074  25.7120552   5.4044738  70.1580963  25.1348553   4.2967772
  13.7244797  66.4385300  87.9531403  13.0851727  65.8183136  87.6026459
  14.1500177  66.8070374  87.1789627  46.7145653   8.8676720  82.5914536
  46.8475075   9.0012970  81.6529922  47.5202942   8.4457512  82.8898087
  17.9399948  34.0254059  72.6794128  18.3092861  33.5431290  71.9396362
  18.6713638  34.1263161  73.2886276  41.1945457  42.9328117  10.2311563
  40.3812981  43.3274536  10.5459766  41.8846512  43.3925438  10.7093134
   9.4713736   9.1721783  26.8944893  10.3086996   9.2146425  26.4326305
   8.8374252   9.5330915  26.2747459  81.0689468  52.1006508  78.0726471
  81.5243378  52.8294029  78.4942703  80.3297653  51.9132462  78.6511993
  69.1660614   7.3015928   1.2325095  68.2434158   7.1584177   1.0216737
  69.5068054   6.4274745   1.4223632  31.7201042  12.6976309  53.7608948
  30.9614239  13.1613255  53.4064636  31.6282406  11.8027983  53.4336853
  17.5881157  13.3506975  49.2444801  16.9035892  13.9993181  49.4086304
  17.3088093  12.9048405  48.4448357  20.9178200  36.8854370  21.6361408
  21.2525387  37.5062714  20.9890232  20.8911915  37.3826332  22.4536495
  57.0339317  13.5217972  64.9658508  56.0982704  13.3220463  64.9364166
  57.3669395  13.0018806  65.6973038  74.5995483  53.5361862  85.0106277
  74.3205948  53.9145393  85.8444519  73.7977905  53.4861755  84.4901352
  10.0757217   8.9719877  58.3170357  10.2689848   8.9711666  59.2545242
  10.8597107   8.6027203  57.9105453  86.1137314  26.1603146  32.6137199
  86.2197800  25.9150314  31.6945763  85.2025604  26.4455395  32.6819038
  81.7209473   9.7760038  84.2525787  82.3742981  10.2705555  83.7578201
  82.1681824   9.5324202  85.0630646  72.9805222  50.7090302  24.4639168
  73.5290298  51.4933128  24.4476509  72.2358170  50.9489822  25.0153446
  60.8302383  35.8559380  48.8761024  60.7040901  36.7523537  49.1871529
  61.4041138  35.9449730  48.1152000  46.2839050  19.0443459  29.7902164
  45.4091835  18.9082355  29.4261189  46.8575706  18.5093002  29.2417049
  26.6830254   8.3665438  34.8852806  27.3265743   7.8845100  35.4046288
  27.1696930   9.1112328  34.5319748  42.2335854  68.9740143  39.5679169
  42.5475197  68.7701569  38.6869392  41.8347702  68.1596451  39.8744812
  63.6086159  61.9096069  45.2501373  64.0238495  61.6489220  46.0722427
  63.9669380  61.3063927  44.5990067  57.5148125  46.2870483  84.6951065
  58.0716629  45.5603943  84.9746094  57.2465858  46.7106400  85.5104904
  48.2292747  24.9772301  19.9619560  47.7161751  25.4392433  20.6249084
  47.6908607  25.0172348  19.1715488  62.5167007  36.8878937  46.8577156
  62.2757759  37.6536446  46.3363533  63.4104958  37.0680847  47.1490746
  66.2680893  21.4833374  38.2872162  66.7675400  22.0652218  37.7143364
  65.9367218  20.8000622  37.7044983  17.3218575  39.2658997   3.6278129
  17.5134048  40.2034950   3.6491005  16.4958649  39.2010078   3.1484835
  73.3973160   0.1455551  32.7076607  72.7685165   0.8264682  32.9468269
  72.9366074  -0.3896230  32.0614700  44.0990448   5.5946765   9.2716494
  44.2294655   6.0855823  10.0829659  44.4960442   4.7405233   9.4420786
  41.0768661  69.2362518  49.6371078  41.5830078  68.7128372  50.2584724
  40.9243889  68.6484451  48.8972015  83.4498062  48.5498047  29.8715210
  83.6273575  47.6252441  30.0444298  82.7213364  48.5417557  29.2506351
  82.5405579  45.3026466  30.1735115  83.3036194  44.7308426  30.0897961
  81.7980118  44.7025719  30.2425442  42.8309631  52.2232552  76.8767014
  43.5711060  51.9494057  76.3350143  42.6156464  51.4492302  77.3970413
  38.1055946  33.8735504  15.6030273  38.9617996  34.1475258  15.9317894
  37.4770126  34.3364487  16.1569595  85.9079895  67.4789505   0.1749346
  85.1853943  67.0365906   0.6203634  86.3215027  66.7934265  -0.3497438
  62.4673958   1.5514767  31.9703960  63.1209602   2.0053971  32.5024147
  62.7446594   0.6353678  31.9804916  14.8132515  58.2196922  78.7837067
  15.2546778  58.9789658  79.1643372  15.5250273  57.6415825  78.5091248
  42.6425552  65.3176956  16.5871105  42.2143974  65.3157959  15.7310095
  43.5728569  65.4257965  16.3894005  84.6233063  26.8034992  77.6711349
  84.8499680  27.7216930  77.5235825  85.4248199  26.4116840  78.0179596
  59.6787910  66.3669662  72.7854080  60.5338554  65.9482880  72.8844452
  59.7830276  66.9494553  72.0330353   1.5684705  56.0663185  27.6822739
   2.5188916  55.9798393  27.7561188   1.2641283  55.1856079  27.4632778
  14.6017523   8.2157116  13.7366915  15.3810329   7.7882743  14.0920095
  14.0795441   8.4402170  14.5068388  82.7844009  59.6764679  12.9975452
  82.0830994  59.1200104  13.3363056  82.4409332  60.5667992  13.0722055
   9.7253981  15.8148508  69.1163025   9.2669868  16.6087475  68.8409500
   9.0736866  15.3230581  69.6159439  27.9032345  71.2278900  88.4988403
  28.4341335  70.9993744  87.7358475  27.0011368  71.2000198  88.1799698
  21.4947872  37.9874916  27.7668056  22.3146400  38.4514847  27.9364567
  20.8498383  38.4317436  28.3171787  60.2522926  13.0064049  50.6439590
  60.8430634  12.2565613  50.5735550  60.7633171  13.6714544  51.1052551
  62.0207520  39.1672440  84.0306702  62.9713058  39.2076797  83.9255753
  61.8825188  39.2066078  84.9770203  45.5836754  60.3516197   5.2330947
  46.1982079  60.2267532   5.9562774  45.2555428  61.2433357   5.3488774
  59.1936760  59.2008514  41.8801651  59.8623314  58.5413742  42.0651627
  58.4107056  58.8801842  42.3277779  19.3804111  46.2521935  13.3542910
  20.2278862  45.8644028  13.1360264  18.9744911  45.6215401  13.9490499
   2.9689159  66.7293091  30.7214584   2.2279747  66.8807526  30.1346836
   2.9106452  67.4332657  31.3674335  34.8724747  13.9580030  69.1243896
  34.4832344  13.3119869  69.7137833  34.7885780  14.7893963  69.5912704
  41.3002434   5.0573969  23.4971752  40.4605370   4.6213884  23.6421719
  41.2102661   5.9027734  23.9370327  77.2071152  46.8079033  86.2414932
  77.3287354  47.3083878  85.4346771  77.0756607  47.4722595  86.9179459
   7.4449739  43.7665482  46.8486137   7.6536555  43.2626114  46.0620193
   8.2914095  44.0892105  47.1579170  66.9919357  17.4384346  49.3482933
  67.0167389  18.3920612  49.2694778  66.9665527  17.1239929  48.4445724
  71.7062149  19.8180561  53.5624771  72.1679001  19.7229328  52.7293968
  71.3066559  20.6866875  53.5170555  83.0458908  62.7165794  35.1504669
  82.6768265  63.4801941  34.7067146  83.1675949  63.0014763  36.0561447
  49.0796471  25.0814419  64.3450241  48.4338264  24.7721329  64.9802246
  49.8498306  24.5348911  64.5010223  68.4574738  24.6617126  39.6836205
  68.5200958  24.0979252  40.4546318  67.7519836  25.2743206  39.8915291
  68.7761078   0.5240889  61.9769058  68.7665405   0.3724281  61.0318451
  68.7208099  -0.3511389  62.3605080  71.6033630  13.9927807  34.2944221
  71.0234680  13.7998829  35.0311317  72.1164246  13.1931686  34.1777153
  79.9905472  25.6816711   1.4126168  80.8740997  26.0483665   1.4457455
  79.4206467  26.4063816   1.6699855  69.0511246  52.1103210  30.3067646
  68.6328812  52.2509193  31.1562023  68.8749542  51.1919937  30.1021290
  13.0727510  55.9845200   9.7844467  13.0502844  56.7860107   9.2616282
  12.1827631  55.8960037  10.1254997  47.7146034  22.0153370  83.4799957
  48.4191475  21.9419746  82.8362045  47.2582397  21.1752777  83.4324036
  24.5090427   6.9961247  18.6720982  23.7394199   7.2667680  18.1714344
  24.9461498   6.3550649  18.1115532  29.0001163  44.6416168   0.9457294
  29.2771969  45.5494881   0.8223091  29.7550182  44.2136078   1.3496631
  11.9952497  54.8102837  32.2531853  11.7981796  55.6376190  32.6924019
  12.9476357  54.7312317  32.3074417  50.1525078  27.1347771  17.0542297
  50.6247673  26.6553001  16.3735638  49.2299957  26.9419994  16.8867874
   6.2494345  12.8936081  35.8927727   5.9981370  12.3890600  35.1191368
   5.6551290  12.5911026  36.5794487  49.3744354  24.6070309  74.5537949
  50.0611610  24.9868488  75.1018677  49.4880486  23.6613293  74.6485214
  11.3005962  54.3054733  73.9644318  11.3119831  54.8509636  74.7509079
  12.1333351  54.4925652  73.5311050   3.4025719  69.6836395  49.1783485
   3.4072642  70.0523987  48.2950439   2.5995190  70.0216064  49.5747261
  85.5563431  21.8130150  83.3722382  85.3132935  22.0919018  84.2550583
  84.9808807  22.3153687  82.7954178  86.0660400  60.3499603  45.0720062
  85.5539169  60.6985054  45.8017159  86.0356064  59.4005432  45.1899529
  27.8881016  63.1589050  83.4644699  27.4508266  62.4719963  83.9676437
  28.7761288  63.1881828  83.8205338  77.1448593  42.8288612  72.3218994
  76.8136292  41.9499092  72.5061798  76.3755417  43.3186989  72.0313263
  60.3739738  50.1015053  87.3253098  60.7837105  49.2431946  87.4332581
  59.4512939  49.9542961  87.5332108   4.2135477  67.8371506  11.1918612
   3.8171878  68.7066650  11.2472115   4.3366814  67.5716019  12.1032085
  56.6548462  30.6768265  19.9692307  57.0819855  30.9336052  19.1520119
  55.8294601  31.1615620  19.9706669  52.7087212  63.3651352  44.0015488
  51.8776665  63.4315300  44.4718399  52.4800262  62.9538918  43.1679955
  10.3105001  46.6209602   5.6447039  10.5897427  46.0553703   4.9247289
   9.7268171  47.2595329   5.2351079  46.2455864   8.7954597   1.9271156
  45.5295944   9.1391602   1.3928349  46.7924576   9.5584593   2.1141856
  34.6820297  71.3711624  55.3635139  35.4946404  70.8705597  55.4362259
  34.0866203  70.9529648  55.9854660  82.9079437   0.3618057  41.6390266
  83.4566727  -0.2924122  42.0716057  83.1603851   1.1916450  42.0438385
  36.3157082  19.6181240  81.3881989  35.8861542  20.4364090  81.6374435
  36.5856133  19.7561893  80.4802780  33.9456635  51.4122734   4.7954106
  33.1853065  51.0278740   5.2316751  34.6450462  50.7715874   4.9243302
  84.8320618  19.7280941  15.8523998  84.5362167  20.1811142  15.0627890
  84.4033737  20.1937122  16.5704956  67.6769333  52.8877678   0.8870547
  67.0166092  52.1949730   0.8717560  68.4666519  52.4736710   0.5390583
   7.9441247  58.2364120  16.8334999   8.5562658  58.2807808  17.5680389
   8.4962387  58.0589104  16.0719929  29.3938160  11.9202223  11.8411493
  30.2882957  11.8808861  11.5026379  29.2618370  12.8420668  12.0625477
  57.9099655  44.2633057  87.6111908  57.0848961  44.5951576  87.2571106
  57.8634377  43.3163414  87.4795685  59.8203239   4.9573207  12.9191465
  60.5260849   5.4546447  13.3324289  60.1625557   4.7288628  12.0549030
  31.4257507   1.0827792  50.7956772  31.1494884   1.9141415  50.4099998
  30.8728790   0.9828073  51.5706406  73.3855515  13.1072311  24.4147034
  72.7995300  12.9289570  23.6791534  74.2370682  12.7771921  24.1279678
  77.0640564  37.0550156  34.1383476  77.8012009  37.4512405  34.6029549
  76.5256424  37.7979317  33.8655663  29.7221699  57.9235878  13.0887957
  30.2740898  57.1678162  12.8877335  29.9961014  58.5936050  12.4624786
  31.6967678  31.6592102   7.7141552  30.9320850  31.5297623   8.2751665
  31.4406452  31.2866917   6.8704362  65.1696548  38.3704720  33.2407875
  65.8091125  37.7729492  32.8531075  65.6988602  39.0217400  33.7012520
  16.9158344  34.3842659   7.0658898  17.7375050  34.8132019   6.8269176
  17.1117249  33.9315453   7.8861947  12.1743050  27.8456154  67.7258301
  11.9667921  27.2325706  68.4310532  12.3189783  27.2897568  66.9601135
  11.1829414  28.8211803  23.8691502  10.7246771  29.3416767  23.2093697
  10.9048309  29.1954842  24.7050838  68.4693756  69.1794662  55.4392281
  68.8424530  70.0585403  55.3738136  69.2248383  68.6084137  55.5785027
  60.5064697  52.2348061  83.3162079  61.3655701  51.8978958  83.0618973
  60.5918083  52.4282227  84.2497635  11.7051849  24.7319260  78.9466553
  12.1063232  25.6005268  78.9758835  11.1240425  24.7619419  78.1866531
  51.9608040  34.8781128  86.3790970  51.9748192  34.0520210  85.8957672
  52.2090263  34.6375961  87.2717209  83.1776657   9.2656126  11.7072906
  83.4068451  10.1511011  11.9894581  83.9696884   8.9373522  11.2816401
  45.8878937  36.9226799   1.8824959  45.8730507  37.2413597   2.7849677
  45.1256218  36.3472214   1.8191298  21.9680634  62.9850349  66.4808197
  21.2257271  62.7158318  67.0218353  22.6074028  63.3282280  67.1050797
  40.3856010  36.4774284  75.7100830  40.6398277  36.4398537  76.6321411
  40.9019127  35.7889214  75.2910309  72.7029266  65.8500824  68.5953827
  72.2711105  65.1418152  69.0730057  72.8001556  65.5137405  67.7045135
  57.2235603  63.5708733  81.0954895  58.0530281  63.2982635  81.4877930
  56.5944023  62.9083977  81.3810043  64.4498825  33.1975784  31.2468987
  64.2107697  33.7071381  30.4726868  63.9371414  33.5849419  31.9563236
  47.7667427  49.2520065  41.9806633  47.2626572  49.8104935  42.5724602
  47.4706192  48.3637085  42.1793251  17.0539284   0.9812796  19.0401001
  16.7650108   0.1014528  19.2823048  17.8125019   1.1468611  19.5999050
   4.3531036   8.3950109  79.8131638   4.7098560   7.9280581  79.0575790
   4.2697639   9.3014393  79.5170670  55.7464066   7.4600468  42.4352074
  55.2989540   7.4798212  41.5892601  55.2820358   6.7894998  42.9361649
  20.2124233   6.1007118  29.7900124  19.4262257   5.7882428  29.3422546
  20.5265827   6.8231287  29.2462749  84.3098602  44.7322845   1.3270819
  83.5831375  44.3003731   1.7760358  84.0674057  44.7088165   0.4013936
   5.7945042  54.8714371  31.4372063   5.2142205  55.2968674  32.0684814
   6.3675718  54.3214989  31.9714260  43.6715546  28.3026562  45.2299423
  42.7808571  28.0468807  44.9902191  44.2283669  27.6343365  44.8305168
  41.1322174  21.1232128  22.9335194  40.5998383  20.3340530  22.8333607
  40.8990898  21.4612541  23.7981644  23.4190254  15.3979435  37.2062874
  23.6623802  15.3486986  38.1307220  24.1406631  15.8724499  36.7935944
   4.1511445  62.3835678  36.5608406   3.2632406  62.2399712  36.2333717
   4.3985600  61.5478516  36.9565620  38.7400627  36.8511391  13.1557283
  39.5521774  36.3445511  13.1474524  38.3357468  36.6417847  13.9977093
  14.0523396  52.8918915  20.7915154  13.1129780  52.9490166  20.9663544
  14.1124802  52.7657967  19.8445644  58.3683929  27.5215435  37.6889000
  57.5812607  27.7823544  38.1670570  58.9982758  28.2204132  37.8651352
  60.1945496  41.0850906   3.9052846  60.5819321  40.5748215   3.1940949
  60.4668427  41.9857941   3.7297204  18.5549393  24.5795479  37.6221962
  17.8874073  24.8914585  38.2332153  18.0578499  24.2208710  36.8870201
  64.1535339  60.8754082  12.9397736  64.4656906  61.0125656  12.0453596
  63.5128174  61.5727005  13.0794153  83.5956802  29.7955875  24.2614727
  83.9220505  30.3818321  24.9441357  83.4292831  30.3686638  23.5130539
  14.7725363  33.1972084  66.5325470  15.1522007  32.3244629  66.6345444
  15.3996344  33.7823639  66.9574814  49.3530731  70.6124573  18.6811523
  49.4081726  71.2719727  17.9896030  49.1317482  69.8021240  18.2222404
  18.8199577  68.5613556  27.0876713  18.2160645  67.9222946  27.4660130
  18.4113445  68.8165436  26.2605381  83.8031387  70.9972916  68.1019211
  83.6230011  71.8660126  67.7426071  84.6959839  71.0589523  68.4414215
  76.9517975  10.0912561  88.6596909  77.1237411  10.7846632  89.2967529
  76.8693771   9.2966356  89.1869659  18.9752979  56.1641273  28.5375423
  18.0887527  56.5072823  28.4256649  19.0823898  56.0816422  29.4851494
  48.6971779  63.6351624  77.5059586  49.4420929  63.3125992  78.0131912
  48.7157364  63.1202393  76.6992722  64.8543701  17.9143677  70.7916870
  64.7018967  17.9785748  71.7344818  65.0856018  18.8042049  70.5253143
  70.2360611   9.8054485  70.9584274  71.1552353   9.6448612  70.7449799
  69.9899292   9.0731249  71.5235443  86.4044113  29.2248077  62.4760170
  86.8627701  28.7688408  63.1818733  87.0258865  29.2253342  61.7480011
  39.2424164  23.7000942  10.5059423  38.9929047  24.5355148  10.1109123
  40.0313873  23.8995953  11.0098820  82.7846680  13.0947151  62.1670456
  82.8478317  12.8282795  63.0842438  83.2573929  13.9260263  62.1260185
  48.9614029   7.3858857  83.6271820  49.4746284   8.1698503  83.4316559
  49.2072487   6.7621174  82.9440231  38.7355232  47.3134766  76.0286179
  38.6776237  46.3582687  76.0071106  39.2234573  47.5417213  75.2373810
  18.8568153  44.9975166   7.0383854  18.7982731  45.8547974   7.4601350
  18.8121567  44.3714905   7.7611065  30.8623219  31.0518818  77.9346848
  30.7218018  31.9978924  77.9740372  31.1238136  30.8114052  78.8235168
  86.4247513   2.3036656  24.6546326  86.7058487   1.4534425  24.9927692
  85.6118698   2.1176581  24.1846771  19.4230614   2.7760460  41.8262100
  19.0355148   3.6114902  42.0871162  19.2181530   2.6975455  40.8945007
  67.7307281   4.3614550  36.1759911  66.9627991   4.4274554  35.6083984
  67.4173431   3.8925142  36.9493713  48.9212265  27.6961441  79.0941467
  48.9667969  27.7506046  80.0487061  48.0942612  28.1224346  78.8691330
  37.2839584  68.0124207  36.3212013  37.9438210  67.6794968  36.9294586
  37.1290054  67.2875137  35.7156143  78.4671402  71.3266068   3.6052895
  77.8646927  71.0396805   2.9190180  78.1049652  70.9584351   4.4112158
  75.8693085  62.6777878  66.2284851  75.2303085  62.0444717  65.9016418
  76.4769821  62.1561127  66.7527237  41.4600296  66.2896042  11.6466560
  40.7191620  65.8325195  11.2486324  42.0581436  66.4561157  10.9181204
  85.8479996  19.1557560  31.8346348  86.6163330  18.6895199  31.5052052
  86.1861725  20.0057945  32.1162453  53.4426689  31.6466084  79.2909622
  54.3824692  31.7371960  79.1334839  53.0340424  32.2043724  78.6290283
  46.9076042  64.7889404  71.3663864  46.5147552  65.3080063  72.0681458
  47.8470688  64.8123398  71.5483017  24.1727562  61.6858902  34.4186440
  23.5709362  62.0775452  35.0516167  25.0011463  61.6085091  34.8919449
  77.4063797  20.2356739  70.0852280  78.0252304  19.5246296  69.9188614
  76.6354599  20.0088215  69.5651779  71.1004028  14.4030886  38.5839043
  70.5946121  15.0320778  39.0984688  71.2990112  13.6960659  39.1978264
   4.3824439  40.0618439  31.1559296   5.1035995  40.6059265  31.4723778
   4.8105917  39.3467941  30.6851635  21.0465469  11.2638884  15.6396694
  20.6651936  10.7812243  16.3730431  20.2943439  11.6451817  15.1868591
  41.8246002  54.9995995   6.4362340  41.8245850  54.0434380   6.3917360
  42.6953506  55.2240944   6.7642956  10.6228333  16.6479549  23.4968128
  10.9550772  16.8018456  22.6124134  10.7709904  15.7146654  23.6493034
  76.1872940   5.7764263  85.3914490  76.8669205   5.1332927  85.1896667
  76.5507736   6.6103988  85.0937881  14.9989882  53.6091080   9.7099133
  14.5811863  54.4464111   9.5084248  15.7873459  53.5980644   9.1671419
  39.9106636  48.5499382  12.1947794  40.0442657  48.6720886  11.2548523
  38.9749451  48.7033730  12.3256292   9.5272503  32.4369049  67.6500168
   8.6113901  32.6681061  67.4951630   9.6642160  31.6423435  67.1341248
   8.8877172  29.0623379  57.6590919   8.1553879  28.5833645  57.2711372
   9.6655226  28.5830822  57.3734970  67.0517426  53.5191307  60.7629814
  66.9407196  52.5849648  60.5862389  66.5088959  53.6831703  61.5341110
  16.9984245  51.3377647  10.8307810  17.3627453  52.2155304  10.7166309
  17.4758530  50.9754791  11.5771360  54.5332565   5.1050234  51.9011230
  54.3841248   6.0016894  52.2010956  55.4098549   4.8887897  52.2190094
  78.8086624  68.8451767   5.5025845  79.0982819  68.0530701   5.0499015
  77.9908905  68.5911560   5.9303226  73.4035950  16.3916950  40.5595856
  72.7898483  17.0439453  40.2217789  74.2682800  16.7506790  40.3603859
  75.3226166  65.0133667  24.8408375  75.1524658  64.0714264  24.8457775
  74.6654510  65.3785782  25.4332790  72.9117508  69.6099701  56.0045586
  73.4007568  68.9600983  55.4998169  72.0650787  69.1958847  56.1716423
  10.3972130  66.2988586  19.5858345   9.9043684  66.9888687  20.0299282
   9.8456964  65.5206985  19.6666069  85.2393188  67.6020355  46.0113754
  84.4522552  67.9459686  45.5889091  85.8732452  68.3170166  45.9550819
   2.6183834  12.9605398  56.0955391   2.5978582  12.6857882  55.1788483
   3.5370376  13.1719561  56.2616997  59.8292122  63.0038261  78.9007645
  59.5656700  63.0133209  79.8209229  60.1422157  62.1118202  78.7504654
  82.1101913  70.3920670  39.2213593  82.2780075  69.5277176  38.8459015
  82.7178574  70.4552078  39.9582329   5.7714882  16.2919903  26.2309971
   5.2326946  16.6440697  25.5224972   6.5799899  16.0130901  25.8011456
  37.6339264  58.8012428  41.2891502  36.9939766  58.2173271  41.6962624
  38.4249840  58.2687836  41.2057877  28.7498398  67.7085571  36.0143814
  28.6106567  67.3000641  35.1599884  29.4099255  67.1595840  36.4376488
  55.3829460   8.4710865  56.5664482  54.9922600   7.6260819  56.3438187
  54.6533318   8.9909039  56.9036179  59.7035561  36.1029625  86.4141846
  60.0797920  35.2384758  86.2488556  58.7875328  35.9282150  86.6300507
  57.3117905   6.5494461  32.9464531  57.8129768   7.3186164  32.6754875
  57.3944740   6.5334063  33.8999405  86.7378922  33.2465744  42.1698074
  86.0443954  33.6373825  42.7013702  86.9704742  33.9290237  41.5402031
  21.9334679  24.2539387  72.4320526  21.2815590  24.9529934  72.3813629
  21.4824677  23.4807949  72.0928192  35.4921188  39.2588692  14.2156906
  34.7813606  39.0742035  13.6017256  35.3110275  40.1437492  14.5325880
  16.2444706  64.0233078   3.9773364  16.0654984  64.8838501   3.5983021
  17.1724586  64.0524521   4.2101889   1.2828537   7.8493495  14.6685619
   1.4946089   7.7767458  15.5992184   0.7584838   7.0708809  14.4807997
  54.7048721  67.6844711  72.9459381  55.4252052  67.0583420  72.8730774
  55.1349297  68.5336304  73.0469894  63.8227959  27.8220692  58.8918343
  64.4793625  28.2479191  59.4430237  63.2527771  27.3635483  59.5091438
  83.5202789  20.5562725  18.1516171  83.8201447  21.4652367  18.1614056
  82.5651627  20.6190777  18.1579037  26.5921574  63.8072815   8.5944862
  26.6329899  63.2208595   9.3499184  25.6821251  63.7578850   8.3018494
  61.9174271  32.6179276  48.6514435  61.5612297  33.3738861  48.1846619
  62.7411270  32.4260025  48.2032089  14.4633656  61.3898239  60.4004974
  15.1116142  61.5606003  61.0837555  14.7595282  60.5791397  59.9865990
  25.8198509   4.6182919  52.6848640  26.4705963   4.1974850  52.1230049
  26.0836506   5.5380917  52.7095490  41.7654037  48.2618828  22.0341663
  41.7174187  49.1340256  21.6426392  40.8664894  47.9346466  22.0009689
  71.9606323  42.6087494  27.4855652  72.2017059  41.9849167  26.8007679
  71.9393463  43.4561348  27.0409107  75.6446762  49.0182533  68.4765701
  76.5398102  49.3558388  68.4450150  75.5398026  48.7010765  69.3735886
  10.5793772  49.8518410  82.3334656  11.0751867  50.3102531  81.6550369
  11.2474566  49.4983215  82.9207764  21.2529144  45.1549835  73.4679947
  20.5341530  45.1417656  74.1000061  21.9673519  45.5967293  73.9269791
  28.8705177   5.2359958  65.3264389  29.7617035   5.3832040  65.0096588
  28.6406841   6.0467815  65.7803497  34.7194786  57.9007568  25.2698307
  34.1386299  57.8895836  26.0305691  34.7536011  56.9887695  24.9811230
  86.0597305  47.7165718  19.0342426  86.2442398  47.3656616  18.1630077
  86.6544647  48.4612732  19.1233940  55.1930809  34.1291885  27.6070385
  55.9938698  33.7965736  27.2016544  54.5033798  33.5474586  27.2874565
  28.8706169   4.2648964  17.2099934  27.9387989   4.0545692  17.2708893
  29.1084061   4.0409369  16.3102551  63.6139565  53.1458969  26.7200394
  64.3477173  52.5498047  26.8700314  62.8418007  52.5802078  26.7208195
  51.2942657  37.7812576   1.3153392  51.4054680  38.2473831   2.1439483
  50.3465538  37.6884575   1.2180490  76.5240555  33.3720665  76.8421097
  76.6037521  33.9551468  77.5970230  77.3333054  32.8608780  76.8478088
  64.8282318  24.2134972  60.9372444  64.0672379  24.7502346  60.7158127
  64.6879883  23.9643974  61.8507614  33.5380363  10.7017641  64.7460327
  33.3139954  11.6099138  64.5428085  33.7096481  10.3009615  63.8938942
  34.5348129  55.4232178  21.7847195  34.4162407  56.3726387  21.7569294
  34.8940620  55.2014618  20.9256516  60.8777084  49.3810234  42.9040489
  60.0974731  48.8910789  43.1637077  61.4870071  48.7125854  42.5907097
  17.6295147  55.2402420  46.2344894  17.1796341  55.6885185  46.9506493
  18.5163879  55.6001778  46.2461815  55.4060898  20.8176231  88.6000900
  54.7411346  20.5311260  89.2261734  56.1528816  21.0705795  89.1428146
  46.2182655  60.0864792  72.6179123  46.8861771  59.4483337  72.8687057
  46.1584206  60.6779404  73.3681259   5.3869667  18.3337479  21.7404060
   4.7856092  18.7123661  21.0991192   6.2442832  18.6866913  21.5023518
  13.3562174  69.2875519  18.6377411  13.8729067  68.9093933  17.9262238
  12.8110008  69.9493484  18.2122974   4.9443107  67.0540695  86.6206512
   5.4540815  66.4406891  86.0913773   4.1704750  66.5565720  86.8850479
  27.1246262   5.8149886  57.8030815  27.3061333   4.8960752  58.0002747
  27.6336536   6.3037977  58.4497566  79.5775223  38.0796967  26.2281017
  79.8191757  37.2150345  26.5600605  78.7366638  38.2695770  26.6441860
   2.8246717   8.3280811  84.3549271   3.4582770   8.6164017  83.6979294
   3.0187604   8.8619537  85.1253433  33.7321892  38.6924782   4.2593436
  33.4400673  38.3701324   5.1119804  33.0329018  39.2800560   3.9730165
  15.9262981  40.1998444  11.1739864  15.1291399  40.7286873  11.1408634
  16.4828453  40.6452637  11.8128052   6.6954136   9.7221737   0.2990998
   7.5444298   9.2887335   0.2123042   6.6937890  10.0692949   1.1911403
  59.6751595  58.1468315   3.2220178  59.3566551  57.5229416   2.5696766
  60.1100311  57.6043701   3.8799365  64.3334427  30.5305176  86.2705765
  63.6457939  29.8982353  86.4793625  64.1065521  31.3082199  86.7804108
  78.1967239  20.9659138  19.1203938  78.3417587  21.1523037  20.0480003
  79.0333557  20.6174183  18.8124542  58.8482056  14.8793821  11.5776119
  59.1962814  15.3175049  12.3542223  59.5672112  14.9040728  10.9462194
  84.6643829  15.7573519  80.5631256  83.8890076  15.4785309  80.0760040
  84.3239822  16.3396320  81.2423248  45.9374847  48.8282509  24.1069489
  46.0608444  48.3338356  23.2966614  46.7229042  49.3706818  24.1784878
   6.6901155  54.7206917   2.7933645   5.8653417  54.5778847   3.2576768
   6.6643171  54.1019592   2.0634747  86.0001602  18.1130943  39.7996750
  85.9293976  18.1937008  40.7508469  86.0701294  17.1712894  39.6436653
  51.1256676  64.6308136  41.4076309  51.3641548  63.8187485  41.8547401
  51.8931465  64.8469162  40.8779984  66.0535736  41.7551613  86.8889389
  66.5641174  42.5482521  87.0520096  66.1642456  41.5872765  85.9530945
  21.9408360  41.4662666  30.9176750  21.5162525  42.2734108  30.6270294
  21.6990051  41.3872986  31.8404484   8.7056990  52.1975403  79.5075836
   9.5127039  51.8447685  79.8824539   8.0191355  51.9225464  80.1152420
   9.2864351  53.2706985  40.4792099   8.9526987  54.1372948  40.7112885
  10.2192574  53.4092865  40.3152924  75.6379929  27.4543877  72.2265930
  74.6874237  27.5398865  72.1535416  75.8862152  26.9003563  71.4865417
  70.2901001  17.8717155  68.7874985  70.5852661  17.0118122  69.0869522
  70.2060776  18.3885345  69.5887909  68.1636658  49.1611748  30.1123009
  68.6585770  49.1234741  30.9307613  67.2736740  48.9093742  30.3587532
  43.3810387  10.4407549   9.5306873  42.9778671   9.8697701   8.8767271
  43.7501411  11.1633043   9.0228338  69.1360092  20.4498100  63.0411987
  69.0496216  20.8901501  63.8866997  68.3277664  19.9451199  62.9503021
  47.7038727  57.7661552  58.4738083  48.2477036  56.9788857  58.4476662
  48.0577087  58.3247681  57.7817192  22.7840347  56.5844383  15.8388338
  22.1959038  56.0341606  16.3560658  23.6297817  56.1383171  15.8826361
  19.3940754  50.7574844   5.4196849  19.8198128  50.2479401   6.1091375
  20.0149899  51.4586143   5.2219200  58.9821968  65.7078857   2.3531795
  59.5636635  65.2234802   1.7671056  58.1039963  65.4030151   2.1250420
  21.7244053  13.7526741  20.4461842  21.1083412  14.4499006  20.6710682
  21.4015503  13.4069920  19.6140175  26.0386982  71.1015320  45.8613319
  26.3798275  70.9538956  46.7434120  25.8701763  70.2234268  45.5196266
   1.4450998  13.2941446  22.6078072   1.2930281  13.2143955  23.5494785
   1.0952669  14.1557274  22.3808174  54.8804131  23.4758015  74.4063492
  55.7653923  23.6892490  74.7021255  54.3154182  24.0841484  74.8827133
  68.0807953  24.9794407  15.2491512  67.5689240  24.2777901  14.8467817
  68.7219620  24.5250416  15.7956495  20.6868000  16.0864773  51.3921967
  20.4703922  15.1541004  51.3835983  19.9618473  16.5049114  50.9278793
  23.7765045  49.8690796   9.7817993  23.8185902  49.8436394  10.7377357
  22.8410339  49.9155388   9.5843916  46.9275970  45.5748558  15.7162037
  46.8697319  45.2222824  14.8281851  46.0489998  45.4585075  16.0778179
  84.8684769  51.2237434  77.2667084  85.3892441  50.8260727  77.9644928
  84.1203613  50.6359634  77.1614990  15.8100758  61.4091873  31.0064106
  16.1924667  61.3969536  31.8838272  16.2447224  62.1394234  30.5658779
  62.2827873  66.7445755  30.8644276  62.1179390  65.8067703  30.7665253
  62.8168335  66.9745407  30.1040707  64.9368515  17.7874165  28.6999817
  64.3773651  17.9377289  27.9380074  65.7037048  17.3350124  28.3485432
  53.9748421  49.0920296  82.8137741  54.1805191  48.1574059  82.8339081
  53.6416626  49.2449570  81.9295578   2.0507810  56.0164413  34.8668022
   1.9542999  56.4912834  35.6922989   2.1125414  55.0968666  35.1252556
  59.3507271   6.6840739  55.6708946  58.5125847   7.1363211  55.7669258
  59.4750481   6.6084223  54.7248230  42.8872757  46.5698662  36.6405563
  43.7938271  46.4307213  36.9144745  42.9553299  46.8903999  35.7411880
  72.6164474  64.1035919  72.1641083  73.3915863  64.5209885  71.7883759
  72.6511383  63.2020569  71.8443375   3.8318694  54.0145264   0.7829708
   3.9290931  54.9667435   0.7908041   4.7289124  53.6819229   0.8132924
  50.3599434  41.2329941  13.7553482  51.0461845  41.1036110  13.1007013
  50.7838745  41.7363014  14.4504709  16.0950394  16.0191574  22.5470238
  16.1497135  16.9724674  22.4803677  16.0447140  15.8473005  23.4873238
  78.8755417  32.9818611  18.6793461  79.1768417  33.0343628  17.7723236
  78.6400909  33.8815460  18.9059734  71.0524063   9.6931667  24.4944191
  70.1674652   9.3832302  24.3019447  71.2926941  10.2200975  23.7322903
   9.1983509  65.4337769  52.3544159   8.4545345  64.9891281  52.7609406
   9.6004219  65.9291611  53.0679741  72.8999634  64.5468674  66.1130981
  72.1991882  64.2737122  65.5210342  73.7034454  64.2483139  65.6870499
  11.3406849   5.9413877   2.1244469  11.4419012   6.8929758   2.1460662
  10.5440063   5.7737651   2.6278722  22.4568787  17.0952873  46.6393433
  23.1859283  17.6896324  46.8167381  22.6571712  16.3112583  47.1506271
  56.3251190   6.3518071   5.5081754  56.6479416   5.4531031   5.4422374
  57.0264473   6.8861699   5.1355796  52.4910469  71.4540405  75.1974716
  52.2517128  70.7635880  75.8157120  51.9862900  71.2549744  74.4089127
  57.5540886  67.7917404  70.9870987  56.7015228  67.8734894  70.5596924
  57.3544655  67.4388428  71.8541946  52.7103767  29.0759201   0.4150210
  52.6520920  28.8260689  -0.5071554  51.8892860  28.7682095   0.7988933
  39.4343147  23.1743050  41.6894951  39.7746162  23.9564896  41.2551956
  38.8531342  23.5123463  42.3708115  39.2264061   6.7972507  54.7214317
  38.7512169   6.1764569  54.1691284  38.8096771   7.6410594  54.5466309
  73.8078384   1.7973324  87.4702759  73.7130814   1.2084018  86.7216721
  73.2751999   1.3980258  88.1580887  60.6501465  14.5744810  17.9181271
  60.7191048  13.7948370  18.4691563  60.5102081  14.2321711  17.0352497
  30.0175591  39.3652611  26.1586590  29.7145176  39.8474922  25.3893394
  29.7669582  39.9158287  26.9004860  67.8195114  55.5588531  72.9545746
  67.7751312  54.8405876  73.5857239  68.0844498  55.1414452  72.1349335
  38.5192604  61.8807755  33.1885910  38.5654755  60.9727745  32.8892059
  38.0446053  62.3379898  32.4944077  48.2959404  48.6617355  35.6848106
  48.0343895  49.4145966  35.1546974  47.6286507  48.6070747  36.3688965
  79.5952301  25.4482765  65.2094421  80.1841278  24.7124023  65.3765335
  79.8802872  26.1268997  65.8213577   6.2089882  39.8977089  88.9838715
   5.5446963  40.5633774  89.1622925   5.7081232  39.1152534  88.7533798
  15.1157579  52.0955734  61.1930466  15.0363216  51.7645988  60.2984085
  14.4032507  52.7290649  61.2782097  13.6374407  14.6329765  18.2955265
  13.8755550  15.5484686  18.1492195  12.6857290  14.6463070  18.3970146
   6.5150986  53.3645020  16.8875809   6.4455009  52.4098396  16.8846931
   6.5399780  53.6000328  17.8150177  56.7606888  28.0640335   9.7182112
  56.5195961  27.6622620   8.8835344  56.1728668  28.8149033   9.8012371
  56.8771515   8.5805922  66.2334976  57.7476387   8.8316717  65.9245605
  56.4085312   8.3175459  65.4413910  15.4657259   7.1938319  60.5258789
  15.2486782   7.9340076  59.9590797  14.6802931   7.0600033  61.0563660
  19.1343060  11.2810507   3.0157659  19.5013733  12.1436176   3.2093422
  18.3273907  11.4664478   2.5354066  22.1045952  18.8586445  75.9065094
  21.8560162  18.0752773  75.4158249  23.0582180  18.8078423  75.9717407
  38.1704903  63.2830811  29.8140163  38.3174133  63.3148842  28.8686943
  37.6965561  62.4635353  29.9553051  33.7852859  41.6108856   8.0608196
  32.8682976  41.3751831   7.9200912  34.0800743  41.0219688   8.7554474
   8.9163198  70.7303238  85.5888443   8.2169056  71.3439865  85.8134918
   9.5772476  70.8611069  86.2687759  49.9946480   6.5244675  24.3026714
  50.2993698   6.4269772  25.2048206  49.2583122   7.1330709  24.3630257
  37.0697899  51.7221832  78.7027512  37.8266258  52.3029938  78.7807770
  36.9318810  51.3880844  79.5890808  83.8092880  66.3166122   1.4406316
  83.3218155  67.1388550   1.4908036  83.1346359  65.6430664   1.3546026
  21.4588242  43.8080330  20.8984566  22.3994617  43.8223114  21.0751686
  21.1220627  43.1024361  21.4506855   8.1532221  38.3357124  86.0155106
   8.7395716  38.6836586  86.6873474   7.2770038  38.5832863  86.3107758
   2.2484431  30.2373638   2.4480250   1.3074163  30.0621872   2.4516940
   2.5192342  30.1104946   3.3573148  55.0990257  10.6185703  39.3309555
  55.2622643   9.6775656  39.2669678  55.3166771  10.9589663  38.4632072
   1.6398629  42.6864014  10.2826481   2.2276065  42.1733284  10.8372154
   2.1746650  43.4212685   9.9823284  71.7161255  41.2449837  59.4322929
  71.2808990  40.3998032  59.5439987  72.4109039  41.0744133  58.7963562
  64.0341187  36.7737312  53.5424423  64.9671631  36.9765549  53.4752197
  63.9636230  36.2270279  54.3249893  13.6238117  37.0853310  43.9958725
  14.1435518  36.3178940  44.2349167  13.4927225  37.0011139  43.0514412
  83.2315979  44.9612770  55.1741409  83.8787918  45.4976006  54.7161751
  83.4965668  44.0594749  54.9930878  58.9579277  31.9645386  52.0211868
  58.8865967  31.4076405  52.7964363  58.1630478  31.7809982  51.5204773
   1.7359812  45.0037994  56.6386108   1.6354252  44.1453400  56.2273140
   2.5459747  45.3537521  56.2675629   2.0543704  59.8719292  52.0280495
   2.2233047  59.6983452  51.1020050   2.7621067  59.4216537  52.4891319
  24.9800816  26.6699677  77.1839142  25.2085171  25.9580688  77.7816162
  24.8889771  26.2462292  76.3304672  43.2337875  51.0496712  25.8889637
  43.8182335  51.4933815  25.2743282  43.1750374  50.1531143  25.5588665
  60.2246132  46.6947441  78.4888306  60.7410622  47.4907036  78.6151505
  59.3163414  46.9804344  78.5871124  21.5616932  69.9312668  65.6143417
  21.9037056  69.9099960  66.5081024  20.6233807  70.0878143  65.7206192
  68.7224884  10.5431051  43.6658592  69.0497131   9.6673641  43.8713646
  69.0884552  10.7392569  42.8034096  13.8339415   8.7753124  45.4246979
  13.1452780   8.5687561  46.0566063  14.4918146   9.2489872  45.9336853
  21.9710960  57.9688034  37.6240692  22.5645447  57.3054962  37.9763069
  22.4195099  58.7995682  37.7821541  60.4135094  52.3925514  86.0653305
  60.4160042  51.5377808  86.4961472  60.1799774  53.0096092  86.7588272
  47.5703316   4.4209800  10.8103914  47.1338844   5.1330247  10.3426971
  46.9238548   3.7153375  10.8295584  85.7532959  46.7907562  31.3069801
  85.5219116  46.1809616  30.6063786  86.1421509  47.5391960  30.8543568
  45.5024490  61.4763832  87.8411560  45.7459831  60.7442589  87.2746582
  45.1439514  61.0626945  88.6263733  15.0016251  51.7851410   5.8987031
  15.3158236  52.5403709   6.3958349  15.6546011  51.1039963   6.0596189
  72.0201645  42.6294098  79.2230911  71.2966156  42.2246246  78.7447052
  72.6557770  42.8602600  78.5456390  22.7846622  70.9424362  13.0640144
  23.1687679  70.2221603  13.5639076  22.4819317  70.5357971  12.2520866
  65.8445969  28.0417004  23.5600033  65.7718887  28.9040794  23.9689617
  65.2142410  28.0641422  22.8400173  17.8085346  17.6084232  84.1665878
  17.2905579  16.8538227  83.8863907  17.7210693  17.6183605  85.1197281
  28.4721928  38.2497864   4.4679480  27.6017914  38.6128387   4.3041553
  28.3302231  37.5795135   5.1363873  23.7673969  59.1558037  87.6019592
  24.0696144  59.6574593  86.8448334  24.5501232  59.0403481  88.1407013
  33.9735031   4.8352313  18.3170033  34.3661041   4.2561245  18.9702492
  33.0538559   4.5716724  18.2851086  69.4182510  26.2701302  37.3184738
  68.9233551  25.7247562  37.9299278  70.0901489  26.6862488  37.8584976
  53.1934929  68.0967712  22.8157501  52.5137711  68.5685272  22.3344460
  52.9805450  68.2441330  23.7372551  35.3707924  10.0181913  72.6218643
  35.7713127   9.3330584  73.1570358  34.4663887   9.7291975  72.5003510
  61.0899200  14.3479223  53.5082893  60.2427025  14.6194410  53.1551170
  61.6005898  14.0961399  52.7388382  76.9714813  20.3087769   2.1034541
  77.8476944  20.0436668   2.3830979  76.4126282  19.5653954   2.3299458
  73.0971832  23.3178806  49.1871262  73.6185608  22.5203686  49.2786369
  72.4763794  23.1190701  48.4861946  78.4798889  18.0666866  41.4352188
  78.5081787  18.7827702  42.0697708  79.1835709  18.2659607  40.8176804
  64.3657684  28.3742065  13.9372854  64.9212723  28.9009933  14.5118618
  64.9620056  28.0424900  13.2659492  30.3388004  36.0066719   4.1523466
  29.6955547  36.5736313   4.5778146  31.1223583  36.0826683   4.6968584
   6.6377225  21.6655064  62.2626038   6.3862414  22.4843254  61.8353729
   7.3739352  21.3410416  61.7440033   7.0972738  64.6049576  60.4561577
   7.8497381  64.0468826  60.6525841   6.5459948  64.0710983  59.8840446
  50.5713348  24.4984951  72.0010376  50.2785683  24.5056229  72.9123383
  49.9113998  23.9793129  71.5415115  15.3192616  60.8400917  74.6494522
  15.1927881  60.3500862  73.8369675  14.9453287  60.2785645  75.3284912
  67.8237457  53.4828224  67.5950470  67.2917404  52.7313461  67.8567429
  67.8911743  53.4086609  66.6431122  14.3592319   8.1277428  85.8112869
  15.2968721   8.3197441  85.7972260  14.2734661   7.3159285  85.3114471
  80.8037491  56.7404366  46.7911301  81.6105423  57.0203247  46.3587227
  80.5834961  55.9085732  46.3719330  44.8163528  61.2846642  19.0593185
  45.0336151  60.5059967  18.5467663  44.2820969  60.9545326  19.7816849
  33.4439735  57.8316727  66.1548615  33.5654259  58.2298012  67.0168152
  32.7044563  57.2347145  66.2688141  75.9038925  17.6874447  40.8642464
  76.8199005  17.8546162  41.0860863  75.4164963  18.3651257  41.3326683
  11.8681812  26.4620647   5.5502229  12.4960995  26.6353168   4.8488426
  12.0617962  27.1240425   6.2139473  29.6814289  30.8944569  12.8690767
  30.4641705  30.8391628  13.4172487  29.9291763  30.4594688  12.0532103
  67.6726379  44.2143288  22.3262978  66.7714081  44.0749893  22.0354195
  67.9206314  45.0556831  21.9430809  71.2403183  38.2010002  53.7159500
  71.2266083  37.3995667  54.2391586  71.3025513  37.8952370  52.8110390
  66.2173843  25.3035564  35.2343292  66.7072067  25.2786083  34.4123344
  66.2917786  26.2108917  35.5300331  69.0121613  49.6484604  46.3525238
  68.3581543  49.8928299  47.0073471  68.5052567  49.4847755  45.5572319
  48.9138260   5.2809987  15.8572140  49.0926704   4.3838325  15.5755415
  48.4928894   5.1844325  16.7114487  54.1003380  52.2588081  34.9939270
  54.4154167  51.6839066  35.6913834  54.7150230  52.1203041  34.2733650
  28.8509045  34.4483795  84.1442947  28.6614857  33.8839645  84.8938141
  29.1726952  35.2620277  84.5324402  51.1742249  46.1971512  13.8955164
  51.7759285  46.4186897  13.1848078  51.0351868  47.0235939  14.3580008
  65.2370224   5.3056622   4.2561150  65.6278152   5.9181223   3.6328945
  64.2966843   5.3569875   4.0847716  24.3688641  58.1986046  22.8273392
  24.1405144  57.2719040  22.9002323  24.3127728  58.5303078  23.7234745
   7.4605479  28.8069172  12.5125542   8.3389130  28.8226967  12.1324778
   7.5426884  29.3043270  13.3262300  49.0558510   7.4885340  64.5887527
  49.3454399   8.3624859  64.8506241  48.1038818   7.5125890  64.6857300
  42.4185867  16.8511791  60.3545914  41.5622292  17.0257339  59.9641914
  42.9043198  17.6682148  60.2416763   8.6791410  71.1971741  58.6440926
   9.2866268  70.8220215  58.0065575   7.8380780  70.7862778  58.4440651
  12.3866301  27.4207516  30.1700649  11.6962976  28.0553741  30.3622265
  12.0284939  26.8840027  29.4630489  44.6474266  51.3698273  85.5779190
  45.1754990  51.7393036  86.2856369  44.0244064  52.0622406  85.3573685
  41.6596565   6.9945292  36.5505104  42.4398079   7.3590956  36.1325493
  40.9331779   7.4960461  36.1804619  39.6979408  28.7802982  35.4789543
  39.0824547  29.5132504  35.4927559  39.8967628  28.6519318  34.5514717
  46.5860329  37.9801903  27.4051533  47.5087929  38.2168121  27.3115578
  46.1221542  38.8174477  27.3979626   8.9740686  37.2602386   2.9720931
   9.5737476  38.0047073   2.9233043   8.8497839  37.1138535   3.9098337
  85.0498581  18.4113045  46.1243401  84.8353348  19.2304688  46.5706367
  85.8808899  18.5890484  45.6838570  61.9932060  43.4493332  85.9918976
  61.8550148  44.2352486  86.5205536  62.1008186  42.7459145  86.6320953
  25.7296200  64.6950531  83.1380997  26.3687935  63.9952812  83.2722855
  26.2595310  65.4790115  82.9937592  52.9758682  70.4333420  38.7917557
  52.3913040  70.0740967  38.1243286  52.3885155  70.7709427  39.4679718
   7.2052288  16.3743248  76.0419235   6.2591925  16.2542992  75.9592056
   7.4093199  17.0903587  75.4403687  20.2049770  71.2541046  51.8250351
  19.9361229  72.0237198  52.3266716  19.4014130  70.7450562  51.7183266
  45.2474403  12.8299236  48.2242889  46.1841240  12.7794323  48.4148331
  44.8269615  12.4174871  48.9788246  53.8591423  45.1606560  75.8724365
  53.0777512  45.7125168  75.9057007  54.1059647  45.1504593  74.9476624
  13.5268393  63.8492813  45.3381767  14.3275108  63.3399887  45.4637985
  13.1179762  63.8700714  46.2034111  56.3663940  36.7887383   1.6092092
  55.4708519  36.7198143   1.2783307  56.8653069  37.1499596   0.8765156
   0.7725438  57.4471207  12.4391069   0.0684804  58.0186119  12.1326323
   0.3326623  56.7991867  12.9894848  55.5095825  58.4729500  69.4708252
  54.8331108  59.1379280  69.3426819  55.0379257  57.6409187  69.4321213
  27.6567459  21.7999783   3.7916811  26.7380123  21.8421593   4.0569777
  27.9467926  20.9312992   4.0700717  28.7206020  17.0086594  28.4491215
  27.9096184  16.5371170  28.2588978  28.4886246  17.9323902  28.3535118
  83.6910858  54.1226044  80.8926086  83.7524414  54.3942909  79.9768295
  83.5563583  53.1757584  80.8530273  78.5053101  47.1056786   7.0270839
  79.3765106  47.3604126   6.7231884  78.1413269  47.9048653   7.4079399
  21.1071358  13.1715450  44.5705528  21.1836948  12.7653170  43.7072182
  20.3632030  13.7683668  44.4893112  78.8124771   5.4528108  59.5295982
  79.4569016   6.1597204  59.4946518  77.9743271   5.8843699  59.3637924
  13.3118944  23.9841309  75.9614029  12.5369711  24.5312290  75.8333054
  13.9572620  24.5713501  76.3549881   0.5720813  24.1837254   2.6520708
   1.4680810  23.8532734   2.7170224   0.0437827  23.4080448   2.4637847
  71.3257217  13.3050232  22.5809402  71.4982758  14.1504412  22.1665421
  71.4629211  12.6639652  21.8834801  84.9251709  51.4208145  54.6582451
  84.9667053  50.7924690  55.3791389  84.1908569  51.9929237  54.8811874
  13.3478918  28.8964138  59.5117302  12.9671659  28.1437359  59.0592308
  12.6073885  29.3074131  59.9577866  67.3924713  16.9286346   6.0454612
  66.8246765  16.8874016   6.8149719  68.2801895  16.9418221   6.4032478
  70.3792877  11.7456999  19.9368229  69.4383011  11.8796415  20.0501289
  70.4993668  10.8004541  20.0280552  38.3278618  16.6895485   7.1780572
  37.6961784  16.2894020   7.7756281  38.6698952  17.4424496   7.6601210
  24.8336411  62.1747856  87.1649170  23.9449558  62.4647255  86.9589920
  24.9526672  62.4035873  88.0867157  84.9383774  20.1687717   6.5276318
  85.5972519  20.7506905   6.9064345  84.4624252  19.8223610   7.2824159
  82.8816605   1.2223607  76.8116989  83.6173096   1.5817311  77.3075867
  83.1820526   1.2235830  75.9028549   5.9375329  50.5343513  75.0659180
   6.3566928  51.3901100  75.1565552   5.8308301  50.2234955  75.9649277
  72.6384506  24.7815208   6.0002909  72.3116074  25.6260777   5.6902423
  71.8494186  24.2657509   6.1665649  85.4395065  24.5396099  35.9692383
  85.3789139  25.4948883  35.9673538  86.0124588  24.3374195  36.7088852
  33.0525818  11.9027023  41.8719444  32.3503075  12.3863201  42.3068657
  33.6636009  12.5789671  41.5794487  62.5859909  18.3223686  87.5192642
  63.1065826  18.2015572  88.3133850  61.6819267  18.3687935  87.8302994
  77.7563705  11.6643343  52.7261124  76.9619598  11.6563044  52.1921921
  77.5563736  11.0855284  53.4617882  45.0256004  40.9781761  69.1554947
  45.2734413  41.4658966  69.9409485  45.7701607  40.4006195  68.9872971
  82.5332489  21.4906044  33.3845558  82.6772003  21.3617420  32.4470558
  83.1697617  22.1602764  33.6347885  67.5734634  53.2789612  17.0814323
  68.2906952  52.6597481  16.9458237  66.7803345  52.7528000  16.9797935
  26.8320255   7.3205514  31.9521465  27.0029182   8.1337147  32.4273262
  27.3248863   6.6547618  32.4317780  15.2761898  27.8606415  26.4691925
  14.7777462  27.0460587  26.4040833  14.9062719  28.4228458  25.7885170
  67.7200241  46.1580048  68.7544861  67.8372421  45.6372337  67.9599457
  67.6380920  45.5109291  69.4550629  77.4019547  40.5879822  60.0695267
  77.3729019  40.2441521  59.1766815  78.2390289  40.2805824  60.4174423
  70.4411621  13.4019499  14.6607418  69.6993790  13.2503214  14.0750809
  70.2920151  12.8065672  15.3952522  36.4217682  67.3178558  10.5170355
  35.9052200  66.5120316  10.5098448  36.9945374  67.2284088  11.2787209
  15.5255728  54.7050629  28.2087841  15.9734392  55.4692268  27.8458767
  15.7744713  53.9843521  27.6301136  70.1832581  68.8550873  67.8093185
  70.0175323  68.4478836  68.6595840  69.8129272  69.7341919  67.8885269
  35.5795364  56.1403160   0.7395912  35.5536652  55.6516609   1.5622576
  35.0526123  55.6184883   0.1343811  78.3742981  67.1998138  27.4123058
  79.2976532  67.3327789  27.1979084  78.2983398  66.2589188  27.5709724
  27.9193478   4.0384521  43.5622063  28.6382885   4.5183372  43.1510315
  27.2857246   3.9058328  42.8571053  77.5956345  28.2083626  38.8303146
  76.6490250  28.2140789  38.9721832  77.7258301  27.5941525  38.1077995
  18.7916946  35.4778671  79.4465790  19.6662216  35.8639488  79.4953079
  18.3073006  36.0556984  78.8569107  76.6252670  70.5128632   9.7001991
  75.8964920  70.0435104  10.1062012  76.4690552  71.4318771   9.9175358
  84.5726929  32.0160332  39.6211548  85.5123444  31.8601398  39.7159843
  84.4892273  32.4751740  38.7854156  67.3231583  48.7515182  44.0395164
  67.8028183  48.8154755  43.2136421  66.4332886  48.5109482  43.7816582
  16.4127827  61.1835938  66.3073044  16.8585377  60.3390198  66.3723221
  15.5158100  60.9623566  66.0568542  61.8867340  16.2207470  27.8651752
  61.5212708  16.9489079  28.3676186  62.0043869  15.5213671  28.5080261
  15.1809540  45.9372520  79.5353088  15.3120050  45.1582565  80.0758896
  15.8162251  45.8456459  78.8251877  58.1196861  29.3661919  86.1390076
  58.1568909  29.0432281  85.2387085  57.1882133  29.5147076  86.3018875
   8.4962072  20.9825916  38.0654068   9.4446287  20.8703480  38.0011444
   8.1651468  20.1088219  38.2731514  25.9669037   7.2296972  75.1666336
  26.3208694   8.0718584  74.8807907  25.0388451   7.4016118  75.3259506
  19.8025379  65.4364700  48.7749710  19.8020649  65.8837204  47.9286880
  20.6291866  64.9541397  48.7905006  51.4961624   9.4713984  34.2527237
  51.1170311   9.2019577  35.0893211  52.1303177  10.1498652  34.4845848
  52.4496498  28.7056274  86.9178238  52.7998009  28.7597694  86.0286102
  51.5729828  28.3373508  86.8080139  85.0124207  63.4131203  32.6221619
  85.8839569  63.5143394  32.2395325  85.1188583  63.6815376  33.5347748
  25.1288223  58.0941734  68.2375793  24.6365795  57.6306610  67.5600204
  24.4927254  58.6934052  68.6281281  41.8718414  63.8204498  72.5538788
  41.9001846  64.6940384  72.1636658  42.5133209  63.3144493  72.0551910
   6.1862965  12.8562460  82.5145493   6.1266084  12.0741920  81.9658585
   5.9441814  12.5537748  83.3898315  68.5267410  40.8029900  71.1900864
  69.2396393  40.3071442  70.7874069  67.8426514  40.1526375  71.3491287
  12.8438044  64.1371841  18.5633068  13.6103439  64.4283524  18.0694771
  13.1447077  64.0972824  19.4711037  78.4888382  50.8733330  52.9320221
  77.8594589  50.1920509  53.1685867  78.2893677  51.5993576  53.5230637
  74.4799271  51.3566437  42.8033714  74.3088074  50.5719566  43.3241577
  75.0981750  51.8634109  43.3298531   8.6226797  39.7292595  22.1270428
   9.2285500  39.3427620  21.4947662   9.1246605  40.4308548  22.5417843
  50.1330872  69.5407791  34.8742638  49.7789078  69.2758408  35.7231407
  50.4589424  68.7285004  34.4866333  57.2531052  12.3211412  76.4267731
  57.6053696  12.2352076  75.5409088  57.2945747  13.2595234  76.6110306
  11.3213358  54.4573593  47.4243660  12.0739145  54.1583176  46.9140396
  11.6017599  55.2930641  47.7974434  17.5656490  65.2759094  74.3178329
  17.4356651  64.6066666  73.6459427  16.7718353  65.8095245  74.2811127
   3.4806986  56.8931656  19.8205853   3.2574887  57.8173332  19.7095852
   3.4529095  56.5319672  18.9345856   5.9016280   5.0468268  78.7051468
   5.9463129   5.3613672  79.6080856   6.8160539   4.9687185  78.4331970
  16.0882511  48.1712494  68.7746658  16.9589157  48.1007462  69.1660843
  15.9802971  47.3574104  68.2824860  39.9335442   8.4778919  34.9860001
  39.8179398   9.4093523  34.7982521  40.5501060   8.1740141  34.3198586
  73.9504776  59.6880608  62.3057671  73.7951660  58.8316956  61.9073410
  73.5882645  60.3134651  61.6781540  70.5232544  23.3463726  85.7564697
  70.4020920  23.7917080  84.9178848  70.0641098  23.8984814  86.3893967
   5.3391876   2.3547153  71.4727402   6.1499748   2.8460968  71.6046524
   4.8758812   2.4286366  72.3070755  32.9039955  57.7298851  33.7907257
  33.4213181  57.2564240  34.4422188  32.1164360  58.0019073  34.2618790
  82.0314636  54.0075760   6.0405226  81.8852005  54.5849037   5.2911687
  82.8264847  53.5231400   5.8180618   3.2187037   9.6334133   6.9519844
   3.4780424  10.3311720   6.3502297   3.8599968   8.9384756   6.8035417
  23.4711590  51.6631546  45.6718712  22.9102135  50.9757538  45.3126335
  22.9712524  52.4698448  45.5470543  61.8435707  16.7764587  58.6057320
  62.3008919  16.2284050  57.9679794  61.0424500  17.0477734  58.1575928
  27.3583527  56.9425468  35.1849937  26.5312958  57.3718605  35.4038506
  28.0122433  57.3978043  35.7154655  62.0792656  58.5707550  76.7990189
  61.9739151  59.1917496  76.0782547  62.5368690  59.0669365  77.4777145
  41.3519440  63.8043098  31.8244247  40.6966362  63.6304512  31.1487179
  41.3293228  63.0288849  32.3851700  75.0664139   4.3819623  20.0861835
  74.8964539   5.3236370  20.1105862  75.8123398   4.2579217  20.6730671
  68.1407471  42.8942184  41.8897057  67.7515640  42.1318817  41.4612045
  68.8342667  43.1761742  41.2932396  59.7151375  39.2766342  12.7852430
  59.2709656  38.9158669  13.5525713  59.5104904  38.6631432  12.0795650
  59.0585938  30.6974468  54.6429214  58.6975975  30.9265976  55.4993095
  59.1441193  29.7443619  54.6662903  82.1128235  63.8962250   9.0794411
  81.8567734  64.7516174   8.7345219  82.1475983  63.3282509   8.3097458
   1.8743185  25.8766842  76.5180283   2.6936519  25.5948811  76.1111984
   2.1196568  26.1115971  77.4129333  43.6391220  17.4177628  25.0044518
  43.2481194  17.9448051  25.7012844  44.5827751  17.5035820  25.1400394
  61.7471886   9.7212391  44.9399490  62.2603683  10.4456415  44.5820122
  62.3826866   9.1935225  45.4235687  15.8963089  19.8696556  69.7061386
  16.2807674  19.2468739  69.0892410  16.2980213  19.6524696  70.5473785
   6.4246082  58.1453667  12.3326540   6.2915521  58.5658035  11.4830904
   7.3034348  57.7698402  12.2790279  76.4591522  34.8964882  79.1555481
  75.7892685  35.5625343  79.3100433  76.3985748  34.3154602  79.9138107
  10.7920446  26.8281937  61.4320946  10.5761890  27.7124252  61.7283592
  11.5733929  26.5921307  61.9320984  50.8207092  68.4667053  48.9293213
  51.7196846  68.1703186  48.7870903  50.9052010  69.3976669  49.1352654
  42.7209167   3.3470092  69.2725754  41.9001122   3.1585119  68.8176270
  42.7102013   4.2952271  69.4029617  63.0863228  69.8255463  63.0902252
  62.5088997  69.8939743  62.3298759  63.4530716  70.7037888  63.1922760
  66.8633041   8.8159151  83.4872665  66.2474136   9.5445747  83.5645599
  67.6210480   9.0867701  84.0056229   7.4130874  22.6254101  30.5636463
   6.9387541  22.6423225  29.7324104   6.7349300  22.7431622  31.2288303
  27.0041237  57.2737198   5.1056376  26.1744576  57.3945312   4.6438046
  27.5771008  56.8551216   4.4632163  57.4279442  18.4968929  61.0527039
  57.0977669  18.1647816  61.8875160  57.8504982  17.7411823  60.6445618
  33.5485077  36.5933952  81.7781982  33.5516014  36.7726173  82.7184677
  34.1716766  37.2212982  81.4126434  35.6526031  14.3675022   1.3202184
  35.4524651  14.7306662   0.4574970  36.5655670  14.0871019   1.2561313
  32.9727707  68.2376328  44.9660721  33.6526871  68.8291702  44.6435356
  32.6873322  68.6284409  45.7919197  51.3490524  24.9957409   3.5136814
  52.2968292  25.1230907   3.4721022  51.0070190  25.8384514   3.8121517
  43.3070335  27.5804729  87.4877777  43.2271118  26.7502689  87.0180893
  43.7577858  28.1604519  86.8740311  26.2012997  16.3267784  22.1577530
  26.3655338  17.1457348  22.6252670  25.2504749  16.2983456  22.0511913
  13.8629961  60.3563080  66.1009827  13.2780552  61.0545197  66.3952255
  13.5562506  59.5762138  66.5631409  54.7068024   7.2608862  72.1527939
  54.7529755   8.1983776  72.3404312  53.7727356   7.0849962  72.0396118
  32.8829422  62.5086861  15.5765848  33.5201416  62.9932976  15.0518360
  32.1870842  63.1417923  15.7531891   1.9815643  25.6247215  33.5748520
   2.1005371  24.9302883  34.2228012   1.0460500  25.6063309  33.3730927
  73.4299393   2.7222188  18.2496262  74.1468430   3.3553107  18.2879562
  73.2736130   2.5937552  17.3140564  78.3764572  15.1756678  24.6180382
  77.8862610  15.7410431  25.2149353  77.8212585  15.1089830  23.8411598
  61.2516937  39.7371979  53.7051353  60.8341446  40.5611725  53.9560356
  62.1632462  39.8373451  53.9794998  36.6792030  13.2545948  21.4913635
  35.7703552  13.3091087  21.7867546  36.9773865  14.1637793  21.4648972
  26.2751427   6.2368174  45.8928795  26.9992943   6.2211561  45.2671051
  26.0383282   7.1616769  45.9620514   4.6534319  53.3122139   4.8651948
   3.8779039  53.4074745   4.3122811   5.0477657  52.4864273   4.5844603
  40.1800919  19.9953537  14.6797647  39.9975777  19.5374908  15.5003014
  41.0344887  19.6627407  14.4048052  23.0254173   4.7515697  66.2620392
  22.9044037   3.8049943  66.3367538  23.7771988   4.8515625  65.6780396
  24.4739685   2.8203623  21.2025108  25.0168362   2.0655432  20.9749699
  24.5986881   2.9296036  22.1452427  11.8729286  45.9712791  70.4886780
  12.5366774  45.6347771  71.0907059  11.9072790  45.3779411  69.7383423
  60.0331230  33.1428757  15.2083635  60.6577072  32.7784386  14.5812168
  59.1916122  32.7621498  14.9570932  61.3205566  66.7958374  17.6912231
  61.0412674  65.9895935  17.2574081  61.0832176  67.4920120  17.0786533
  40.6255264  57.7367630  84.1378326  41.3563156  57.1210823  84.1936493
  39.8537560  57.2124557  84.3516159  42.9019814   1.5953257  66.2048111
  43.5666389   1.7277303  66.8807755  42.5343704   2.4665809  66.0564499
  29.3766937  59.6949043  87.9785233  29.9103127  60.0658112  87.2757339
  28.5186977  59.5532532  87.5785141  25.6265278  14.5492315  47.5327110
  26.4202442  15.0818720  47.4823303  25.2221565  14.7999506  48.3632889
  28.0982647  20.5582294  15.7045622  27.5623417  21.1293697  16.2548523
  27.6916962  19.6956234  15.7872820  71.7887573  20.4787827  23.6587029
  71.8396072  21.4293175  23.5580387  72.0544510  20.3192883  24.5643501
  44.3376579  12.5930729   7.9910417  44.7270546  13.4108171   8.3007135
  44.8316231  12.3770075   7.2001276  79.4213486  41.6588860  35.0458183
  79.0706482  42.0662193  35.8378525  79.2842484  42.3121033  34.3597145
  42.7556572  68.2368774  44.9552193  43.6631546  67.9358292  44.9099159
  42.3043327  67.7406769  44.2723389   2.9887767  14.4046249  62.4521217
   3.0688727  13.4812927  62.2128029   2.5703471  14.3935051  63.3129501
  21.3757648  19.6787739  11.9800358  21.6557789  18.8164444  12.2869749
  20.5415249  19.5169334  11.5394869  29.1374989   2.1139624  19.7014351
  29.0283070   3.0643687  19.7336311  30.0210247   1.9859438  19.3561420
  14.0525990  63.5084953  22.7747993  14.1931458  64.0180817  21.9767990
  13.2137003  63.8208427  23.1138000  18.3857327  61.7282181  22.5995312
  17.8317528  61.6184807  21.8266830  17.9642200  61.1955643  23.2739506
  71.5934143  51.2204628  35.7742500  70.8453979  51.4252472  35.2132111
  72.2364883  50.8294830  35.1827888  47.9613647  45.2463989  86.1921005
  48.5808525  45.7670212  86.7033920  47.2776604  45.0056343  86.8172607
  13.3488913  48.3004875  19.9557362  13.1479492  47.7919273  19.1701031
  13.5386410  49.1801720  19.6295795  12.1491394  17.0724010  69.3582764
  11.4289417  16.4588966  69.2128143  12.8998184  16.5157681  69.5653305
  65.4057541  27.3712444   6.9581041  66.1474915  26.9684277   6.5066667
  64.9002533  27.7901974   6.2615552  34.2198067  56.2967987  16.7771931
  33.9933014  57.0216827  16.1945496  33.5746727  56.3459396  17.4826145
  37.1603241   9.7019196  20.5006676  37.6290054   9.7858391  19.6702900
  36.2351646   9.7456102  20.2589970  12.5972357  52.5311203  42.5026627
  12.2497873  53.2545166  43.0244026  12.8672810  52.9377518  41.6792831
  29.8938637  36.1708755  77.2074509  29.1546078  36.5814476  76.7589340
  29.4915352  35.6332741  77.8896103  84.2278976  11.5143404  12.9309931
  84.7190399  11.9322395  13.6383619  84.3145065  12.1158066  12.1914206
  40.7639809  63.1834641  21.5116997  40.2334175  62.9194946  22.2634010
  40.7359314  62.4298019  20.9222584  15.2005205  54.5263596  35.1782494
  16.1501942  54.4382668  35.0970612  15.0788345  55.2064285  35.8407669
  74.6464844  48.3606186  10.8926620  74.7939148  49.0363159  11.5544214
  75.3415527  47.7204018  11.0450678  74.6052246  66.9866104   9.2430201
  74.4406357  67.6957092   9.8645754  74.7663193  66.2193298   9.7921677
  81.8611145  50.0020256  35.8809280  80.9838715  50.3714638  35.9819031
  81.7101440  49.0807953  35.6693344  34.1976395  11.0572052  31.9308109
  34.8371811  10.4062290  31.6419353  33.4078369  10.8562508  31.4287529
  52.7261162  45.2877388   7.2451239  52.0746689  45.9673729   7.0720654
  53.4742203  45.5283241   6.6985989  76.5302658  10.8328857  38.1217041
  77.0313873  10.7982521  38.9365044  75.9894104  11.6180887  38.2063484
  34.1339493  32.0361557  81.6610184  34.8493118  32.4269142  81.1592255
  34.2515144  32.3742371  82.5487747  67.0665359  54.8638573  50.3217468
  66.1373291  54.6599998  50.2156906  67.4308319  54.7867279  49.4399452
  26.5362453  68.9011459  17.1616230  27.1554203  68.6933212  16.4618626
  26.9869556  68.6415100  17.9651661  86.5035400   2.6015930  41.5581207
  86.2404022   2.7615809  42.4644279  87.4073639   2.9134660  41.5125198
  49.6390724  48.2154617  83.5962830  49.3038177  47.3375511  83.7782593
  49.0243416  48.8025703  84.0363312  63.8576431  23.0817547  23.8307457
  63.6421471  23.2071781  22.9065895  63.8069687  23.9592705  24.2097301
  69.1687851  17.0945072  30.3108521  69.9599915  16.6092567  30.0768681
  69.3347244  17.9857159  30.0035381  75.9328232  60.1393013  86.0104980
  76.7387619  60.5951500  86.2531891  75.4210205  60.1108627  86.8188782
  18.4451370  44.8652763  54.9573669  18.0120983  45.4299889  54.3172035
  19.0067902  45.4572258  55.4577408  34.6422272   0.4052029  51.2939034
  34.3742371   0.9598520  52.0265541  34.2014961   0.7837558  50.5331879
  51.1539536  24.0696716  27.1397247  51.7766495  23.9871902  27.8619957
  51.1894226  23.2227879  26.6950188  75.7959137  37.3254929  52.7882309
  75.2734451  38.1103287  52.9534302  75.1712494  36.6917839  52.4354820
  54.8580589   8.5188885  68.0860596  55.6689606   8.6826077  67.6045380
  55.0576286   7.7658410  68.6422272  29.2111397  43.3879776  27.2111301
  29.2594032  44.2835617  26.8767185  28.5992813  43.4391594  27.9454613
  83.1412048  38.9978523  52.9646988  83.0992889  38.1884422  52.4554558
  82.4181519  39.5287209  52.6306190  31.7413311   6.9019608  11.7179689
  31.1025333   6.4809341  12.2932138  31.3623009   7.7597823  11.5263672
  63.3994026  25.3277817  19.4572697  63.5390396  25.3375969  18.5103607
  64.1993332  25.7070427  19.8212795  85.8699417  71.6843109   6.1252561
  85.3768082  71.4345322   5.3438077  85.2190018  71.6918259   6.8270073
  57.5579987  46.5154037  47.3991127  58.0148430  47.0594521  46.7575989
  57.9027863  45.6342125  47.2547035  68.0155411  33.7512932  84.4078598
  68.8876419  33.5037804  84.1005859  67.6244431  32.9299316  84.7055740
  12.7365894  31.6426258  21.4035740  11.8832512  32.0680580  21.4875584
  12.6161814  31.0002842  20.7041969  43.7361641  62.3251877  71.2722778
  43.6460075  62.6380119  70.3721390  44.6811180  62.2556572  71.4081573
  70.5877686  47.7339668  25.8060360  69.8128738  47.4409332  25.3265629
  71.2217102  47.9558563  25.1240387  24.4395466  26.2970695  80.9735107
  23.4926567  26.2970181  81.1136169  24.7057648  27.2019043  81.1367111
  86.7784805  48.4457092  27.2836857  86.1777802  48.5846367  26.5515022
  86.3477859  47.7837486  27.8245544  77.5950089  27.9607544  50.9634476
  76.7944412  27.8616772  50.4481773  77.3119659  27.8447285  51.8704529
  51.9136620  53.9770966  86.9032822  51.8498421  53.9491692  87.8579483
  52.7094574  53.4847527  86.7019348   8.0671501  18.4465542  13.1513300
   8.4767723  18.3509617  14.0111570   8.7718506  18.7586288  12.5836697
  38.5329781  67.8136520  84.9821930  38.5333595  68.3017044  84.1587601
  39.0630875  67.0375519  84.8008575  56.3866959  36.0213013  12.2768135
  57.0456772  36.4553871  12.8186111  55.7452545  36.7055702  12.0856104
  57.4599724  37.4584084  29.6645050  57.7000999  36.9202766  30.4188175
  57.9074402  38.2915382  29.8124809  25.9698524   0.9285074  72.1375885
  26.2918243   1.7245506  72.5605316  26.6403904   0.2709672  72.3226624
  39.6904449   6.5335698  14.6507034  39.8961372   6.4399362  15.5808401
  39.9018936   5.6804633  14.2715845  53.4272346   7.5408235  51.9932480
  53.7357788   7.9813752  52.7850456  52.4803085   7.6806765  51.9948845
   5.1691451  32.4850655  10.5743637   5.1308522  31.5288620  10.5533791
   5.7706051  32.6849976  11.2916536  63.2950020  40.6875954  33.6155586
  63.5452042  39.7642326  33.6476860  63.2634850  40.9592628  34.5328560
  85.4812469   4.8800354   0.7291586  86.3843002   4.8524580   1.0453285
  84.9483414   4.8540378   1.5238717  28.2510185   2.4219360  30.9602489
  27.4914837   2.9750457  31.1430302  28.7482605   2.9077137  30.3022194
  18.6672764  29.5324783   1.3310841  18.6865730  29.5152950   2.2879353
  17.7366486  29.5740261   1.1109996  34.3033714  70.7393723  44.5070953
  34.9241447  71.3464127  44.9100456  34.8133430  70.2856064  43.8360863
  83.0182648  14.9096327  50.8940620  82.3630142  14.3609428  50.4630051
  83.7807922  14.8703575  50.3167877  85.7171631  67.9752579  12.5121479
  85.9954147  67.2952805  13.1257010  86.2109299  67.7930527  11.7126312
  70.0601807   8.7148819  17.7023983  69.2965469   8.3787527  17.2332325
  70.8100052   8.3773594  17.2124271  38.4400063  15.1513042  79.9896927
  37.6864586  15.3756084  80.5356674  38.1948013  15.4428682  79.1115723
  81.2335052  14.3854790  21.2878246  80.7160034  14.0400324  20.5604420
  80.8558350  13.9759388  22.0662060  58.8639641  66.9699707  63.6160812
  58.1601028  67.4760361  64.0219269  58.7891655  66.0994339  64.0069733
  42.6136322  46.4505157  11.3318415  43.0358238  46.9189377  10.6117277
  43.0310173  45.5891113  11.3345861  64.4464035   5.1456261  44.8617935
  65.3154221   4.9794526  45.2270622  64.3273010   4.4593101  44.2052727
  66.8452682  58.0647240  48.8882980  66.6554718  58.9114151  48.4841652
  66.3862457  57.4290123  48.3393021  49.9516449  49.9059486  19.7918339
  50.5830574  50.6252632  19.7803402  50.2478828  49.3385658  20.5035629
  50.5471611   4.8457518  69.0146027  50.1730499   4.2333202  69.6480103
  50.8682098   4.2897358  68.3046722  85.3841400  27.6849003   4.5158238
  85.1914139  27.8411884   5.4403038  84.6486893  28.0801315   4.0477023
  33.9714165  56.3147926  36.2003822  33.5672951  56.0233307  37.0176735
  34.8937454  56.0751724  36.2904778  70.8841171  23.7763844  70.3434219
  70.7983322  23.6721363  71.2910538  70.4623795  22.9987831  69.9777679
  85.1681519  29.2351227  57.8933678  85.2922821  28.5472584  58.5473289
  86.0363770  29.3611660  57.5105782  48.7445183  16.6803608  25.6633186
  48.8557205  16.4121189  24.7512264  49.6371231  16.7693710  25.9973259
  27.7326241  66.6979980  88.1294174  26.9850044  66.2208939  87.7693329
  28.4860344  66.3668823  87.6405716  74.5755768  12.2745962  69.2053757
  74.2063675  12.0716991  70.0648804  73.8221893  12.5390015  68.6774292
   4.5677495  42.7579842  74.5549240   4.9761887  43.5954056  74.3355179
   3.7974296  42.7115555  73.9886322  24.4911079  25.3454208  72.1394043
  23.6333027  24.9208183  72.1501694  24.9605618  24.9187737  71.4225998
  38.0055466  69.9866028  75.9851608  38.8430023  70.1540298  75.5528793
  37.4907188  69.5103836  75.3337021  70.3969955  20.3807468  77.7674026
  69.5235367  20.1200352  77.4752731  70.9668198  20.1842327  77.0238190
  79.7200394   6.9763412  84.5709305  79.8596344   7.3139911  85.4556580
  80.6004868   6.8927460  84.2047882  78.1426315   9.1798067  63.0922203
  77.8145676   9.0815248  63.9860611  79.0255585   9.5338392  63.1987152
  22.5372562  48.2374039  19.2023449  22.4551373  49.1312904  18.8699913
  23.0197926  48.3306580  20.0237427  38.5157013  15.1119833  57.1794930
  38.8106995  15.0619698  56.2702599  37.6341400  15.4809647  57.1253242
  65.7649689  26.9858284  50.1053963  65.3454361  26.8943634  49.2499084
  65.0962372  26.7073841  50.7310982  65.9129333  66.9699478  74.9499664
  65.8847275  67.7585526  75.4917679  66.4215469  67.2260208  74.1805725
  19.2409306  27.7918949  56.7371483  18.6095543  28.3594189  57.1793137
  20.0765209  28.2509327  56.8226204  65.9443436  56.0450706  59.7772598
  66.4070129  55.2218170  59.9335327  66.3504333  56.6664848  60.3815498
  16.4869690  30.3813305  36.0388107  16.9529762  31.0045185  36.5962219
  15.6652632  30.2148056  36.5006561  16.2659893  41.5594559  81.8734665
  16.9777145  42.1542740  82.1098328  16.7074585  40.7630081  81.5784912
  64.2188110  23.8774891  27.7509270  64.8591080  23.1660690  27.7391739
  64.3720932  24.3239441  28.5836430  12.2091532  35.8763275  16.6669159
  13.0409346  35.5009880  16.9558678  12.4408970  36.7422485  16.3311920
  51.9476585  47.2937469  75.0823364  51.3573799  48.0065804  74.8380737
  51.4152222  46.7200432  75.6333466  15.6603022  21.7674217  32.7960510
  15.3292656  20.8710098  32.8516312  14.9327307  22.2690601  32.4283142
  46.8782997   0.6651906  14.7133408  46.0646019   0.3398996  14.3282242
  47.4289856  -0.1126828  14.8021526  19.3840694  21.7555943  22.5053406
  18.5911922  22.0536404  22.9511509  19.8578377  22.5604439  22.2956047
  60.3833580   3.1687450  51.9591675  61.1098671   3.7399273  51.7098351
  60.2885284   2.5660272  51.2216263  38.5078011  10.6309166  30.9952793
  38.6887703  10.5266685  30.0611420  37.9167099   9.9083586  31.2068291
  75.0962067  23.1306458  54.8028870  74.4894638  22.7707806  55.4498749
  75.0290375  22.5367546  54.0552139  45.7480278  31.0895271  16.2376537
  44.8565941  30.7802830  16.0765839  46.3039360  30.3407326  16.0220032
  17.7130470  36.3156357  76.0817032  17.5971718  35.3724785  76.1968765
  16.8342342  36.6797028  76.1883392  70.9643860   0.7585835  21.5496197
  71.9028549   0.9463077  21.5332775  70.6844559   1.0132685  22.4288273
  58.1456223  63.5189209  26.6421795  58.8664093  63.3367500  26.0392609
  57.3662567  63.2000389  26.1870556  42.6498947  40.4056473  27.1858158
  42.2569923  41.2731323  27.2823963  41.9362221  39.7969055  27.3764343
  60.1112289  43.6642723  81.8266296  59.4491234  42.9731102  81.8385696
  59.6286240  44.4620323  82.0432053   4.6407566  62.2142754  68.9458923
   3.9430478  61.6699677  69.3108063   4.8515897  62.8336372  69.6445847
   7.4323978   1.1593131  33.1708412   8.2543306   1.3477815  32.7179184
   7.3918834   0.2036106  33.2058144  48.3675041  38.4412079  85.0495758
  47.5982246  37.9160728  85.2702026  49.1097374  37.8596420  85.2141953
  74.4070663  39.3068542  18.2742462  74.9697418  38.9672852  18.9701748
  73.6059570  39.5758705  18.7237949  17.0557690  18.5066242  45.3891106
  17.7746067  18.0247974  45.7981911  16.8835049  19.2335415  45.9875641
  69.0384064  31.1653156   2.6120229  68.3964996  30.4907761   2.8337991
  69.1332779  31.1024361   1.6616136  33.0976982  21.5736485  57.9438095
  32.4715614  21.1086807  58.4987793  33.7616577  21.8984985  58.5519714
  70.9460526  36.2812309  88.6105728  71.0746765  35.4793587  89.1172180
  71.1397171  36.9875793  89.2268524   5.9864335   9.6080875  13.4330549
   5.6701035  10.3774748  12.9595470   5.4006109   9.5328245  14.1863012
  47.2126656  20.3236103   1.7103728  47.7770920  20.7810974   1.0871871
  46.3269806  20.6082535   1.4850423  68.1078415  59.2430382  66.8769531
  68.7361069  59.2107582  66.1555176  68.6377411  59.4491959  67.6469803
  56.2162056  50.3102417  34.6935425  55.5960808  49.8302078  34.1446838
  56.2416611  51.1886940  34.3141861  59.1464005   5.7500215  39.2151489
  59.7847939   5.0502362  39.3529358  59.6122589   6.3987432  38.6875420
   9.7628059  28.3703194  31.0062752   9.4200792  28.7701683  31.8055820
   9.3613253  27.5017300  30.9818096  12.0068274  34.5100517  68.4981155
  12.4590130  34.2403145  69.2974930  11.7438812  35.4150887  68.6654510
   3.1770282   8.1387491  12.7953606   3.4228654   9.0634031  12.8238316
   2.5515904   8.0350103  13.5125055  57.0355263  67.0694046  44.3886223
  56.7556534  66.7952728  45.2619820  56.6002655  66.4578400  43.7946815
  64.0845566  13.9023094  44.8384819  64.5045013  14.1682148  44.0204506
  63.9496155  14.7210722  45.3156090  31.1537457   5.8342643  75.7271805
  31.3049698   6.5025363  76.3955917  31.5543995   6.1926875  74.9351959
  60.3516502  29.5032501  25.7389927  60.9669380  29.8754578  25.1072388
  59.4892235  29.6608162  25.3547688  60.5803680  59.7194519   6.4060073
  61.4119911  59.5017967   5.9849868  60.3570786  60.5844612   6.0623040
  65.6844177  63.8422089   5.6722102  64.9829865  64.1824265   5.1168027
  65.2617340  63.1704826   6.2073312  74.7458344  35.6792946  70.4955978
  74.1627731  36.1568222  69.9054794  75.2290955  35.0827599  69.9238968
  45.8121681  16.5173130   7.1205254  45.7543678  17.3719482   7.5477142
  45.4542732  15.9040108   7.7624002  72.0235596   9.8639498  62.1053429
  72.8501663  10.2253418  62.4252625  71.3818207  10.1064930  62.7728577
  70.8325500  20.9663849  43.0113029  71.6915054  21.2994366  43.2710991
  70.9110336  20.0155220  43.0883217  51.9556847  16.0893230  81.5309753
  51.1527863  15.5970001  81.3600845  52.6021500  15.4214039  81.7594452
  75.8135452  13.3741636  60.9671707  76.6461487  12.9532366  61.1812477
  75.4849777  12.8852062  60.2127228   9.6453428  58.4087181  18.9684734
  10.3744087  57.9138145  19.3423252  10.0338964  59.2410965  18.6993980
  32.1069260  53.0207977  36.4214516  32.0596046  53.6357498  37.1534500
  33.0286140  52.7654648  36.3823395  22.9936447  59.6309471  44.0520363
  22.3251915  58.9998283  44.3186684  23.6653557  59.5696945  44.7312126
  13.7774181  23.5277691  59.2426758  13.0435762  23.3835983  59.8401070
  13.7596216  22.7725582  58.6548233  40.7254982  52.0508728   2.6085901
  40.0591125  52.5852280   2.1765878  41.4105492  51.9427834   1.9488547
   4.3475866  40.0227470  69.8645020   4.1134496  39.8224678  68.9582443
   5.2007165  40.4522934  69.8021393  21.6221752  64.3869476  33.4232407
  21.0075626  64.9855957  32.9988556  22.4858704  64.7008896  33.1554680
  21.4261284  53.1938019  21.0965061  21.3248119  54.0295563  21.5520058
  22.3378239  53.1889229  20.8049259  43.5946732  22.6256866  50.0509453
  44.4545975  22.3526058  50.3706131  43.6951828  22.6685543  49.1000023
  47.9499283  33.7080803   3.7204094  48.1383438  33.4073906   4.6094069
  48.5540047  34.4374275   3.5811851  82.9840851  58.3020554  79.0948944
  82.5535202  58.0618362  78.2744446  83.8214340  57.8389320  79.0704880
  85.3527679  66.2584991  58.6505318  85.7029114  65.7913284  57.8919907
  84.6103592  65.7268066  58.9375229   8.4733229  24.6561146  23.6504498
   8.4718304  24.1307220  22.8503304   9.1186066  24.2306976  24.2151260
  19.2505035  22.4253502  75.9219513  19.9781990  22.5251293  75.3081665
  19.1994495  21.4829636  76.0817490  57.0631294  61.5188141  63.1294365
  57.2401505  60.8109360  63.7489586  56.5995674  62.1783905  63.6454811
  69.9344559   0.2730810  10.5522785  70.8616562   0.1698040  10.7664270
  69.8177643  -0.2281583   9.7452011  76.0903168   2.9163067  17.4444008
  76.9598312   3.1452310  17.7726822  76.1474762   1.9815316  17.2465096
  47.0095139   8.3809557  11.8900633  47.3659592   8.0984945  12.7323179
  46.1579971   7.9475017  11.8328667  78.6142426  60.4964752  23.7623634
  79.0539169  59.7258339  23.4031601  79.3273773  61.0792847  24.0231419
  61.2087975   0.9792624  67.8355103  60.9484596   0.1279369  67.4838028
  62.1617737   0.9269643  67.9085464   7.7107320  21.4991188  43.5707855
   8.1376867  20.6424370  43.5647240   6.9160123  21.3743286  43.0520554
   9.2592449  29.5006256   4.7540445   8.3727217  29.7940540   4.5437875
   9.6771040  30.2654247   5.1499095  15.7796850  16.1273689   6.2949824
  15.7572527  15.1740770   6.2115355  14.9361134  16.3534164   6.6868005
   0.2547282  26.0122623   8.8124828  -0.0584167  26.5796204   8.1080141
   0.2992409  25.1417122   8.4170198  13.8339643  50.1003609  12.7407990
  13.0317650  49.6893616  12.4186382  14.0535040  50.7517853  12.0747061
   2.5085783  16.8713245  39.6327438   2.3596232  17.1482010  38.7286530
   2.5950603  17.6891594  40.1225395  44.4805832  64.6446838   7.5011768
  44.2503891  63.9995461   6.8325663  44.9692001  65.3173370   7.0268078
  79.7936554  43.9647179  83.6289597  79.4170227  44.1645432  84.4859619
  80.6918640  44.2915955  83.6799698   4.7719231  30.7077885  46.0971527
   5.4827323  30.4420090  45.5137634   4.1575861  29.9740505  46.0758934
   4.9629445  13.2595873  22.5923481   4.1093674  13.0053101  22.9430351
   5.0827823  14.1629429  22.8852978  54.7024345  38.1398468  12.0310812
  53.9142075  37.7635460  12.4226542  55.0472412  38.7269440  12.7038794
  52.6576996  13.0276155  53.6917305  53.0536613  12.2497168  54.0845680
  52.1207275  12.6875677  52.9760056  36.5034409  62.0457306  51.2590599
  36.6379166  62.7829056  50.6634712  36.3605270  62.4516068  52.1140862
  68.1724396  60.4166832   8.7999849  68.2953415  60.1503410   7.8888378
  67.9106522  61.3358955   8.7475929   8.6781158  64.1017456  57.6204109
   9.2402773  64.8117828  57.3104858   8.3011971  64.4330673  58.4355125
  62.5375748  11.7526150  58.0468903  62.9620819  12.0133190  58.8642426
  61.6014175  11.7762156  58.2450829  52.6357040  18.7511063  74.1883850
  52.7338104  19.6161804  73.7905731  53.0554962  18.1537991  73.5693283
  39.7021255  59.2406654  54.2500687  39.5247650  59.8813286  53.5613556
  40.5852890  58.9237900  54.0607491  19.7734089   2.0141535  28.8499451
  19.7058716   1.2177086  28.3233089  18.8675728   2.2989011  28.9708118
  24.3297291  35.2409286   0.0796233  23.7984867  35.8664970  -0.4130011
  24.9479046  35.7842789   0.5683576  20.2172909  19.2615395  85.8575745
  20.4059715  20.1487961  86.1632004  19.2850666  19.1394901  86.0372772
  18.8630772   0.4382150  63.6138687  19.4397736   1.1155530  63.9672356
  19.1977406   0.2748284  62.7320862   0.7864997  32.9696693  11.8754644
   0.8478600  32.5003548  12.7074556   0.7383248  32.2793922  11.2140827
  41.6082420  39.1677475  85.0865707  42.1982880  39.4455147  84.3859100
  40.8342438  39.7209930  84.9812927  31.1199532  43.0948181   2.2446711
  31.1438751  42.2585297   1.7796093  32.0171661  43.4241028   2.1916542
   2.5100653  70.1129303  34.9249344   2.3590524  71.0408783  35.1047745
   2.3870618  70.0291061  33.9793777  37.4171829  10.2079496  33.9363213
  36.9166946   9.5702877  33.4272728  37.0255508  11.0525351  33.7137680
  28.6593189  39.7110672   1.0670087  28.3204365  38.8272362   0.9247546
  27.8886414  40.2756004   1.0070945  78.5505829  57.1301727   1.0005264
  78.2279129  57.3594475   0.1290065  78.8673096  56.2314491   0.9098902
  68.7194672   1.7831999  30.5256424  68.7281494   1.4374071  29.6331253
  69.4888382   2.3509414  30.5700321  70.0860062  40.0452042  74.4541168
  70.3255920  39.1206589  74.3905258  69.1919250  40.0848389  74.1145782
   6.0399976   6.1661372  61.0144043   6.8951502   5.8595529  61.3159866
   5.4593253   5.4151759  61.1373215  25.7829399  21.6719093  19.1823654
  25.2538223  21.8808746  19.9521694  25.1506176  21.6116409  18.4662876
  15.4602995   8.2237425  66.6570969  16.1840649   7.8403230  66.1617355
  14.8429079   7.5020661  66.7764435  20.3548660  54.4000359  13.0333691
  19.9057236  54.4827652  13.8745937  20.0685444  55.1640472  12.5328302
  33.7904701   2.6244018  27.3309269  33.8904762   3.5460343  27.5693054
  34.3111153   2.1512685  27.9800091  77.4504242  45.6513557  49.3249931
  76.8470764  46.2544327  48.8908272  77.8207932  46.1606979  50.0458527
  13.2013006  49.7846870  57.8773308  14.0026760  50.0459518  58.3309479
  12.7036867  49.2956772  58.5326805  77.6813889  60.1167221   7.1173892
  77.7140274  59.1601295   7.1074977  78.5960846  60.3883820   7.0415359
  84.3187180   3.4972203  54.3991013  84.5636368   2.8058822  55.0141602
  83.7555542   3.0606928  53.7599449  65.3685303  57.0068893  85.4329605
  65.4914169  57.9484482  85.5537872  64.7276764  56.9378510  84.7253113
  66.2152939  24.7031460  54.9959259  66.2643738  24.0082569  54.3394547
  65.3555603  24.5895500  55.4011192  40.4895325   2.6604946  83.6641464
  40.0059738   3.1022520  82.9661102  41.1190071   3.3135972  83.9698410
   8.7347164  66.4179382  80.5996017   9.0428333  65.9003601  79.8556900
   8.7821512  65.8185959  81.3444290  23.5173359  63.3340759  12.2480106
  23.5236340  62.3775940  12.2114964  24.1837521  63.5532951  12.8992138
  46.8547783  65.5161057  31.3817902  47.6931000  65.5395355  30.9203720
  46.6395988  64.5852509  31.4404449  82.2555313  29.1996479  10.2636347
  81.4554138  28.8198948  10.6267281  82.7028351  28.4628696   9.8473349
  40.6372719  36.5830040  78.5471573  41.2047653  37.1785851  79.0365067
  41.0263100  35.7185211  78.6796494  73.8593369   8.9669924  87.4129562
  74.7362061   9.1420956  87.7545242  73.4279175   9.8214579  87.4112396
  11.8178797  52.0631790  69.9923172  10.9393215  52.3225822  69.7146912
  12.0097923  51.2789879  69.4780731  31.9998798  17.2135448  74.9949493
  32.9065208  16.9889526  75.2042160  32.0221367  18.1526031  74.8108063
  43.2639732  56.7009315  72.7246704  42.3856010  56.4106522  72.4788361
  43.2968826  57.6189651  72.4556580  28.3960552  -0.0890214  37.7578239
  28.9117546  -0.2521297  38.5475578  27.6372204   0.4067373  38.0654373
  73.1414719   8.2520227  80.9256439  73.8568497   8.8871765  80.9580307
  73.5749054   7.4002066  80.9783401  47.7911415  28.2167377   5.0176287
  48.0369110  29.1358891   4.9127965  46.9012718  28.1654549   4.6687183
  62.7456627  68.5600967  46.9015083  62.6452942  67.8619385  46.2544136
  62.4392586  68.1726151  47.7213898  59.3041725  48.3468590  63.0283585
  58.7800789  47.6131325  63.3496017  60.0644073  47.9360390  62.6166534
  12.5722990  52.4765778  59.1548615  12.0215578  51.8789597  59.6605988
  13.0095911  51.9153328  58.5145416   0.5306816  35.7197952  60.2775307
  -0.3343724  35.3246307  60.3859749   0.5326681  36.0489426  59.3787041
  57.1388016  39.5149765   0.4633610  56.5658340  40.0092430  -0.1228439
  58.0245514  39.7478218   0.1850341  45.9463463  11.9756393  41.7495384
  46.4443588  11.8609896  42.5589066  45.0604858  11.6882496  41.9706497
  69.9670639  13.3820858  68.8423309  69.4187241  13.5175848  68.0695496
  70.4400101  12.5698805  68.6610031  24.6110497  37.2774467  29.3060379
  24.1220684  38.0907784  29.1810608  25.4792175  37.4624825  28.9478760
  30.8294811  66.7996140  29.3995533  30.7369690  67.7511368  29.4473610
  31.7655983  66.6567078  29.2599392  60.0798378  28.7846260  84.2194290
  60.0707359  29.6141567  84.6969528  59.7319946  28.1460915  84.8419342
  23.1625652  62.8527794  43.9557877  23.0503407  62.5479927  44.8562012
  22.3720264  62.5588531  43.5031471  61.6224632  39.1625710  81.1991196
  61.4165649  38.3726196  80.6993027  61.9908333  38.8371048  82.0204620
  79.5978241  35.0425301  43.3540192  79.6029739  34.6055641  44.2056465
  80.4023361  35.5611115  43.3460274  13.8275528   3.0288084  71.0265884
  14.4258099   2.2830191  71.0726089  12.9591703   2.6476250  71.1563721
  52.9049225  49.3097076  78.0460281  53.5418243  49.9133148  78.4284515
  52.4076233  49.8458977  77.4284363  72.3112640  66.3783951  23.5584660
  73.0817413  66.9437561  23.6129074  72.3324738  66.0297928  22.6672516
  71.2917328   6.0095768   8.8455458  70.8863144   6.8258142   9.1381693
  72.0917358   5.9393268   9.3663960  41.4503899  61.4895439  24.1801357
  42.2712097  61.4146614  23.6934338  41.0509872  60.6224060  24.1110077
  37.2969704  47.3807983  43.3729095  36.5351105  47.2166443  42.8171654
  38.0474014  47.1540680  42.8236542  23.0115910  31.3662167  16.4189091
  22.9825916  32.0349960  17.1031055  23.1328411  31.8589878  15.6073008
  84.9788971  34.6520729  53.3637199  85.9316406  34.5822411  53.3033524
  84.8257980  35.1544342  54.1639862  39.5344200  65.9086533  67.4321442
  39.9101181  65.5837708  66.6138992  38.5881538  65.8703918  67.2930450
  75.9152374  25.6982288  40.3110199  75.4460144  25.2997360  39.5780334
  75.8248978  26.6405621  40.1693192  41.7832146  58.8588753  52.1808205
  42.2804718  59.6387672  51.9343796  42.4488792  58.2244759  52.4466324
  35.9543610  39.6556740  36.7868614  35.4521179  40.4121132  37.0898170
  36.8684921  39.9294510  36.8619843  30.4208775   4.6011114  61.5787315
  30.4395180   3.7644191  61.1141548  29.5550613   4.6297560  61.9858856
  42.7184525   5.0922751  86.3891754  42.4448128   4.3906879  85.7983017
  42.9437103   4.6444397  87.2046051  58.9613037  59.2783241  50.4448090
  58.0468788  59.2305756  50.7237053  59.3182793  58.4130554  50.6450806
  49.4230042  37.4367561  14.5073690  50.2454681  37.6523285  14.9470425
  49.2561455  36.5247192  14.7452431   6.9919229  43.6434898  41.7141151
   7.7805395  43.3193398  42.1491318   7.3188219  44.1335678  40.9596672
  10.2923574   4.3619666  39.6003647  10.2285280   5.2891645  39.8294067
  11.1658058   4.1024117  39.8935356  71.0073166  64.0778046  64.2664032
  70.8849487  64.9108047  63.8110275  70.1282043  63.8299294  64.5526657
  45.9396477   4.3569708  70.0372772  45.4541512   4.1587720  69.2365036
  46.7373199   4.7897229  69.7328491  51.5072327  12.5763416  43.1197701
  52.3133507  12.1669645  42.8054161  51.3894043  13.3390951  42.5535927
  17.3586178   1.1056093  48.5874367  17.2827873   1.1818640  47.6362991
  17.9756088   0.3861998  48.7216110  84.0835419   3.4271107  58.8344040
  84.6629562   3.4775417  59.5946465  83.2166290   3.2607858  59.2045860
  16.4897175  43.9066391  22.5110340  16.4862232  44.5077400  23.2559509
  15.8012762  44.2367172  21.9336872  53.5433540  23.8160591  62.1479492
  53.5053444  23.3563595  62.9866753  53.3544350  23.1410656  61.4960861
  42.3268661  14.0936460  60.4778671  42.5185890  13.5600328  59.7066765
  42.3904915  14.9964695  60.1662712  34.3821182   1.8398234  53.7032547
  34.4768753   1.1730268  54.3834305  35.1818085   2.3620279  53.7667198
  85.7497330  20.0674210  49.2507591  85.9204330  20.9479923  48.9165649
  85.5619354  20.1963158  50.1804657  66.4764557  19.7897491  29.3434944
  66.9383850  19.5252399  30.1390362  65.9029770  19.0502110  29.1424160
  30.5313625  21.3951931  16.4495564  29.7105827  20.9886703  16.1715412
  30.9143314  20.7671013  17.0619812  38.5044098  22.0358562  75.5168457
  38.3897247  21.4828720  74.7439957  39.2993546  21.7032051  75.9335403
  48.3998260  12.0201492  79.7620773  48.8473701  12.3118382  80.5563354
  48.4560928  12.7678795  79.1671219  16.0526676  30.5644722  14.1220398
  16.4369888  31.2768135  14.6330185  15.8977842  29.8682632  14.7604275
  80.8183975   9.4600554  66.6907196  80.0517044   9.9602184  66.9704437
  80.5427017   8.5453978  66.7509308  84.5064011  10.2346935  73.0855865
  84.6054459  11.0417118  72.5804749  83.8040390  10.4258661  73.7071838
  60.3792992  43.5106354   7.0869231  59.8374214  42.7704659   7.3603253
  59.8705215  43.9384499   6.3981905  55.1706696  23.3296757  29.4548378
  56.0496025  23.0708122  29.7317810  55.1150513  23.0491810  28.5413494
  36.4513359  46.3873024  14.8276205  37.2502060  46.2914734  14.3091097
  36.5182953  45.7078476  15.4985075  85.2022247  43.4296951  84.5107422
  85.6708679  44.2058754  84.8175735  85.2624588  43.4751701  83.5565186
  33.5855713  69.4315414  51.5014229  33.8072815  70.3596039  51.4254417
  33.5574951  69.2684021  52.4442024  23.5650902  29.5680580  20.9225483
  23.0599480  29.7740936  21.7090683  24.3912373  30.0373287  21.0387249
  66.5415039  70.9482117  39.8826294  66.6422729  70.0210724  39.6669998
  66.8322372  71.4099960  39.0962067  16.0709438  18.0776806  41.8673477
  15.5590868  18.0840549  42.6761703  15.9038124  18.9329681  41.4713860
   9.0835266  67.2561646  64.0523987   9.4909744  66.5673523  63.5272751
   8.2091675  67.3583527  63.6765213  43.4494362  64.6023636  84.3115768
  43.7471390  64.7341614  83.4114456  44.1958847  64.1982269  84.7539749
   0.1696507  64.6589737  57.3085518   0.8166122  64.1737366  56.7964821
   0.6524959  64.9650192  58.0762939   5.8003335  57.7897987  61.2060814
   5.0567884  58.3895798  61.1457787   6.4325275  58.1274986  60.5716362
  81.3889313   0.3276224  25.1413288  81.9157104   0.9470743  25.6463184
  80.7455139  -0.0053309  25.7669392  12.1465540  23.0821781  43.5137558
  12.7711773  23.7961044  43.3857384  11.4193945  23.4826965  43.9902573
  11.9764347   0.2509189  17.3911610  12.2786579  -0.2448904  16.6301975
  12.3579254   1.1213351  17.2768269   6.0355291  65.8388519  69.8541031
   6.7062707  66.5185471  69.9200668   6.4972653  65.0806427  69.4961166
  67.6250458  24.1388111  47.4073143  67.1159592  23.3476238  47.2310066
  67.1096725  24.8464584  47.0202026  39.2868729  46.7997932   5.7215066
  38.5202980  46.5104256   6.2163410  39.2188797  46.3406525   4.8843703
  50.4102058  15.0230417  16.9766579  49.4819145  14.8312035  16.8436108
  50.8625603  14.4724512  16.3375511  65.0895386  11.2688694  16.3424587
  64.9538040  12.1836195  16.0953903  64.3063583  10.8171377  16.0281296
  46.4619064  10.8008900  44.2100563  46.3305550   9.9614239  43.7692909
  45.6934547  10.8990402  44.7722664  53.8122215   7.1487350  65.8817520
  52.8603020   7.0528035  65.9113846  53.9969254   7.8856177  66.4640961
  77.2573624  30.3278675  41.1390762  77.3161469  30.2574482  40.1862793
  77.9782867  29.7885056  41.4640312  52.0569420  20.7955341  30.5875168
  52.3836632  20.6551590  29.6988220  51.2075500  21.2198524  30.4661961
  30.6301460  18.9655819  27.1403255  30.1167641  19.7359810  26.8971100
  31.2761326  19.2956257  27.7648277   3.8678262  58.6676750  83.0565720
   3.3592870  57.8584366  83.1090317   3.4333615  59.1797829  82.3745041
   7.2013788  29.8825378  81.4849625   6.9327135  29.9309311  82.4024124
   7.5617757  30.7486973  81.2949295  75.0933990  56.5040436  12.7102308
  75.7386627  56.8867874  13.3046827  75.2188950  56.9739304  11.8857985
  22.1250095  71.6844177  73.3996124  22.5378628  71.8899612  72.5608444
  22.4188957  70.7957230  73.5998154  11.3883619   6.5310235  75.9766693
  11.3958902   6.4275551  75.0251083  11.8204231   5.7432122  76.3066864
  72.3808517  62.5428696  59.0393524  72.9379044  61.8163948  59.3189240
  71.5522614  62.1296730  58.7965775  76.6522217  26.1616383   8.7211266
  76.0625381  26.9154377   8.7038488  76.3725510  25.6217766   7.9818249
  48.6774902  43.3424797  31.0434685  48.0045013  43.6846695  30.4550571
  49.2873726  44.0710831  31.1592693  62.2286415  22.4444065  17.0669479
  62.5300865  23.3263359  17.2850361  62.9809837  22.0323334  16.6422005
  47.8482780  50.4818230  21.9425583  47.0935974  50.3152504  21.3778114
  48.2315750  51.2885704  21.5983562  61.5083733  12.1796532  84.3492126
  60.8557930  11.5124950  84.5619888  61.0689774  13.0106602  84.5297394
  77.1649780  47.1976624  17.1373291  77.8514023  47.5300369  17.7157612
  77.6043549  47.0612946  16.2979355  64.9923782  70.2004471  59.0121460
  64.5827103  70.7615051  58.3536530  64.2749557  69.9523163  59.5952187
  23.7199631   8.8423595  71.3313446  23.8996353   7.9555035  71.6434937
  22.8559589   9.0508862  71.6866531  68.9085083  52.9393730  37.9367485
  68.4521255  53.7752609  38.0328522  69.8328934  53.1778374  37.8668327
   3.6766474  41.5852203  59.0246658   3.7197866  42.5244141  59.2043610
   2.7648346  41.3501091  59.1965675  66.8344498  20.3588448  15.4503441
  66.2031708  19.8368397  14.9551344  67.0348969  19.8257771  16.2196903
  14.4986219  57.2780991  44.0843201  14.2287388  58.1204567  43.7184868
  13.8574772  57.0992584  44.7722015  54.4259796  17.4426346  36.3586998
  54.2464447  16.5385494  36.6168213  54.8588028  17.3674641  35.5082626
  20.3632736  18.9092274  78.5802994  20.8624859  18.3204746  78.0142670
  19.7907372  19.3887768  77.9815750   0.4836586  54.7663460  25.0670586
   0.4454452  54.1368561  25.7871380  -0.3154010  54.6051140  24.5653210
  13.3515530  39.2857857  81.6832962  12.7195721  38.6618538  81.3261642
  14.2056398  38.9035873  81.4815826  15.1102476  27.0110245  36.6592903
  14.5190001  26.5429802  36.0697212  14.5618000  27.2541199  37.4051743
  73.1086121   5.4428954  77.6873474  73.8263855   5.9838314  78.0166168
  73.5380402   4.7735023  77.1546783  12.5657072  23.4627304  55.1987457
  12.0045738  23.5293674  55.9713554  12.0804949  23.9176369  54.5103722
  44.7686577   2.9125214   9.7524786  44.1823883   2.4362400   9.1645365
  44.7193375   2.4334412  10.5796919  70.6081085  28.5335541  73.6055984
  70.1721649  29.0555992  72.9320679  70.9909058  29.1797142  74.1990433
   4.0290284  59.7594986  22.0855637   4.2334161  58.8361206  22.2333183
   4.3055758  59.9247665  21.1842098  53.7898598  16.5303116  72.6966019
  53.9370461  16.9960823  71.8734283  53.0360985  15.9669018  72.5215530
  62.3287849  26.9548683   9.4760609  61.9821358  27.5405407  10.1491518
  61.7630463  27.1000996   8.7177200  43.4633713  21.2527237  21.5304737
  42.7954826  21.2983360  22.2146320  43.0361977  21.6148968  20.7542114
  66.0213394  53.4947014  12.9390097  65.1974792  53.0073967  12.9337339
  66.6835861  52.8430557  13.1692791  59.8647842  33.5820007  12.1309090
  59.1387749  32.9641953  12.2172594  60.6466560  33.0590591  12.3082237
   1.5552541  17.7242661  43.5358162   1.5796374  17.8934669  44.4776268
   1.0878941  16.8929501  43.4538422  80.5851898  37.4430389  67.0208969
  80.7439270  36.7534332  67.6654739  81.3006744  37.3519897  66.3916016
  53.9914017  62.5065193  80.8544235  54.5264664  62.5114594  80.0607529
  53.9115372  61.5806160  81.0836792  30.5219440  45.6492004  78.8212662
  31.0098991  45.0628395  78.2430649  31.0337524  45.6687202  79.6299057
  77.3757782  60.6320190  12.5092764  77.3147507  61.2230568  11.7588224
  76.5622940  60.7745361  12.9931765  56.1570435  29.3577614  79.2790375
  55.9424438  28.4636116  79.5448837  56.9552689  29.5668240  79.7641754
   5.7824421  51.8311234  41.8644028   5.6873841  52.1441498  42.7639618
   5.0513592  52.2307854  41.3932152  85.1171951   4.4729676  49.9347267
  85.8114471   4.0296674  50.4223061  84.7164688   5.0638347  50.5723190
  48.9463120  31.7632332  17.8851757  48.2933846  32.0220222  18.5355167
  49.4852943  32.5447388  17.7627926   2.0925055  23.7768555  11.7204180
   2.3672388  23.6638031  12.6303482   1.6999002  24.6494751  11.6954184
  54.8315506  17.6794415   0.5428681  55.7489586  17.9332275   0.4419160
  54.3981476  18.4703503   0.8635806  49.5721970  70.0970840  25.2494087
  48.7690277  70.5907593  25.4150391  49.2697029  69.2219086  25.0069237
  63.8429832  40.9371071  21.2759895  63.1986008  40.5247040  20.7007294
  64.4519577  40.2325935  21.4974422  22.3353901  46.7881584   9.1692171
  22.9745655  47.3264351   9.6360598  21.6750546  47.4105606   8.8645821
  29.1486473  10.4538736  26.5411243  29.0420609  10.3936234  27.4904613
  28.8984585   9.5888042  26.2166367  56.0704765  32.5569038  78.9907532
  56.5501060  32.0318947  79.6315002  56.7483635  33.0536232  78.5325241
  41.9680176  17.5871944  82.5524521  41.4692078  17.5502071  81.7363358
  41.3019600  17.6038570  83.2397079  71.8119736  44.8825264  22.8269691
  72.5759354  44.9436073  22.2534981  72.1791840  44.7910271  23.7061844
  58.9895210  65.9958344  80.2656479  59.5077705  65.8590088  79.4725952
  58.5247192  65.1689072  80.3936615  52.3883553  26.2633057  23.1568661
  52.8335152  27.0979080  23.0102139  51.5220833  26.3822365  22.7674332
  68.7843857  44.4787636  26.2091732  68.9150696  44.4632301  27.1572838
  67.8952179  44.1469955  26.0844860   2.2109461  61.2258911  64.5930481
   1.2805338  61.0645981  64.4363632   2.2276571  61.8290863  65.3360901
  35.3290520  19.6950016   4.2844720  34.4348259  19.6494236   4.6228714
  35.2656670  19.3515987   3.3932431  81.7605209  42.2755737  49.7331200
  81.4440765  42.3403893  50.6341705  81.9222336  41.3411903  49.6026917
  61.0208321  13.0905256  63.7031860  61.1322823  12.3013172  63.1731262
  61.3165665  13.8032169  63.1367531  41.7259903  34.1693687  10.0162067
  41.0407333  34.1808662   9.3479843  41.6936111  33.2834625  10.3772583
  21.1729660  44.4486656  62.1960411  21.9259319  44.9208565  61.8406372
  21.0600948  44.8060570  63.0768166  46.6083870  47.9120712   3.4946501
  46.7239723  47.6479378   2.5819042  45.7189941  47.6341171   3.7136357
  75.0869293  22.1562614   9.0321560  75.5664139  22.8655415   8.6040859
  74.1665878  22.4068489   8.9520388  15.3607512  18.9746590  75.9231567
  14.9394407  18.6925297  76.7350311  15.0209188  19.8564453  75.7708435
  59.0598755  36.8821220  60.4295006  59.1838417  35.9456444  60.5840149
  58.2120399  36.9420624  59.9892578  11.2232332   3.7482977  54.3299751
  10.7106810   3.4849217  55.0942764  11.7966948   3.0016057  54.1572762
  20.0258904   0.1296570  31.0894966  20.4267273  -0.6273305  30.6622620
  19.6012058   0.6091095  30.3781586  56.9301109  25.0768604  34.4764786
  56.9753647  24.8038692  35.3928108  57.7066803  25.6220894  34.3503685
  25.5622215  13.6911449  75.8749924  26.0606213  13.5992098  76.6870117
  25.0594864  14.4971752  75.9924850   2.3699749   2.6184993  30.0587749
   3.2136216   3.0559187  29.9440727   2.5961914   1.7311877  30.3375854
  23.8907452  59.9120636  15.2298651  24.4707298  60.6593475  15.3761940
  24.1994324  59.2455177  15.8435926  47.1892548   7.0516601   9.3695583
  47.3940086   7.6080804  10.1210260  47.8925629   7.2256579   8.7440081
  28.3127193  31.0265198  28.9693584  28.1895161  30.0775566  28.9922123
  28.0825653  31.2764397  28.0744839  13.5900917  36.9332161  70.7819138
  13.7200775  36.5813408  71.6625443  14.4699230  36.9710197  70.4068146
  19.8532410  51.1324997  19.6395454  19.8549995  50.6384430  20.4593849
  20.5749283  51.7543106  19.7330761  28.4524479  34.2809143  16.0356255
  28.1763649  35.1658821  16.2740307  29.2738152  34.4061356  15.5603304
  68.3222046  53.9309349  75.7769852  67.8985367  53.2255173  75.2879791
  69.2560425  53.7253189  75.7333755  18.4708557  21.3202477  46.5723267
  19.3155422  21.7384853  46.7390976  17.9502029  21.5126553  47.3521538
  44.9150925  64.1548080  35.5276985  44.7187271  64.5480576  34.6773872
  45.3295937  63.3186646  35.3149033  64.4165802   6.1993322  67.6144562
  63.5871582   6.1701465  68.0913544  64.8019943   5.3338709  67.7510757
  85.9313507  11.0308485  83.4322357  86.6321564  11.6117945  83.1362381
  85.9303513  10.3141470  82.7977524  80.7655716   1.1942230  84.6960754
  81.6747742   1.2531604  84.9895325  80.7993774   0.6302894  83.9233704
  59.1234398  22.0233536  54.2946358  58.2496376  21.6481647  54.4038925
  59.7081070  21.2658367  54.2709427  37.8107948   6.2091923  64.9334335
  38.1418381   5.6352172  64.2426376  38.5972710   6.5748653  65.3383713
  64.3471222  26.4194241  47.9117012  63.9902496  25.5545864  48.1140175
  63.5767021  26.9674149  47.7620468  57.3508759  50.9668007  54.0103531
  57.0834007  51.1106224  54.9180984  56.6022453  50.5275726  53.6067924
  83.0309753   6.7853031   0.7899322  83.1199417   5.9765701   0.2856830
  82.4303284   6.5597954   1.5002893  70.2876587   3.9252648   7.1647758
  70.6576691   4.5423846   7.7960343  70.8831940   3.1761544   7.1848564
  16.3417263  68.2341385  62.4819107  16.6970387  67.3493195  62.3977013
  16.5442562  68.4888992  63.3820801  38.3729553  15.4946184  63.8937073
  38.3554802  16.3973255  63.5758324  38.3680077  15.5763798  64.8473969
  31.4988632  58.4529305  78.9651947  32.0851746  57.9682961  78.3841629
  30.9036636  57.7888756  79.3130417  11.5923901  68.2263565  71.4547195
  11.9998894  68.6108398  72.2308350  10.6519308  68.2937622  71.6197205
   3.6198761  11.3982677   2.9860137   3.0904419  12.1835327   2.8471231
   4.0353770  11.2366343   2.1389804  39.5350876  39.1094322  25.7568455
  39.9819908  38.5427895  26.3856735  40.1482239  39.1863632  25.0258331
  55.6989822  25.1684856   4.4167910  56.2738571  25.0734520   3.6573713
  54.9376984  25.6431046   4.0830007  56.5560188  34.0848007  68.8464813
  56.5511169  33.7003136  67.9699097  55.9609108  34.8318825  68.7836609
  50.5290489  68.2867813  60.6589127  49.9649658  67.7075272  60.1465607
  51.2672348  67.7350082  60.9174919  18.5473557  28.2541389  74.3487244
  17.6524391  28.5027008  74.1172638  18.4910450  27.9820061  75.2646942
   5.7902956  11.0415955  29.6641178   5.4246273  11.1362143  28.7845936
   5.7080951  10.1079550  29.8585186  59.9825134  21.1544857  79.3478165
  59.5882683  20.3851280  79.7587814  59.5173302  21.8968525  79.7334671
  18.9713783  14.6299934  44.3118973  18.0306892  14.4535875  44.3266068
  19.0756760  15.4179211  44.8453064  20.7902317  47.5090523  16.6144295
  20.7704792  47.0157356  17.4344788  20.3147507  48.3166428  16.8092270
  60.5587425   9.8575563   7.9780769  59.7774429   9.6812134   7.4539557
  61.2154427   9.2477627   7.6417294  48.4227257  12.7870255  85.1080093
  47.6099319  12.6448412  84.6228485  48.3983765  12.1383286  85.8114548
  31.8760433   5.0794706  86.0584793  31.7458801   5.8482051  86.6137619
  32.4882736   4.5307794  86.5487289  83.8574600  64.3460388   5.8012419
  83.0485001  64.8305435   5.6367078  84.3194885  64.3596497   4.9630451
  38.3110123  38.4920769  80.0949097  38.0700607  38.7587776  80.9820709
  37.9928589  37.5923691  80.0205536  22.4124374  50.4080734  26.1138229
  21.6158104  50.8863831  26.3436909  22.1685734  49.8918152  25.3455544
  69.9529495   2.0162897  79.2950897  70.4525070   2.6456254  78.7748871
  69.6668015   2.5128558  80.0617523  47.8146057   1.8145130  61.0650406
  48.5616074   1.6226948  61.6319847  47.3971519   0.9648914  60.9232330
  36.0981445  14.8251429  84.2301025  35.8283043  15.2389774  83.4102478
  36.6753349  15.4669962  84.6437531  42.7452888  23.9550514  76.7707214
  43.5873871  23.8668499  76.3242645  42.8816071  24.6617908  77.4017258
  85.1860046  38.4493217  42.8421097  84.5211029  38.2175865  42.1937027
  85.9275436  38.7616615  42.3236504  58.3600311  69.5361557  44.5229225
  57.7182236  68.8414612  44.3755760  58.8013077  69.2863007  45.3347588
  55.0182762  26.5544682  33.2102127  55.6470261  25.8845901  33.4788551
  55.4182701  27.3808022  33.4811554   9.2501879   5.0000281  64.3326645
   9.3383512   5.7417216  64.9312897   8.7780418   4.3387079  64.8385925
  33.7333031  69.2400360  28.7497463  34.4773750  68.6838684  28.9805374
  33.0206108  68.6257553  28.5737915  57.8254166  12.1216002  67.4519424
  58.7290611  11.8609705  67.2738266  57.4479446  11.3748207  67.9167786
  67.6717682  28.3298111  44.2272301  67.6131134  29.1792564  44.6645279
  67.2948456  27.7115860  44.8532982  63.8669434  59.3702698   0.4326907
  64.6258545  59.5526161   0.9868039  64.0817337  59.7741508  -0.4081295
  11.7253885  52.8556519  83.9483871  12.2686214  52.7619247  83.1658630
  10.8309269  52.9168663  83.6130905  15.7530222  67.6353912  51.7068214
  14.8025894  67.5481186  51.7795753  16.0942860  66.7907104  52.0005531
  58.3815727  60.1462364  75.1334839  58.0714760  61.0200348  75.3712845
  58.6392746  59.7489357  75.9653397  81.5118256   5.1198964  53.4597397
  80.6899109   4.9304566  53.0071945  82.0455933   4.3369036  53.3246727
  63.0712814   3.2299380  64.9895020  63.1100273   4.1863141  64.9981766
  62.1978455   3.0225942  65.3217010   0.6310369  46.5765686  78.9984131
   0.1394847  46.6803932  78.1836548   0.4702760  45.6703224  79.2612991
  23.1166744  67.4066238  38.3297882  22.3859367  66.8341293  38.0963249
  23.1941090  67.3207474  39.2799797  64.1774139  60.9190979  77.2782593
  64.3823929  61.7393494  77.7270355  63.9091682  61.1874390  76.3994675
  37.6822243  64.3690033  61.6037445  36.8929367  64.2216034  62.1248322
  37.9176521  65.2802582  61.7781448  26.7181110  20.2275982   0.8814035
  26.4588890  19.5049572   1.4530908  26.7655716  20.9871349   1.4619913
  57.3775673  63.7643280  15.2356377  56.9480705  63.6894188  16.0877838
  56.6771164  63.6154327  14.6004725  20.3912201  58.5611916  44.1079750
  20.2141361  57.7215385  44.5320663  19.5416546  58.8414307  43.7674751
  42.8390388  56.3803368  84.5323410  43.3462715  55.9717636  83.8309021
  43.3520317  56.2188950  85.3241806  66.8024368  66.8845291  35.2260780
  66.1653290  66.5969543  34.5721474  67.5930176  67.0768204  34.7218552
  75.6948395  46.5413589  45.2003288  75.4869995  47.2230949  44.5613670
  76.6182938  46.6823082  45.4091377  74.1193085  46.2891312  21.4124050
  74.9430695  46.4480515  21.8732624  74.3838120  46.0564651  20.5223846
  52.4089584  22.5504742  16.1285839  52.8566284  23.0040073  16.8428211
  52.2288513  21.6766624  16.4753475  41.1142426  35.7652779  88.0702438
  41.3056908  34.8839874  88.3910294  40.3467140  36.0410690  88.5713196
  33.4595604   9.6277008  69.3276291  33.2586555   9.5665979  68.3937454
  32.9001923   8.9673758  69.7366638  17.3717651  47.5001068  11.6538372
  18.0443230  46.9058151  11.9865828  16.7267094  47.5508156  12.3592176
   0.0934498  32.9708176   0.4750154   1.0024897  32.6717567   0.4960240
  -0.2967286  32.4996910  -0.2612153  49.9041634  41.7454033  36.7383614
  49.4078369  42.2625465  36.1039658  49.2366562  41.2818184  37.2440796
  68.8097763   2.2138605  39.7884827  68.8094788   1.4166276  39.2587166
  67.9467163   2.2268062  40.2022476  46.1756592  54.5227318  45.3589363
  47.0921402  54.5130348  45.0828972  45.9122849  55.4398308  45.2828140
  65.4161301  27.3843098  61.3995705  64.5313492  27.2015781  61.7158089
  65.9095459  27.6130314  62.1872635   7.7619338  47.8049469  40.4689026
   7.8005896  48.7592773  40.5321121   8.6510525  47.5446434  40.2281914
  74.4427567  58.6261253  83.2553482  73.6547699  59.1684990  83.2890854
  74.2964249  57.9496956  83.9166031  41.8737717  14.7793484  23.5812073
  42.3874207  14.7384109  24.3878784  41.2401352  15.4798965  23.7360229
  26.7691135  18.2711124  18.4619865  26.2925301  17.4663582  18.6656303
  26.3724327  18.5853100  17.6494865  65.1077118  47.0915756  22.9417400
  64.6249313  46.2757225  23.0741634  64.4436035  47.7771912  23.0133266
   2.7680380  15.3772240  15.0566874   2.0609882  14.7485075  15.2016983
   2.7391188  15.5576830  14.1170969  17.5212955  61.6072502  33.8078842
  18.0292244  62.2865524  33.3642731  17.8987675  60.7844276  33.4968987
  52.0296516  51.1627197  22.3277664  52.2325020  50.9204216  21.4242325
  52.6259346  51.8860359  22.5214062  73.4183197   1.7938251  15.6576786
  72.4954071   1.7252198  15.9021206  73.5889435   1.0052328  15.1426630
  51.5421982  53.6653175   0.9402854  50.6684723  53.4213028   0.6348466
  51.3853226  54.1591492   1.7451153  19.2511845  50.1388550  64.2484589
  20.1141739  50.1941719  64.6588516  19.3583851  49.4913788  63.5516701
  26.6676712  21.1411552   8.1626730  26.1803665  21.7900772   8.6702814
  26.0675392  20.3997536   8.0826979  18.6067505  22.7514133  79.0654984
  17.9087372  22.9512520  78.4417419  18.7888374  21.8213234  78.9313049
  52.8086090  70.4120026  79.4766083  53.7367363  70.5309219  79.6782761
  52.4779396  71.2995529  79.3382339  79.5319977  39.8949738  66.7922058
  79.7727051  38.9685974  66.7813568  80.3687134  40.3597260  66.8041611
   0.6679779  33.5465355  67.7538300  -0.1424645  33.8302078  68.1768494
   1.3396047  33.6524620  68.4275742  15.9494305   3.8290145  52.8549538
  16.1028881   3.2871456  52.0809669  15.5329065   3.2380865  53.4822845
  19.8650055  64.4914856  35.6484985  20.1335526  64.2643356  34.7582664
  20.1662254  65.3922882  35.7670441  13.9231005  26.3256969   3.3861911
  14.8024111  26.5712452   3.6738527  13.9165716  25.3693275   3.4255302
  21.3811989  35.5515518  28.9178505  20.5045605  35.3335571  29.2344170
  21.3323421  36.4821587  28.6991825  41.6994209  69.9248581  86.5109711
  42.1837082  69.1641846  86.1899261  40.8579483  69.8822403  86.0567245
  24.7883224  35.9588737  10.6103859  24.2586613  36.6903305  10.2931089
  24.9005909  36.1321602  11.5450516  69.0142288  25.5035248  29.5218868
  68.8689728  25.8346691  28.6356144  69.9096985  25.7679996  29.7326279
  20.1753101  27.8394680  86.4412842  19.5449219  27.2831726  86.8988647
  20.5699844  28.3722210  87.1316757  42.0290871  63.3666649  86.5399246
  41.6987190  64.2034531  86.2129974  42.5692635  63.0271683  85.8263550
  41.6792336   4.4114227   9.3453979  42.4248428   4.9838648   9.1648159
  41.9852753   3.5367033   9.1057396  74.8498459  42.0637932  33.9732323
  75.2154388  41.2433243  33.6424637  75.2708893  42.1879120  34.8238487
  47.2754593  62.9459457  21.4074097  48.2047882  62.9146004  21.1802559
  47.2050629  62.4165001  22.2017403   8.8597317   4.1571732   1.1024437
   8.9062538   3.5619881   0.3542309   9.1541643   3.6308994   1.8457994
   2.9611032  70.2130890  64.5415115   2.9171379  69.2639160  64.6571503
   2.4311066  70.3843307  63.7630424  47.2946968  66.5711746   3.4362149
  47.2034340  66.8452530   2.5236442  47.0872726  67.3557434   3.9438162
  22.1121674  46.1347771  81.0002518  23.0688343  46.1029358  80.9975739
  21.8754635  46.1452904  81.9276581  71.8864822   0.3750687  69.5523529
  71.4821930   1.1090651  69.0897141  72.3378601  -0.1197048  68.8684845
  24.5441971  11.4117031   7.6489077  24.8258419  11.8456259   6.8435388
  24.1052361  10.6150274   7.3508253  36.9666939  52.5420837  13.4259710
  36.5250626  53.0135498  14.1323109  37.6958580  53.1104431  13.1779318
  33.0440292  66.4193802  85.8810806  32.2622528  66.7511520  85.4395065
  32.7752151  65.5742188  86.2411804  50.5883484  24.4428596  68.7361374
  50.1217728  23.7420387  69.1915359  50.4795761  25.2087421  69.2998962
  56.2797546  61.4121399  33.0438919  57.1953316  61.1635971  33.1710815
  55.9155006  61.4453888  33.9284554  63.4882431  57.8491440  21.9247017
  63.2870293  57.7663879  20.9925537  62.7197495  57.4902763  22.3683949
  83.4417114   5.7718401  39.7248039  83.3481522   4.8386340  39.9161263
  82.6506195   5.9963908  39.2349205  76.3267975  66.7845535  68.5245895
  76.1699448  65.8472137  68.4104691  76.8801880  66.8417053  69.3035126
  41.8065796  15.3335018  56.3217430  41.7477646  16.0913143  55.7399406
  41.2001228  15.5317230  57.0352936   6.2786503   5.3934059  42.4688568
   6.4327059   6.2427926  42.8824272   7.1527114   5.0198593  42.3561096
  24.6952248  59.9370155  81.5796890  23.8569183  59.9326286  81.1176758
  24.9888268  60.8469543  81.5345306   5.0628662  68.5916290  38.1155853
   4.6581216  68.8254395  37.2802734   4.5264573  69.0336685  38.7736893
  42.2149124  70.4430389  14.8150635  41.8487892  69.8332901  15.4556818
  42.5650063  69.8818741  14.1231432   3.0834186  13.6646910  45.1377411
   2.2835491  13.6436768  45.6630974   3.7278967  14.0947838  45.6997871
  64.2392807   3.3828166  22.5110149  63.5232849   2.7486641  22.5489197
  64.1532364   3.8897455  23.3183880  28.3159256   2.9594920  46.0437164
  27.4018211   2.7212851  45.8891144  28.6032543   3.3538096  45.2201920
  84.7087021  68.4422760  54.2503166  84.6421814  69.3943253  54.1767578
  85.4643555  68.2124863  53.7095642  80.7316895  26.9567604  36.0293999
  80.8354340  27.7238350  36.5924835  81.4523315  26.3778973  36.2780418
  73.7375565  60.4651489  73.9243546  74.0464554  61.1843414  74.4753342
  74.5259933  59.9601517  73.7254105  86.2102051  19.4637222  86.2894287
  86.4050217  20.2236958  86.8378067  86.9992065  18.9240398  86.3389740
  79.4985733   4.2130160  57.0733452  80.3159943   4.5878286  57.4013329
  78.8975449   4.2616019  57.8167381  29.9999752  41.1519051  75.2011337
  29.5043335  41.9638977  75.0951157  30.5739384  41.1199799  74.4357758
   0.7498789  23.1851368  66.8446198   0.4585365  24.0277939  67.1928787
   0.2242246  23.0577145  66.0548859  57.6603508  26.5470314  84.0581207
  57.1826172  25.9588089  84.6429291  58.4538193  26.0636044  83.8280411
  76.5013428  44.2860947  75.4661560  75.6950455  44.8000832  75.4222260
  76.2341919  43.4000664  75.2215729   9.2164078  50.5154037   7.7930198
   9.4984560  49.6637344   8.1266937   9.9390478  51.1065826   8.0040369
  80.4618835  61.1123466  58.1899376  81.1240082  60.6894226  57.6431770
  80.1310120  60.4109955  58.7510643  58.8985634   1.7122474  11.3108683
  59.6018105   1.1664000  10.9591246  59.3116760   2.2096934  12.0166426
  12.4234533  22.1341667  79.8260880  12.2714891  23.0459938  79.5776672
  11.8351698  21.6312485  79.2628555  11.7558708   1.5940850  72.1044846
  11.2652044   1.0444826  71.4934082  12.3086910   0.9801625  72.5879288
   3.9965024  64.7268066  15.4535179   3.8446734  64.0971222  14.7487669
   4.5833364  65.3785782  15.0700474  45.5398712  13.5458002  53.0500984
  45.1664467  13.1386681  52.2684135  45.0248566  14.3430414  53.1741867
  49.0757065  46.2539787  34.5243950  49.1580467  46.8768654  35.2465210
  48.2041512  46.4184456  34.1644325   7.1315122  39.9686012  32.7145615
   7.3552179  39.0817375  32.4323196   6.8180480  39.8622055  33.6127014
  78.9182053  58.8821220  44.9181900  77.9632874  58.8530693  44.8587570
  79.1901855  57.9666786  44.8532257  27.2579136  60.8632278  52.1462936
  27.1711445  61.7477875  51.7909622  26.5326405  60.3759117  51.7554817
   3.7633021  28.8840656  22.3991032   3.7975972  28.5924873  23.3101673
   3.6753230  28.0767593  21.8924007   5.4553518  14.7720146  80.4823380
   6.0417314  15.4361401  80.8447266   5.5254793  14.0342884  81.0882034
  63.0129814  22.1116772  54.0302696  62.2942543  21.6047287  54.4079819
  62.8789902  22.0492477  53.0845528  69.5369415   1.2394931  13.0977411
  69.6840668   0.8338377  12.2433233  68.6712952   0.9297231  13.3640766
  43.2554398  24.5736790  11.5576048  43.1610565  23.6789608  11.2307949
  42.3677559  24.8335609  11.8039961  25.6536350  54.4977531  77.0582352
  25.8596935  53.6079597  77.3446655  26.4346390  54.7837677  76.5844727
   3.5084772  32.1831894  56.8296776   3.3247552  32.8906860  56.2116737
   4.1280341  32.5637970  57.4521866  46.1516800   8.8351450  50.4012146
  45.4200706   8.3638182  50.0026779  45.7424469   9.5687199  50.8601570
  10.8535643  64.6980057  11.4070234  10.2399769  64.3177109  12.0356073
  10.4173107  64.6048965  10.5601196  39.7145844   5.4577608  49.6067047
  39.9759560   4.5481076  49.7497025  40.5174294   5.9615107  49.7405357
  43.6838303  60.5670052  51.1293983  44.2235870  59.9457054  50.6406479
  43.4782753  61.2551918  50.4966431  45.4289017  57.1782188  37.6696053
  45.0373459  57.6727638  36.9496460  46.0890808  56.6265297  37.2500381
  80.7082138  56.7216835  23.1439533  80.5494537  55.8168564  23.4128666
  81.3126144  56.6494637  22.4052296  76.4542084  18.7535172  61.4172897
  76.4500580  19.6562119  61.7356567  76.5290146  18.8352108  60.4665184
  14.5093222   6.4350286  35.6513939  15.3708115   6.0762792  35.4383965
  14.3291521   6.1163330  36.5358162  21.3991051  58.5485573  57.3024864
  20.5781994  58.2375603  57.6840973  21.2356281  59.4699020  57.1009140
   7.0934906  69.7593765  33.0514107   6.2306304  69.6905746  33.4600334
   7.6883416  69.3454895  33.6767769  61.0950012  14.9158115  43.8149948
  60.2469749  15.2405109  44.1177444  61.3762970  14.3073292  44.4982643
  34.5541267  15.6782017  47.7912102  35.5016937  15.7690468  47.6907425
  34.1906395  16.4319115  47.3264160  37.4868584   9.6505213  12.2647352
  37.5713158   9.2127466  11.4177103  37.5420113  10.5836401  12.0586290
  33.6877632  12.2780619  28.2027588  33.5105705  12.0294857  27.2955418
  34.2644348  13.0389814  28.1343422  58.3115044  67.4481583  32.7862091
  57.5857010  68.0636292  32.8893661  58.9920807  67.9528809  32.3409004
  29.9701824  19.5361633   5.4200864  29.6948528  19.6225071   4.5074143
  29.4361134  18.8204441   5.7646875   9.1286421  28.9857025  52.6582298
   8.2803164  29.4290485  52.6627121   9.2521315  28.7140770  51.7487259
  19.1611004  56.0917320  82.6692963  18.2973614  55.8558769  83.0077591
  19.7540474  55.9517632  83.4075775  85.4280701  54.6911011   6.3613496
  85.1630325  53.9911423   5.7646556  85.8771362  55.3251648   5.8023028
  65.7326660  48.1678543  20.0565453  66.0486374  47.5726967  20.7363873
  65.8074265  49.0386391  20.4468937  37.4807396  28.3526478  30.7846260
  38.0836067  28.9141045  31.2720184  37.8977585  27.4910851  30.7909107
  22.1928787  40.4007568   4.8547053  22.2786407  39.7293053   5.5314841
  22.4419994  39.9569206   4.0440397  36.2147675  -0.0978676  23.0604095
  36.8330307   0.5828043  22.7945690  36.0387917   0.0855753  23.9832382
  28.8808193  13.8598709   7.6256232  29.5715542  14.4245596   7.9723821
  28.2331409  14.4664812   7.2667780  14.7349968  63.2251129   9.2525501
  15.4768600  63.0233383   9.8227758  15.1344433  63.5529900   8.4468384
  81.9596863  69.8463058  73.6519241  82.4423828  70.1964264  72.9031525
  81.1404343  70.3412476  73.6614075  74.6529694  36.8011971  79.6704330
  75.2042542  37.4959106  80.0305634  73.7627335  37.1483383  79.7269287
  81.3724670  10.0170393  29.5528584  82.2588806   9.6939793  29.7145081
  80.8827896   9.2434092  29.2736778  41.5762253  60.6517410   6.1869931
  41.5371017  60.2718811   5.3092651  41.1715126  59.9929810   6.7513285
  83.9430161   1.8340151   8.7925959  83.7668762   0.9286630   8.5365791
  84.4385757   2.1982441   8.0591202  45.7462654  36.0912514  87.0555954
  44.9117241  36.1153412  87.5237732  45.5032578  36.1319199  86.1306458
  84.1443253  16.5147247  37.5596886  83.3163757  16.2626133  37.1508293
  83.9426651  17.3236618  38.0299911  74.3023834  60.3398094  65.1682663
  74.3483582  59.8876991  64.3258209  74.9143600  59.8635330  65.7294006
  47.6370850  11.6690445   5.6518369  47.7606087  11.4959650   4.7185540
  48.3288345  12.2924299   5.8734355  23.4215450  35.7762451  77.9787216
  23.8786983  36.1864548  77.2445755  24.0768204  35.2055550  78.3801651
  56.1701736  53.5574341  16.5020008  56.4840431  53.8070946  15.6328707
  55.7693100  54.3540230  16.8498383  20.2430248  19.4477119  22.0325279
  20.8899441  19.3404808  22.7298279  19.8023968  20.2719269  22.2392845
  48.1037369  62.3714294  39.6215286  47.3509178  62.7910881  39.2051315
  48.1114388  61.4837303  39.2635269   4.7574086  62.0782509  29.3277168
   4.3942962  62.1357040  28.4439297   4.5814595  62.9356728  29.7151527
  76.1933289  33.7473145  44.7374382  76.9338150  33.4739609  44.1959648
  76.4815979  33.5869713  45.6360054  81.0778427  39.6922607   9.9472446
  81.2666473  39.7738609  10.8820858  80.3363647  39.0884323   9.9044600
  62.2627716  13.6203241  74.2737808  62.3810081  12.6763678  74.1679535
  62.2079659  13.7501888  75.2205505   6.3057685  56.5622444  14.8592062
   6.6599665  57.0385513  15.6101446   6.7669415  56.9280167  14.1043816
  76.8321381  53.4013329  74.9976196  77.6375580  53.5282249  74.4961929
  76.3396454  54.2119637  74.8689194  52.9999161  35.1659279  25.7086163
  53.7264671  35.1342316  26.3309879  53.4209251  35.1703300  24.8489876
   6.4288197  52.2255020  39.2614594   6.1824841  53.1426277  39.3815842
   6.4496455  51.8650093  40.1479378   3.6849074  14.8648596   7.8599935
   3.6826515  15.7257948   8.2783451   3.8584735  15.0477257   6.9365940
  73.0304718  20.6535263  40.6798210  73.5350800  19.8472443  40.7870979
  72.2058258  20.4822788  41.1346359  83.1940994  17.9148273  59.8097839
  83.8560257  18.5998726  59.9035873  82.5113068  18.3137627  59.2704620
  25.4030132   9.8393707  25.0478115  24.8421783   9.3057413  24.4848423
  25.2585297  10.7369204  24.7482109  75.3596573   9.9515638  13.1381350
  76.0748215  10.2818756  12.5943804  75.2773895  10.5947361  13.8422594
  43.6385689  30.0967007  77.9647675  43.7560272  31.0272312  77.7735901
  43.8245697  30.0190887  78.9005051  68.7694855  18.8453827  79.8274307
  69.4617844  19.2025738  79.2712250  68.0613556  18.6305771  79.2202682
   2.8289773  49.0987816  34.0690308   3.3649008  49.6662407  33.5149498
   3.0309269  48.2121658  33.7701073  81.5785065  36.9331169  85.4011230
  80.7937622  36.4414902  85.6434402  81.2640991  37.8232231  85.2427063
  30.8728046  14.9199390  80.0415573  30.6076260  14.1898785  80.6009521
  31.4843636  14.5321779  79.4155655  60.1718636   6.2286086   6.1496825
  59.7990150   5.5579214   5.5774975  59.4691505   6.8696589   6.2568498
  35.8132439  63.4534340  18.5826759  35.3289223  62.7227631  18.9671021
  35.9875069  64.0392685  19.3193340  25.6490746  43.5014572  86.3171844
  25.0193996  43.4351425  87.0350647  26.4778690  43.7172012  86.7447205
   7.9951525  35.3109512  80.7032776   7.6187658  36.1425591  80.4151840
   7.4820666  35.0702744  81.4746704  81.8515625   5.3994942   9.8812828
  82.7805252   5.2130246  10.0172253  81.4017487   4.6127944  10.1895132
  18.7409496  67.7896957  43.8151321  17.9419518  68.1440201  44.2053757
  18.7575893  68.1546249  42.9303818  65.5262222  51.9274063  74.2956696
  65.7797012  51.6516228  75.1765366  65.0271606  52.7328873  74.4311981
  66.1245956   3.8549545  48.0729942  65.4911423   3.4875906  47.4565430
  66.0361938   3.3143077  48.8579292  79.9796295  62.2090797  85.8262100
  79.7015305  62.0487518  84.9244385  80.9188156  62.3816605  85.7601242
  81.1923904  38.1049385  37.1353188  81.5940475  38.9526787  37.3256874
  80.8220367  38.2068596  36.2585716   2.1576719  66.5928726  17.2461491
   1.6851544  66.3531418  16.4489727   3.0773261  66.4277802  17.0382710
   7.8935905  54.9881248  29.2573700   8.3835468  54.2827110  29.6799412
   7.0608196  55.0168953  29.7284298  20.2233353  29.4264278  30.1882515
  20.1152287  30.1468124  29.5672932  19.6098213  28.7563438  29.8868885
  53.0486107  50.8419113  60.8610611  53.3115730  50.0549469  60.3838043
  52.3620186  50.5424156  61.4569855  84.7240601  40.4168358  79.4428024
  84.0526657  41.0376091  79.1597824  84.2390289  39.6189423  79.6533737
   3.0458410  60.6689491   1.6143172   3.3440106  60.3954277   2.4817922
   3.8518729  60.8239708   1.1218617   6.5537210  28.3907337  69.6935654
   6.2406483  28.1638298  70.5691986   6.7971854  29.3142014  69.7580948
  70.4969177  13.9665661  45.9695473  70.3550568  13.0355568  46.1408005
  69.7542343  14.4027910  46.3871117   3.5634959  38.2231750  34.1966324
   3.4030819  37.5915947  33.4954834   2.8298981  38.1030502  34.7996521
  48.6096535  54.6366234  18.7544041  48.4235840  54.0260658  18.0410805
  48.2800865  54.1968880  19.5381470  61.2442818  27.4165688  16.3885040
  60.3817825  27.0265980  16.5307903  61.8506088  26.6767998  16.4251118
   0.1380122   7.3978429  84.4763260   0.8998144   7.6984863  84.9718094
   0.0824586   7.9995294  83.7339554  13.2216558  46.0411034  24.0362740
  12.5062294  46.3219719  23.4657383  13.9031010  46.7010574  23.9084930
  19.7712193  65.6854019  22.2196617  18.8863316  65.9827957  22.0080853
  19.9236088  66.0015106  23.1102161  65.6024857  26.8398647  70.4742355
  66.1018295  27.5777931  70.1244507  65.3324738  26.3451653  69.7005463
  44.9348221  55.6173973  17.2407188  44.3636017  56.3523712  17.4637737
  44.5407829  54.8651657  17.6824379  59.7467003  71.0674515  59.5345573
  59.7081909  70.8302231  58.6080170  58.9090118  71.4974136  59.7067299
  78.4490128   4.0342746  37.4608727  77.8320541   3.7524369  38.1362724
  79.0903625   3.3254321  37.4114952  43.9555206  12.3285627  50.5623474
  43.2800751  12.8082161  50.0828323  43.5931206  11.4493666  50.6714859
  27.5215359  69.3195419  79.0032959  27.4510708  70.2428055  79.2458954
  28.2308636  68.9816971  79.5500565  57.9939232  21.7591286  22.0023766
  58.0002441  22.5114975  22.5940971  58.6419296  21.1588898  22.3712082
  62.6256866  50.3456230  74.9931107  63.0595398  50.8536072  74.3075790
  61.8648300  49.9591026  74.5596008   1.1256236  43.4911652  49.5824089
   0.9794414  44.0044212  50.3770370   0.5374830  43.8796349  48.9347839
  64.3891144   7.9275041  45.1645203  64.1438446   7.0331316  44.9275131
  64.7645493   8.2931452  44.3635292   0.6304770  10.6511068  61.8624840
   1.2053783  10.5640392  62.6228371  -0.2098108  10.2989588  62.1559792
  76.3078995  21.3664932  24.9784355  76.2626038  20.5992851  25.5490227
  75.9217834  21.0740871  24.1528168  73.7352676  37.6964645  13.5338078
  73.7973251  38.4721794  14.0911665  72.8966064  37.7922974  13.0824766
  27.2963428  65.0749588  70.8482208  26.8348980  65.9100800  70.7715836
  27.4626102  64.8093033  69.9437866  53.5507393  26.4887829   3.4999635
  53.2397575  27.2758007   3.9473138  54.0963287  26.8188419   2.7860808
  85.2350388  17.6658974   0.8083551  85.3541565  17.9621773   1.7107197
  84.5086517  18.1938133   0.4768423  68.9697647  30.0252914  89.0696640
  69.1971588  30.4906979  88.2647247  68.0146408  29.9654121  89.0500412
  78.8516846  23.1225281  61.4271469  79.0568924  24.0521030  61.3270760
  79.4777374  22.8079052  62.0792999  44.8232727  18.3903446  21.0404301
  44.2274590  19.0765800  21.3409576  45.5295067  18.8625641  20.5994358
  50.0019951   5.9961963  38.1651878  50.3496513   6.5854230  37.4957237
  50.1012344   5.1214962  37.7893105  17.7748585  18.2975883  86.8535614
  16.9388065  18.2209930  87.3133240  18.3982105  17.8316040  87.4108047
  22.7577324  56.0665779  56.3447075  22.8891582  56.0335083  55.3971481
  22.6599770  56.9984131  56.5405731  22.5860214  69.1887207  48.9206467
  22.3115692  70.0839996  48.7221947  22.4931393  69.1147079  49.8704529
   6.0985103  65.1869049   1.7207066   6.9475145  64.8654480   2.0241740
   5.8948078  64.6434784   0.9595039  70.3223038  23.8845043  11.9626389
  70.6036835  23.2519207  12.6236191  70.8710327  24.6532745  12.1179342
  76.7120972  49.0658150  14.9021473  77.5440903  49.3741875  14.5430870
  76.9569702  48.5752831  15.6867781  14.3275013   0.8222209  20.0559406
  14.2154408   1.1983690  19.1829090  14.8690529   0.0457278  19.9144783
  78.2570038  21.5690441  41.0205193  78.1635056  21.0461731  41.8168221
  78.2846451  22.4743156  41.3302803  53.4387207  29.0556450  84.1505661
  53.6413383  28.1387959  83.9646454  52.9589500  29.3561859  83.3787308
  73.7139053  26.5711937  10.1386862  73.2684021  25.7768917   9.8439960
  74.3963547  26.2570114  10.7317982  77.3843994  17.4862423  75.6210785
  76.8028870  17.1033096  76.2779083  77.0326843  18.3639736  75.4723663
   3.3541043  71.4099350  87.8030090   3.4717717  70.5668640  88.2407379
   2.9908109  71.1862793  86.9461365  18.8570595   4.4178343   5.4140882
  18.0984974   4.4806790   5.9944901  19.5923748   4.7196398   5.9474335
   8.5686541   8.7413263  36.9539642   8.9596872   7.9149704  36.6703072
   8.8837652   9.3855057  36.3199539  37.5366020   7.4177690  22.2628250
  37.6036758   8.2719660  21.8361168  36.6401863   7.3867259  22.5970554
  39.6949425  69.0223770  79.7190933  39.6851845  69.9462128  79.9694138
  38.7965508  68.8392181  79.4441757  39.0821037  69.5848160  32.8021202
  38.6576576  69.5041656  33.6562691  38.6275711  70.3117676  32.3764839
  32.2768669  48.8094749  77.6185837  33.1717033  49.0948067  77.4339752
  32.3800888  48.0689659  78.2162628  46.6696625   2.2639046  36.1424522
  45.9649086   2.1874146  36.7856522  47.2308197   1.5069526  36.3108559
  78.0829315  19.4397926  15.4748125  77.1921539  19.5793247  15.1534462
  77.9779358  18.8551025  16.2253742  80.4315338  26.2420654  30.4943924
  80.6799164  26.8835545  29.8287868  80.5317764  26.7074871  31.3247948
  86.5108490  47.4797096  41.1234627  87.4654694  47.5290489  41.0734863
  86.2281494  47.3817635  40.2142181  60.8907013  18.3454723  73.2358093
  60.2877121  18.8595467  73.7727966  61.5810051  18.0762100  73.8417892
   9.5832891  27.1018925  34.2585793  10.2810011  26.7910957  34.8354988
   9.4919767  28.0305405  34.4719048  49.6046829  36.2066231  85.9394608
  49.0306282  35.5649681  85.5211716  50.4475060  35.7595100  86.0167465
  60.7238350   5.2344627  61.8954315  60.1719398   4.8334150  62.5668526
  61.3625908   4.5567551  61.6742172  45.3909340  40.4351387  27.1883125
  45.6260033  41.1702919  26.6221619  44.5088348  40.6427422  27.4965839
  37.3695679  67.6631393  50.9614220  37.2359276  68.2142029  51.7325897
  38.2278709  67.2624283  51.0992165  63.7080078  52.3476143  13.2402334
  63.5231628  51.7608719  12.5068884  63.8344650  51.7637520  13.9881268
  48.3006706  60.1140099   6.0610814  48.5545349  60.3612022   5.1718783
  48.9203529  60.5773125   6.6246195  86.6544266  55.3404236  45.9646225
  86.2512054  54.6492882  45.4392929  87.0380859  55.9369164  45.3217888
  62.4481544  45.6483154  24.1640263  62.6566658  45.7364120  23.2339745
  61.7846260  44.9591789  24.1964931  69.7328110  25.7495232  69.0074539
  70.4778671  26.0025215  68.4623642  70.1165619  25.2212753  69.7073975
  53.3349571  39.6668701   0.3331020  53.9061089  39.2304497  -0.2990001
  52.5436974  39.1285744   0.3524931  31.4476070  10.5031300  74.9865723
  30.8794384  11.2678871  75.0791168  32.2449455  10.7383013  75.4611053
  36.6800385  63.6642570  45.5869827  36.5364304  63.5709305  44.6452293
  35.8630104  64.0372086  45.9180527  71.2897491  71.1949921  79.7462921
  72.0433578  71.4210815  79.2011490  70.7072449  71.9512100  79.6752243
  71.6760025  42.1098557  88.2649384  71.5369797  42.9774017  87.8851089
  72.5387878  41.8444443  87.9465179   2.4837029  11.5523300  74.4731750
   1.5968626  11.3113432  74.2054596   2.9860497  11.5601330  73.6584244
  74.1876602   8.4713125  47.2424469  74.6613312   8.5338268  46.4130135
  74.0705643   7.5314817  47.3811493  40.0111732  32.0916710  78.6413879
  39.3837395  31.8295574  79.3150711  39.8646507  31.4745388  77.9245071
  31.5658436  40.4255028   4.0886521  31.9979725  41.2606354   4.2676816
  31.2565517  40.5044746   3.1862476  56.1619263  60.7648506  58.1518784
  56.1916618  60.5162506  59.0757561  56.5056305  60.0017624  57.6873360
  23.0789967   2.4379678  86.5722198  23.0802574   1.9974570  85.7224045
  22.2307816   2.2155709  86.9560242  42.4496269  50.7786522  71.1160355
  42.3149223  50.5545349  72.0368271  41.7994804  51.4580612  70.9373093
  16.3537483   9.7715979  46.5483170  16.6878204   9.8137922  45.6522980
  16.3852615  10.6765804  46.8585510  55.1471863  42.0994911  25.0449753
  55.6335182  42.9112663  25.1889687  54.8384552  42.1623611  24.1411152
  31.1015301  66.2312317  17.3025436  31.3085651  66.9146805  16.6651535
  30.2173843  66.4429321  17.6020470  17.6924286   7.8268228  76.3533859
  18.2005234   7.0202827  76.2664185  17.7000771   8.0146885  77.2919388
  66.6801605  71.5262985  46.9891586  66.3110046  70.6499329  46.8798714
  67.0269318  71.5305710  47.8813286  55.9442673  38.3372536  64.6727448
  55.0942650  37.9036789  64.5969925  56.4073677  38.0984306  63.8697929
  84.3509140   8.3355541  45.5009651  83.6377869   7.7754035  45.1945076
  84.3094635   8.2754555  46.4553795  18.5891685  56.1611595  65.3191681
  18.9937572  56.2650757  64.4579239  18.4028645  55.2245636  65.3848343
  63.7110443  34.3511696  14.0990105  64.2380447  34.9801331  13.6061544
  64.3394470  33.9049377  14.6666508  23.9526844  45.3035202   3.4511344
  23.3428841  46.0075874   3.6717439  23.8036499  44.6382790   4.1230550
  72.8593674  17.2820606  86.0216827  72.6423798  16.8299637  86.8370056
  73.4694748  17.9710541  86.2849121   6.6858077  68.2524261   6.3920755
   6.4208350  67.3862076   6.0827270   6.6835971  68.7985153   5.6059422
  52.3095474  42.1689720  34.2263031  52.5399590  42.2551498  35.1513519
  51.4963531  42.6655273  34.1347580  22.1425915  38.7497368  20.0522556
  21.6895561  39.5642776  19.8342781  22.9391308  39.0316582  20.5020084
  70.5888062  30.7422047  24.6072712  70.8547974  31.0219936  25.4831696
  70.4088440  29.8065643  24.6990509  58.4790192  47.7444611  38.1213264
  58.3628883  48.1990700  38.9556389  58.7681465  48.4265060  37.5151443
  62.9438782  18.5145607  49.0859108  62.5295258  19.2457676  49.5440369
  63.4024696  18.0305862  49.7727089   3.4348464  51.9007683  62.4365120
   3.8452060  51.7686691  61.5818863   2.4999354  51.7731972  62.2755814
  68.2396393  26.7903957  54.2950058  67.5442581  26.1438103  54.4158783
  69.0448837  26.2736702  54.2667618  86.4488449  21.6172199  32.8966522
  87.2267914  22.1549282  32.7486763  85.7803116  22.2378788  33.1866074
  77.4841156  50.6413231  10.1017246  78.1291275  50.4520912  10.7831821
  76.7442932  51.0254326  10.5722132  25.0333176   0.9976191  65.0102234
  25.9828777   0.8837878  64.9700928  24.6871357   0.3343090  64.4132233
  57.0712357  58.0587120  58.0492249  57.5376053  57.7570953  58.8288155
  57.1118164  57.3180046  57.4442978  86.2930679  70.9304962  23.9520264
  86.3551636  70.5286560  24.8185730  85.4787369  70.5855179  23.5858421
   8.9681416   4.5418606  85.0690002   8.0257254   4.4541855  85.2118225
   9.1128130   5.4853673  84.9975967  80.3481522  35.4756012  36.3783073
  80.4532318  36.4236450  36.4583511  81.2378235  35.1458359  36.2519150
   2.2267854   3.6129622  62.0420227   2.1226873   4.4772439  62.4400330
   3.1204047   3.6133058  61.6989822  21.5524960  26.1325016  81.0312500
  21.0558090  26.2695770  81.8379364  21.1242352  26.6967621  80.3874817
  72.5811615  54.4238472  57.8090515  72.9844437  55.0793266  57.2398949
  72.0714951  54.9341278  58.4384079  36.2649803   0.4715466  45.5435791
  36.8330650   0.4806478  44.7732353  36.8669624   0.3991029  46.2842560
  53.9087181   6.8943353  87.2192001  54.0145607   7.0793428  86.2860336
  52.9688148   6.7508917  87.3298340  67.1245728  40.0636711  37.3993340
  67.8439941  39.4463615  37.2666817  67.1783676  40.6584854  36.6513138
  86.9210587  15.7234697  21.7614307  86.0528793  16.0175343  22.0371475
  86.7882462  15.3801785  20.8778362  27.6683178  19.2762947  28.6357555
  27.1641159  19.5588055  27.8727360  28.1053352  20.0710545  28.9417019
  19.9014893   9.6668501  50.0400047  20.2835121  10.5440207  50.0106354
  20.2075691   9.2452955  49.2369881  42.6945343   5.1532397  51.5898857
  43.4815865   4.9096541  52.0771675  42.5302086   6.0626197  51.8393974
  34.7117004  63.1843719  59.9239006  34.2409554  63.9447136  59.5825539
  35.5600281  63.2093430  59.4812393  60.4988480  44.7122040  69.7675247
  60.7915878  45.5951195  69.5417023  60.6287041  44.2045975  68.9664536
   6.7718253  70.2206650  30.2495117   7.0393925  70.3478928  31.1597042
   6.7074633  69.2708969  30.1493130  76.0879593  70.8718796   5.1774092
  75.6198807  70.2196732   5.6987090  75.5771790  71.6744766   5.2831259
   8.1122971  32.4381676  80.5413361   8.9835596  32.8344879  80.5491104
   7.5352550  33.1344032  80.2274780  25.5350418  25.1406994  10.9116898
  25.9809227  25.0766811  11.7562742  26.0952854  25.7133980  10.3878822
  71.5967789  45.9340668  74.2902527  71.8043137  45.9446106  73.3558807
  71.4577637  46.8540344  74.5151215  67.7298584  68.8928299  77.8015594
  67.7910385  67.9873581  78.1058655  68.6368713  69.1535492  77.6415939
  17.0781059  46.3261795  26.8339005  16.5757656  45.8944664  27.5249214
  17.4043045  45.6085472  26.2909203  27.1831417  17.5773315  87.9350510
  26.9005852  18.1446323  88.6523743  27.1666527  18.1420383  87.1623459
  61.0162277  16.0925331  19.9693680  60.8882942  15.5797052  19.1713257
  60.2826424  15.8459988  20.5326691  13.4314413  65.2669144  14.7761774
  14.1151361  65.4885941  14.1439962  13.7820721  64.5156403  15.2545919
  85.5842133  57.0025635  23.4368896  85.3399963  56.0893135  23.5870934
  86.2065735  57.2021942  24.1362114  41.9913750  62.4229126   8.4969101
  41.9765778  62.1011391   7.5955362  42.8035126  62.0726662   8.8629551
  14.2125454  28.4641953  79.7512131  14.9977789  28.7917347  79.3126297
  14.3535557  28.6650696  80.6764145  24.6213074  31.6871338  54.1378403
  24.4226284  32.0913773  54.9824371  23.8386593  31.8409672  53.6086617
  20.8763752  20.4744949  73.9884949  20.9553242  19.8182716  74.6808624
  21.4282227  21.1995754  74.2816696   2.6638062   5.7703524  88.0898819
   1.9278297   5.1639161  88.0073929   2.3703580   6.5651278  87.6444016
  74.1069107  47.9356575  84.4753799  75.0569000  47.8774719  84.3735657
  73.8410339  48.6164627  83.8572769  55.6027031   3.6957719  76.6851807
  55.3725815   3.6835155  77.6142273  55.1977196   2.9055741  76.3276749
   0.3983591  45.3641663  45.9757957   1.3473996  45.4876099  45.9935417
   0.0612721  46.1581383  45.5608139  63.1900826  55.2648811  55.4597282
  62.4262009  55.8139839  55.2830734  63.7075272  55.7691841  56.0875511
  82.2037430  50.0735359  76.9641190  81.7527084  50.8342819  77.3302612
  81.5473785  49.6488495  76.4117966  67.3935623  55.8757095  81.3471146
  67.1216583  56.6808624  81.7876053  67.5826187  56.1463585  80.4486465
  43.4220619  38.9964180  82.9298630  42.7632828  38.3253326  82.7512970
  43.7909966  39.2042885  82.0714264  15.6171789  24.7174473  16.5478134
  16.3967571  24.4659824  17.0430450  15.8651781  24.5936527  15.6316252
  56.1242104  61.6988869   0.1454366  56.1241302  60.7732277   0.3891307
  55.8570175  62.1564484   0.9426032  58.0653648   7.8294573   4.0423708
  58.9939117   7.8946395   3.8192453  57.6206017   7.7572322   3.1978595
  50.4640732  57.2874413  44.3558388  51.1659698  57.8626976  44.6602249
  49.6905823  57.8503227  44.3224831  17.9310646  40.4591141  15.8894939
  17.3630562  39.6887741  15.8763275  17.3324013  41.1960716  16.0108509
  56.9852142  37.7347145  62.2838326  57.0519791  38.3422928  61.5472031
  56.7876587  36.8896065  61.8801003  69.4006958  68.3564911  31.9531517
  69.0656128  69.2449875  32.0736771  69.0568771  67.8673859  32.7006798
  16.6762409  19.3692780  54.1100426  16.9843922  18.5051441  53.8370094
  17.2318630  19.9840927  53.6309624  73.0949097  33.5620918  78.3032379
  73.4674911  33.6995239  77.4323044  73.8494873  33.3647995  78.8581543
   5.1785960  22.8455391  16.3167820   4.2584772  22.6338558  16.4742737
   5.5250826  22.0806503  15.8572989  14.8590956  71.0221710  25.7394924
  15.2366447  70.6973419  24.9220753  15.4238682  71.7531662  25.9903316
  23.7825108  17.4185619  40.9633369  23.4253044  16.5312595  40.9998093
  24.5663834  17.3839092  41.5115814  24.3591232  26.9243450   3.0195868
  23.7445927  26.8664551   2.2879908  25.0239906  26.2632751   2.8267872
  14.0648937  14.4685354  59.2179604  13.3851633  14.0337257  59.7328796
  14.3209620  13.8194866  58.5626793  27.5628910   0.8884329   1.6879849
  28.2606716   0.8929985   2.3432057  27.7553978   0.1287639   1.1383703
  65.2563705  64.3082199  21.5958862  65.8761978  63.9298820  20.9722614
  65.1017838  63.6107674  22.2329884  45.3223152  31.9033470  12.8735685
  44.5413895  31.4060898  13.1167259  45.2194977  32.0674820  11.9361677
   5.0323052  28.8180046  33.3776321   5.3961697  29.5576935  33.8641434
   4.6049795  28.2799473  34.0440521  24.7907715   3.5932627  69.6606979
  25.7470207   3.5697415  69.6251297  24.5509834   4.3657308  69.1488113
  14.5893888  41.1472321  89.0528717  14.8494091  41.3167000  88.1473923
  14.0297918  41.8885880  89.2841263  35.2462387   6.8528957  62.0686302
  35.1155548   5.9412742  62.3295860  35.9833031   6.8240962  61.4585991
  19.4169731  31.7305965  19.1314735  19.5800438  30.7916908  19.0415096
  20.2352486  32.0834007  19.4810219  29.3951359  69.2426987  54.1366577
  29.1087456  69.8574219  54.8121834  29.1612492  68.3811874  54.4820824
  58.1244125  29.2993698  59.9946022  57.1819954  29.2456799  60.1533623
  58.3293495  30.2302895  60.0818939  73.3073730  46.6975670  28.5128384
  73.9809265  46.7221031  27.8331661  72.4808502  46.6791458  28.0303993
  23.4576778  23.9503250  24.2224941  22.6204605  23.6918850  24.6078625
  23.9203377  23.1247330  24.0790501  68.5483398   9.2129641  13.5810852
  68.2535553   9.4257145  14.4665632  69.1668015   8.4923325  13.7012081
  69.9477997  31.7664680  51.3738937  70.8266144  31.3900928  51.3263702
  69.6237411  31.5099163  52.2372589  16.0985508  15.3912373  81.9410782
  15.7609758  15.6101398  82.8096161  15.6621542  16.0069828  81.3523178
   0.8828571  20.7108746  39.7579155   1.4168921  20.9685173  39.0064774
   1.3683151  19.9912529  40.1612854  72.7398834  41.3521271  83.2027054
  72.4600067  40.9440269  82.3833466  72.6515884  42.2920303  83.0445328
  44.2022247   5.4731913  88.6598587  45.0991096   5.2712159  88.3933258
  44.1789970   6.4283376  88.7180634  51.4215393   5.6590905  87.4173050
  51.3431129   4.7268348  87.6197357  51.2258720   5.7184157  86.4821930
   6.6139193  16.0274258  82.8305817   6.6907501  16.1757679  83.7730865
   6.7953782  15.0941782  82.7194290  44.1951180  70.5565796  52.0823097
  44.4653473  71.4387512  51.8274078  44.9135818  70.2337723  52.6262169
  71.4986343  29.8420391  48.3701248  70.7831497  30.4234467  48.1126823
  71.0792694  28.9927216  48.5080528  11.2357664  60.8158073  74.7011108
  11.1102161  59.8674927  74.6669312  10.3537636  61.1774559  74.6144485
  30.1397247  25.4354763  25.2922649  30.5408001  26.0892448  24.7195892
  30.7041531  25.4154968  26.0650883  51.1617279  37.8198814  33.5557022
  51.6274719  37.7907486  32.7199593  51.8432198  37.6862984  34.2144585
  51.3994217  43.2018547  78.3551941  51.9809990  42.5410995  77.9791565
  51.2454643  42.9032249  79.2514877  14.8330250  12.5046120  13.2647810
  15.0413799  12.1209345  12.4129524  13.9386501  12.2153339  13.4454556
  77.2157440  36.0308914  75.2433319  77.6416321  36.8748360  75.0929642
  76.9786682  36.0440865  76.1706085  85.0790482  47.2704239  69.2218170
  85.9805984  46.9679146  69.3310318  84.5456390  46.4869995  69.3558121
  28.4849911   1.3416426  48.2609940  28.7660084   1.6513559  47.3999863
  29.0410652   1.8157041  48.8792801  29.2982101  21.9287663   0.4844702
  29.4280491  21.7082233   1.4068228  28.7108078  21.2481728   0.1558616
  22.6409092  45.7197342  35.2062340  22.4782410  45.5955772  34.2711639
  21.7715340  45.6947403  35.6059761   3.8626037  24.8589573  81.1191940
   3.4000282  25.5155163  81.6399460   4.3554087  24.3478069  81.7611465
  11.6761913  23.3479691  83.8865128  12.5072451  23.8189030  83.9481735
  11.8919830  22.5416985  83.4179077  47.7435608   1.1416324  10.8434391
  46.8212051   0.9025596  10.9347620  47.9731789   0.8746984   9.9533529
  68.6486282  66.3984756  54.2383537  69.1003876  66.9395142  53.5907249
  67.7358704  66.6832581  54.1935730  14.5607262  21.8479939  76.1357727
  13.9005890  22.5344944  76.2315140  15.1402521  22.1677456  75.4442902
  76.1994629  18.4785900  29.7420998  76.9978790  18.2189960  30.2018471
  75.9024734  17.6790047  29.3077068  77.2934341   9.4019432  32.5327988
  77.7969666   8.7471113  33.0164108  77.4962616  10.2297659  32.9684601
  25.1327496  24.0910206  78.9985199  24.7847328  24.8430328  79.4776840
  25.8130093  23.7362633  79.5709076  31.2795734  40.4358940   1.2749095
  30.3511333  40.2116127   1.2122389  31.7186947  39.7972641   0.7131621
  69.5300217  45.8613777  23.9912262  70.1953201  45.3894615  23.4903240
  69.3015747  45.2667656  24.7057076  10.8417902   2.7397578  14.0146074
  11.0191088   2.4141328  13.1321354  11.5612097   3.3446100  14.1957722
  43.4889145  61.1409302  27.0194111  43.5645676  61.6467476  26.2103004
  43.2429237  60.2621841  26.7304077  44.3055000   7.3759813  71.4179688
  44.9141426   6.6401052  71.4833298  43.9226494   7.2932897  70.5445709
  15.8728132  60.0324135  48.2763100  15.8682384  59.9078712  47.3272591
  14.9812212  60.3107491  48.4856491  65.2385330  20.5559349  88.7173920
  64.3713913  20.9604664  88.7429810  65.7825470  21.1206055  89.2664108
  11.1953840  39.7975388  46.9783249  10.4494324  39.4714661  46.4748726
  10.8293180  40.0140839  47.8358421  69.4570465  19.9411068  82.3177109
  70.3008194  19.4982471  82.4080353  69.1204681  19.6450233  81.4719696
  58.8673248  60.7746658  33.7970047  59.5331650  60.8695564  34.4780960
  59.0702820  59.9380493  33.3785439   9.3427706   4.7109056  45.0435028
   9.5263958   4.2474322  45.8606339   8.8859253   5.5064120  45.3168030
  74.8426590  17.4117069  12.4291496  75.3232651  16.6305218  12.1552935
  74.6787567  17.8894005  11.6160221  31.3875961  25.6511364  77.2974625
  31.0538006  26.5364170  77.4426880  32.3072166  25.6959705  77.5592270
  67.1612930  47.8116570  24.2962933  67.9079819  47.4010735  23.8602829
  66.4082718  47.5760536  23.7543736  84.0932770  35.9989700  71.3637466
  84.0034332  36.9461174  71.2585297  84.9879227  35.8770866  71.6815338
  44.3118477   3.0760844  28.4212017  44.8187447   3.5375123  27.7530899
  43.3992348   3.2163234  28.1688061  17.5035248   6.5418491   3.8164649
  17.9299927   5.8450646   3.3176169  18.1459904   7.2511759   3.8345129
  30.1257343  17.3886089  14.5159063  29.7443886  17.2624588  15.3847523
  31.0392132  17.1199608  14.6139679  27.4700241   5.0128546  33.3810768
  27.2598877   5.2160435  34.2925529  28.3106213   4.5571117  33.4249382
  25.0789013  70.6088257  61.4454880  25.8952045  70.6428223  61.9442101
  24.4352093  70.2616653  62.0630417  11.5571795  21.0446320  74.0583038
  10.8270187  21.6626987  74.0913620  11.6725016  20.7614269  74.9653473
  71.0163422  10.2350616  33.1706085  70.1282043  10.3611193  33.5045929
  71.4487686   9.6999016  33.8360710  76.5828323  13.3558054  57.0393448
  76.8380280  12.5285187  57.4476395  77.3934174  13.8633423  56.9995651
  74.2519913  57.1149368  44.9803581  74.0251770  56.8998528  45.8850822
  73.6491394  56.5922775  44.4515648  43.9139938  59.9901657  21.1329994
  43.3945312  59.2064781  21.3125229  44.7619743  59.8139915  21.5405750
  19.4897366  52.2423553  17.0045052  19.9507866  51.5921135  16.4745541
  19.6776047  51.9911079  17.9088345   3.6630561  60.4501076  49.4532814
   4.5880780  60.6080971  49.6419754   3.4848206  60.9747581  48.6727676
  65.0900345  47.5170326  13.2328653  65.6900253  47.2775650  12.5265408
  64.2440643  47.1627083  12.9589624  30.2559090  39.5307541   6.1597815
  30.8176498  40.1102104   5.6450891  29.5757904  39.2504349   5.5473337
  70.3659592   6.1887121  15.9342546  69.7680130   6.0289683  16.6644440
  70.4106216   5.3508601  15.4735584  36.2861023  19.9923420  23.3829765
  36.5175896  20.8543835  23.0372486  35.4613571  20.1342163  23.8476295
  11.1161833  31.8576908  42.8871193  10.6958313  32.7145233  42.9604301
  11.8140526  31.9874344  42.2449532  76.8762512  67.6162796  52.0878983
  77.6990204  67.9149628  51.7005119  77.1145630  67.3399887  52.9728279
  18.1291046  53.5881233  64.7351761  18.4257965  53.0636177  63.9914703
  17.2770977  53.2173424  64.9650421   1.8089085  22.8906975  86.4031296
   1.6613520  23.2359447  85.5226440   0.9305133  22.7762241  86.7658310
  30.5803375  63.7440872  16.1247330  30.9444523  64.5316925  16.5288639
  29.7609978  64.0366058  15.7255535  55.7028236  11.6936407  36.6854401
  56.1874466  12.4712534  36.9623718  56.3115692  11.2218561  36.1170425
   6.5095758  29.9967766  44.0863571   7.1889086  29.8105278  44.7344704
   6.9292107  30.5899487  43.4632301  26.5426025  62.3599281  10.8512373
  25.9963093  62.5668488  11.6095104  27.3677559  62.0531731  11.2270765
  26.1753216  51.6987648  77.1875229  26.4221478  50.7870293  77.3425903
  26.4223766  51.8622971  76.2773285  24.3177929  24.5602818  74.7712250
  24.9754429  24.0046520  75.1895599  24.7137794  24.8138676  73.9374847
  64.5787125  68.6928406  65.2218552  64.0016251  67.9537659  65.4141159
  64.2205429  69.0741806  64.4202805  71.0160980  67.6127472  85.9312210
  71.5487595  68.1960983  85.3906631  70.5585175  67.0547867  85.3023148
  31.8446522  23.3631458  79.4374542  30.8901024  23.3767281  79.3675766
  32.1350594  24.0953426  78.8935928  33.6473732  27.7887001  75.7563629
  33.4534836  28.6293049  75.3416138  34.5879860  27.8191662  75.9311600
  48.9456711  53.6351280  63.5444717  49.8225403  53.2723427  63.6698494
  48.6533737  53.2716866  62.7085838  13.8390713  33.0908318  84.9375610
  14.5467796  33.1976929  85.5731430  13.7395649  32.1431351  84.8469849
  82.0795517  61.7818985   0.4124174  81.7955017  62.4050140   1.0812018
  81.3610001  61.1525078   0.3508447  45.2011375  54.4789925  60.2673149
  44.8585129  54.9357185  61.0355873  44.5420113  54.6242790  59.5885849
  71.0531921  37.5020752  83.4234695  70.5339737  37.6358681  82.6305313
  70.4143524  37.5306168  84.1357269  21.2224369  56.2086372   6.8327384
  20.9414406  55.7843666   6.0220194  21.5892010  57.0463600   6.5500011
  58.1191559  55.0882645  53.4141045  58.2259331  54.1378136  53.3757477
  58.9649315  55.4359093  53.1311874  68.7223129  52.1043663  87.0157623
  69.0856857  52.8091469  86.4795914  67.8032227  52.3436852  87.1350479
   1.7094738  38.7054253  29.7118053   1.5780096  39.6532440  29.6875153
   1.4015517  38.3989792  28.8588657  19.6256313  11.0636883  81.8362885
  20.3656807  11.6676931  81.7751465  18.9605618  11.4406853  81.2602768
   1.5979202  61.5836792  36.2926178   1.4206314  60.8007622  36.8140030
   1.2299089  61.3862648  35.4313240  76.4954834  24.0097294  51.0969543
  76.2398071  23.1735268  50.7075615  77.3594360  23.8440342  51.4742661
  53.0922737  63.9157448  16.9514465  53.4491234  63.0458984  17.1310387
  52.1666069  63.8478737  17.1854649  53.0335312  31.7428493  88.5607376
  52.8683853  31.4790592  87.6555481  53.2106018  30.9223557  89.0208130
  28.9281712  65.7699738  22.0704842  28.9458065  66.4564514  22.7373180
  29.6657906  65.9751282  21.4959736  69.6397171  46.2602844  83.7737427
  68.8376694  46.4835663  84.2460785  70.3458176  46.5701790  84.3408508
  83.5664520  56.3049507  82.6423950  83.8344269  55.5054550  82.1893768
  82.6657791  56.4531288  82.3541794  10.8269691  42.9896126  25.6171322
  11.7746706  42.9825630  25.7514629  10.4618034  42.7744904  26.4753914
  83.5830078  34.7429581  40.9446259  83.3775177  33.9157524  40.5090370
  84.4412994  34.9886856  40.5993958   0.7060114  39.3236237  23.2137489
   0.7216659  38.7846260  22.4228840   0.5685758  40.2150803  22.8933601
   7.0083876  45.4712296  10.0653706   7.8950114  45.1182632  10.1398430
   7.0440888  46.3081589  10.5285168  66.5426636  26.5504055  74.9079742
  66.9534988  25.8875465  74.3529358  67.2112885  26.7663860  75.5579910
  50.0719223  25.2956505  81.9535294  49.5824394  26.0754795  82.2152634
  50.7686005  25.6287823  81.3879395  61.6481934  32.1640205  38.1175842
  61.8555222  31.5939140  38.8580055  61.8126106  33.0489578  38.4432869
  36.0297241  51.1984634  74.5744781  36.1391449  52.0632057  74.9700546
  35.4362984  50.7372704  75.1672440  82.9297409   7.3055863  19.1240997
  82.5010223   7.6837039  18.3563404  83.7491608   7.7936034  19.2054844
   3.9111898  26.1677837  21.3514290   4.3229251  25.6353283  22.0320148
   2.9764347  26.1357250  21.5549908   4.4788270  45.8383141   3.0284619
   3.7588046  45.8660164   3.6585667   4.3371983  46.6021194   2.4691973
  10.5493975  22.1202927  22.7774639  10.5516386  22.5374470  21.9159489
  11.3590622  22.4199982  23.1908054  24.7609539  57.7321930  36.1065216
  24.2673721  58.3262978  36.6718979  24.1523781  57.0169563  35.9213028
  30.9262028  35.8530159  20.0733528  31.2391109  36.7326088  19.8620815
  30.8516979  35.4152069  19.2254105  31.1561317  51.3247528   4.8129959
  30.6611576  51.8111534   4.1537180  31.1214066  50.4154701   4.5159631
  22.5198517  12.7976847  39.5166168  22.1065254  13.5822687  39.1563110
  22.5228424  12.1737127  38.7907524  85.1996918  25.3405476  86.0313416
  84.4904938  25.7316971  85.5211716  84.9922256  24.4063473  86.0528564
  57.6860771  63.0918579  73.3328018  58.2279205  62.7663498  72.6139984
  57.2690697  62.3087349  73.6920395  23.4790440   4.7187181  31.8652878
  23.1638737   4.5970092  30.9696941  22.7532711   5.1479197  32.3183556
  62.6208420  20.8345737  81.1249542  63.1874123  20.2127895  81.5816956
  62.5329933  20.4748554  80.2422791  68.6604080  16.1099911  80.8196640
  67.7032852  16.1219540  80.8206253  68.9107895  16.9984303  80.5662460
  68.2636948  62.6242638  38.0022926  68.0947571  63.1913795  37.2499199
  68.1539459  61.7362404  37.6622887  31.4727783  39.0888329  87.5242004
  31.8894749  39.8997879  87.2327423  30.7150993  38.9883461  86.9479523
  23.0187473  32.7638588   0.0480613  23.7389069  32.1335831   0.0668220
  23.4411182  33.6138916   0.1716796  30.1254654  -0.0391275  28.1854267
  29.4503193  -0.3713623  27.5937939  29.7252579   0.7248704  28.6006050
  37.3062706  15.5186977  35.5747604  37.1946602  16.2944813  35.0252762
  37.3890724  15.8645458  36.4634476  51.5132980   2.9447980  86.4644623
  52.1671524   3.3282990  85.8799591  51.9944153   2.2821803  86.9601364
  24.4836025   3.9954748  78.7477646  23.8487797   4.7031651  78.8591537
  23.9508057   3.2021139  78.6935577  64.9444275  14.8738785  42.2937622
  64.0842819  15.2794857  42.1848564  64.9535522  14.1575394  41.6589355
  52.3237457   9.7803793  26.9218960  52.5063286   9.6217012  25.9957657
  53.1774750   9.9867916  27.3023853  59.5063019  57.4699860  87.6860199
  59.1034279  58.3292580  87.5612030  59.5429420  57.0926819  86.8070831
  42.3602638  25.5212688  26.3601913  41.4590912  25.3009243  26.1244602
  42.4019051  26.4744110  26.2826176   1.7919878   3.0682714  86.8094254
   0.9379911   2.8768165  86.4217834   2.4162540   2.5952392  86.2591858
  41.9508934  70.6929855  76.6247940  41.5836525  69.9212799  76.1937103
  42.1090622  70.4114456  77.5258713  85.2703094  27.9218769   7.4318523
  85.3824310  28.8388424   7.6825218  84.6719208  27.5655174   8.0884895
  59.1234245  61.2101479  17.8803768  59.5984039  61.3616791  18.6974831
  58.5198402  61.9500427  17.8134480  23.7192173  70.0377884  63.8119507
  23.9413776  69.1146469  63.6907349  23.0821991  70.0390167  64.5263977
  32.3041115   2.5204163  12.2968225  31.5092964   2.7932160  11.8384762
  31.9938087   1.9312427  12.9844408  28.6605148  57.4395256  44.9632416
  29.0819016  56.5820923  44.9043350  29.3649902  58.0356636  45.2173386
   8.8151464  61.7512932  74.1619720   8.5282764  62.1141624  73.3239594
   8.1190796  61.1430244  74.4104385  10.1322689  47.8490791  55.7447281
  10.1147175  47.6955299  56.6893692  10.5030069  47.0462074  55.3784142
  62.3815994   4.5536003  71.0903091  61.9839630   3.7479866  70.7599945
  62.1676254   4.5612712  72.0232544  68.6720886  13.3425360  66.2304535
  68.5725479  14.1386194  65.7083664  67.7957840  12.9579096  66.2501602
   6.3015337  65.4467239  25.5549564   6.0015011  65.5428696  24.6510925
   5.9025497  66.1825333  26.0193100  39.5270729  15.5093679  26.1142483
  40.3406105  16.0032787  26.2164211  39.2284966  15.7200079  25.2295361
  48.0948601   7.9143238  60.2689400  49.0026131   7.8086462  60.5536270
  48.1052170   7.6756763  59.3420219   5.2531290  60.2512665  26.0092983
   5.7071552  61.0601425  26.2455387   4.4243536  60.5437813  25.6300926
  61.0161362  52.1976013   7.8174095  60.1687813  52.1010208   7.3827868
  60.8047943  52.2264099   8.7505417  71.0618210  47.6193428  69.4202805
  70.4460602  47.8439636  68.7227020  71.2612381  48.4551582  69.8420410
  54.6381264  13.5255575  69.8484879  53.8501320  14.0079918  70.0985947
  54.3491783  12.9421721  69.1467743  50.6497002  27.8098907   8.3060751
  51.4662247  27.8993187   8.7975283  50.4530487  28.6969357   8.0048943
  63.8981934  56.2082901  27.3980465  64.1664429  55.3011703  27.2517357
  64.6721802  56.7257576  27.1757679  56.2586861  60.3050537  72.4620056
  56.9728317  60.2492867  71.8270874  56.3951340  59.5561752  73.0423431
   6.6689224  56.0836449  63.7072258   6.0251694  55.5798759  63.2092018
   7.1892266  56.5325737  63.0409088  49.3657112   2.3108203  16.6711349
  49.6473427   1.4601923  16.3344631  49.9724770   2.4977095  17.3874722
  75.0410156  27.7543201  45.8450623  74.3612900  28.4157810  45.7159691
  74.5829544  26.9189472  45.7525520  75.8714142  32.1354218  62.4191322
  75.1715622  32.1792221  63.0706825  76.6281662  31.8037491  62.9024086
  57.8344154   5.4704700  86.0849457  57.7785988   6.3418212  86.4772034
  57.1693802   4.9578753  86.5445175   2.7281270  31.5934753  26.1033783
   3.6391196  31.3032074  26.0578957   2.2210596  30.8387871  25.8041153
  81.2259064  66.9605331  53.9612617  81.7595901  67.5498428  53.4282265
  81.1745453  67.3902588  54.8150368  40.4542999   2.1408541  88.0017242
  40.7728195   2.8498466  88.5603867  41.1053810   2.0754631  87.3031235
  17.5436993  29.2055836  58.2528763  17.8867435  30.0548534  58.5308914
  16.5931873  29.3184929  58.2561798  34.5170670  61.7303848  33.7799187
  33.7376442  62.1320915  34.1638031  34.4820938  61.9754257  32.8552780
  47.3569183  65.2514191  86.3023987  47.3535156  65.7390976  87.1260376
  47.7279015  65.8611374  85.6645584  68.3021927  24.3728256  44.2363625
  67.6974030  25.1147480  44.2399940  68.5752029  24.2908344  43.3225937
  54.6958427  52.8663597  86.8191147  54.7062225  52.9448891  87.7730331
  55.6120911  52.7259254  86.5803680  50.7177734  54.2012482  50.5903893
  50.3674202  54.4607162  49.7382393  50.0412216  53.6378746  50.9660454
  59.2423973  35.0677223  82.6359329  59.0330391  34.5135880  83.3878174
  58.3907547  35.3452492  82.2984238  73.4200058  29.2252102  17.1978664
  74.2652893  29.4500523  16.8090572  73.0314484  30.0685139  17.4304447
  44.7693176  67.1417618  10.7554398  44.9433365  66.8703232  11.6567011
  45.0274734  66.3884277  10.2243319  24.7145214   4.1897564   2.9138680
  25.4592342   4.6691976   2.5508664  24.0572319   4.2058287   2.2182069
  13.8667440  26.0538864  11.0693102  13.2418537  25.5961990  10.5069351
  13.6549215  25.7567005  11.9542084  74.8883362  27.9540558  38.6422386
  74.2000656  28.5805836  38.4186821  74.8251724  27.2780056  37.9675560
  35.6710358  42.4096680   5.9415245  36.0058594  41.5265656   5.7857857
  34.9115105  42.2811050   6.5097032  62.3136406  32.8159637  21.5223408
  62.7545166  33.3657227  20.8745518  62.6581039  33.1144905  22.3640404
  46.6006012  69.0715485   4.3865156  46.1899033  69.3759079   5.1957898
  46.8090744  69.8735504   3.9073949  40.9151154  21.0005322  76.2017288
  40.9426041  20.1216621  75.8234940  41.8098412  21.3283806  76.1110916
  46.1731644  61.3902969  62.9107361  46.9208832  60.8999367  62.5691299
  45.4950790  60.7286644  63.0473938  20.9574528   6.5827875  41.4873085
  20.2556648   7.2194538  41.3517303  21.3469048   6.4674110  40.6205597
  16.8723545  44.8027153  17.7595081  16.5532990  45.6647110  18.0267200
  17.6985779  44.6964111  18.2309799  47.1040573  26.3504581  87.0149231
  47.7272377  26.2821217  86.2915955  46.4241371  25.7097168  86.8066330
  43.8335648  67.7874680  25.6780624  43.9028893  68.4183807  26.3945637
  43.3358917  67.0584030  26.0482178   2.8478746  24.2908382  88.6162338
   3.7740898  24.0494556  88.6066589   2.4526918  23.7514305  87.9313278
  51.1749878  69.9202881  84.0059052  51.3590012  69.3363724  83.2700958
  50.8409538  69.3427429  84.6922684  84.3065643   5.5383325  20.2806931
  83.6917877   6.2038746  19.9719257  83.8819962   4.7057400  20.0739021
  79.4742813  64.5819855  24.6867142  80.2806473  65.0945206  24.6291523
  78.9584808  64.8612289  23.9302750  62.9099274  57.7985611  65.2692413
  63.2817230  58.6166878  65.5988922  63.6154175  57.4044266  64.7562408
  55.6558151  21.3126564   8.2657280  54.7929039  21.1182728   7.8998938
  55.7784843  22.2484035   8.1058531  37.7093239   0.7324880  43.4846649
  38.5158005   0.9066190  42.9993782  37.1165390   1.4377778  43.2250404
  23.5962067   6.4802661  72.6767197  22.9820652   5.8399210  72.3175201
  23.3573360   6.5488677  73.6010971  17.5716209  24.1683159  42.5361137
  17.8866177  24.5039005  41.6968346  16.8238716  23.6160622  42.3078156
  69.3379440  68.2571030  40.0992661  68.9196472  67.4290695  40.3351326
  70.0897446  68.0018768  39.5645828  48.2824821  66.1300812  27.2932091
  47.3766708  65.8281860  27.3610134  48.5625725  65.8531494  26.4208031
   5.9609756  16.4238281  48.5156822   6.7478476  16.0244026  48.1448402
   6.2898860  17.1334820  49.0674438  18.5289497   7.5278316  36.6532860
  18.4784584   8.0827751  37.4315643  19.4635220   7.3514924  36.5450783
  77.3653870   1.6872649  34.0522346  76.7950668   0.9231294  34.1362648
  76.8402481   2.4156845  34.3836975  79.0036316   3.7696412  52.8040733
  78.7450562   3.8861334  51.8898544  79.0279465   2.8206851  52.9270515
  41.1314583  19.4989815   5.1129651  41.2680664  18.8928928   4.3847995
  40.2390594  19.8229046   4.9907737  30.9743118  62.5086441  83.5106964
  30.5302849  62.0491791  82.7979813  31.8564053  62.6725807  83.1771317
  74.9723816  70.7835464  29.6267529  75.4341202  70.0274353  29.2643757
  75.6609802  71.4269867  29.7942581  50.4540367  42.7796211  69.5516129
  49.5703888  43.1460800  69.5848694  51.0123634  43.5214386  69.3187790
  55.9283028   5.2337079  88.1579361  55.4930801   4.7505107  88.8603134
  55.3106499   5.9271598  87.9258575  51.4896011  63.8189049  29.8165112
  52.1893234  63.2882423  30.1973248  51.6897621  63.8433762  28.8807926
  62.8340607  70.6147003  33.5674400  63.5065765  70.1676559  34.0813522
  62.6129265  71.3892822  34.0845070  67.3621445  21.0938644  40.6464310
  67.9480591  20.3829899  40.3864479  66.9079437  21.3370457  39.8397141
  66.4551239  30.4146614  76.9447784  67.1106796  30.2855511  77.6302109
  66.1806183  29.5292816  76.7060699  76.5829926  32.2609253   9.9215088
  76.6976624  31.5802364   9.2583742  76.6316986  31.7935333  10.7554178
  12.1264715  69.9543991  69.5759277  11.7660236  70.7199631  70.0233765
  12.0553751  69.2469177  70.2167435  -0.0508822  23.8826008  38.1050949
   0.6666961  23.2590389  37.9933662  -0.4063163  23.6859417  38.9718246
  28.1291676  14.4649487   2.7929361  28.8181229  14.5040264   3.4562943
  28.3659000  15.1442213   2.1614475  62.0136070  11.5705671  34.3111534
  62.8442917  11.9517727  34.5955467  61.7898979  12.0512114  33.5141792
  34.8276711   4.9090981  37.9486465  35.6212769   5.2490258  38.3620110
  34.4443703   5.6667976  37.5068283  31.0351658  23.4889812  18.2675571
  31.4751892  22.9016666  17.6530056  30.1131268  23.2359562  18.2222347
  59.8157692  23.1488552  29.8086624  60.6216431  22.7482414  30.1347084
  60.1139641  23.8353424  29.2119656  12.6228466  10.3189850  89.2249680
  12.1777153  10.7245779  88.4809341  13.0743380   9.5625143  88.8506088
  40.9940529  62.3825951  42.3680878  40.4186554  61.9836655  41.7153931
  40.5540390  63.1978188  42.6089783   5.0645442   1.7485182  14.2029572
   4.5863352   2.5038788  13.8609371   5.1920090   1.9458581  15.1308804
  50.9837952  62.4006577  49.2124672  50.5466995  62.6641502  50.0222511
  50.6172714  61.5394974  49.0117264  22.0280724   0.1076627  48.2376785
  22.8472996   0.1692744  47.7464561  21.8290501   1.0104918  48.4857140
  48.6011467  52.7681732  20.8805943  49.4083481  52.8317566  20.3700905
  48.7274323  53.3802605  21.6056004  52.9258919  35.0595398  13.2745047
  52.6543846  35.9666481  13.4147587  52.4656792  34.7920609  12.4789619
  19.1813698  44.6027718  23.5192795  19.7596912  44.2983208  22.8199348
  18.2996483  44.4024010  23.2051945  36.2831802   7.5250916  41.0482712
  35.6897278   6.8943644  41.4559822  35.7068024   8.2036428  40.6967163
   2.0482669  44.7520294  53.3252907   2.0524395  45.5550461  53.8462334
   2.2621074  44.0596809  53.9507179   4.7159505  29.7870598  83.5851212
   5.2101750  28.9809361  83.4363251   3.8061519  29.4995613  83.6615601
  27.3892155  13.6637859  78.2724304  27.7018471  12.8414812  78.6496735
  27.7910118  14.3435497  78.8134613   4.1616278  40.9998779   1.4585123
   3.7935946  40.9370651   2.3398964   3.9928071  41.9036865   1.1923165
  83.7041245   4.1444569   3.7497125  84.5028229   4.5510654   4.0858374
  83.9686890   3.2550097   3.5149374  23.7653084  54.9352303  81.0138702
  23.7363758  55.7540016  80.5188828  22.8807678  54.5775604  80.9371033
  53.8356819  41.1798706   2.5865583  54.7641220  41.1003113   2.8054187
  53.7667770  40.8222618   1.7013475  55.4048958   0.7461594  79.4532013
  55.2008629   1.3812853  78.7667542  56.1573563   0.2609763  79.1146240
  66.2823868  22.1395588  27.8274612  66.9725342  22.5742970  28.3283920
  66.3753967  21.2123699  28.0463200  26.5812225  25.4113369  26.7140770
  26.8831825  25.6118298  27.5999985  26.6399784  26.2446003  26.2466908
  30.6350002  60.0106812  27.5900879  30.3743706  60.8105278  27.1334152
  31.5889473  60.0666084  27.6456413  24.2582474   5.2535410  59.8285255
  25.1009102   4.8267932  59.9835625  24.3989639   5.7836194  59.0440216
  64.5962143  55.1312752  52.7817383  63.9519348  55.0048676  53.4782715
  65.2187500  55.7623138  53.1429520   7.6506457  46.7637253  73.4534760
   7.8429041  46.7069740  72.5175018   8.4592800  47.0945930  73.8444595
  21.3232212  36.4852905  79.6707916  21.3530979  37.3912659  79.9782867
  22.0066376  36.4365730  79.0023575  21.9034615  66.3729782  82.6393967
  22.2590275  67.1815491  83.0082016  21.5545578  66.6319046  81.7864838
  48.1808128  10.5925779  86.7145615  47.6885567   9.7718248  86.7312927
  49.0441628  10.3473196  86.3818283  76.5144119  46.3077011  54.8046684
  75.7130966  46.6536064  55.1976852  77.0003433  45.9348373  55.5402489
  59.4965897  22.8994694  73.8895874  59.7613335  23.3579102  73.0921097
  60.2904968  22.8696632  74.4234924  35.4227371  24.0701809  34.3912392
  35.7237778  23.1641998  34.4605446  34.4689674  24.0105000  34.4459457
  16.4826832  56.1536598  76.2025681  16.0220032  55.5906525  76.8246765
  17.0084591  56.7362556  76.7506332  28.1629658  33.2368126  77.4062042
  28.0830879  32.2875252  77.4994888  28.6497555  33.5136490  78.1824951
  16.5623875  42.2781334   1.4933815  17.2969532  42.4715500   0.9109427
  16.2353458  41.4301834   1.1929528  56.8096390  45.1233749  33.2997551
  57.7394180  45.2580528  33.1164322  56.5034904  45.9715881  33.6207504
  27.4190369   3.0723884   7.5588412  27.6279144   2.4858098   6.8318424
  26.8196144   3.7166252   7.1821680  51.6268616  60.5293427  71.9527969
  52.3910942  60.8851624  71.4994049  51.0455170  61.2809486  72.0683975
  34.4815674   9.5824881  15.9684401  34.9383278   9.1946249  15.2220078
  33.5601692   9.5875082  15.7091455  71.7959671  31.0281601  67.7372513
  71.8383408  31.3214855  68.6474152  72.6980972  31.0902805  67.4233475
  22.3094444  26.4181099   0.9465042  22.3824425  26.0400047   0.0701825
  21.3687840  26.4338188   1.1229857  22.6765041  64.3191605  86.2593307
  22.7557373  64.2243729  85.3101349  21.8429585  64.7723541  86.3860245
  51.7157593  62.3812752  37.2719193  51.2800064  62.0318832  36.4945641
  51.4635239  63.3043976  37.2933235   8.6735630  67.1697769  83.6696625
   9.5881214  67.0459061  83.9235764   8.6076813  68.1010361  83.4583664
   5.0555038  25.1463337  44.6883278   5.3889885  24.2581196  44.5614700
   5.6404061  25.6982059  44.1691360  21.2767944  62.9215431  81.5546799
  20.9195004  62.4926872  82.3322754  22.1198521  63.2729530  81.8410263
  53.9240532  26.3008137  83.4385376  54.2978439  25.9068298  84.2267609
  54.6010094  26.1895218  82.7710266   9.6903095  21.7784348  52.8241539
   8.8617067  22.0705185  52.4442406   9.4554863  21.4619999  53.6964836
  65.9726486  21.5918407  25.0611572  65.8593979  21.6891613  26.0066395
  65.3058090  22.1630478  24.6800060   4.8096104  33.4062729  61.3591537
   4.1803856  34.1104469  61.2028046   5.5459485  33.6106796  60.7827377
  80.9692841  21.3078270  43.4129066  81.0638885  21.1777821  44.3564987
  80.1861420  20.8092690  43.1797447  72.6406250   0.0314069  28.7399731
  73.0624237   0.5002254  28.0198879  73.3630676  -0.2322367  29.3098869
  28.1360893  23.7151470  25.0556221  27.4405460  24.1079311  25.5830421
  28.8649349  24.3320045  25.1227245  13.4557962  60.9379272  18.1028690
  14.0562391  61.6063461  18.4328976  13.7837896  60.1179848  18.4721184
  10.9609699  61.5083733  40.2798233  11.1617537  60.6278458  40.5969810
  11.6622696  61.7049370  39.6587181  42.0529518   4.2416492   0.4140672
  42.8831024   4.6110258   0.1129950  41.4451256   4.9810562   0.4067344
  27.1818504   3.4245806   0.4964758  27.0710735   2.6860647   1.0952700
  26.5739956   3.2446802  -0.2207267   8.2968664  58.1954536  48.1704292
   8.2281876  59.1454887  48.2650185   7.7658300  57.9924202  47.4003563
  11.4097795   9.0511665  19.5342636  10.8777170   9.8302355  19.3724251
  10.7924528   8.4075012  19.8818779  58.5816612   1.8224696  18.7782078
  57.7175636   2.2324259  18.7394466  59.0297661   2.2752924  19.4926205
   8.5024109   4.7298765   8.3830366   8.3897514   5.4585552   8.9934196
   7.9952779   4.0148406   8.7674475  50.0412598  43.8267822  72.4431458
  50.0313530  44.2731476  71.5964508  50.2175102  42.9106712  72.2288895
  74.3108521   8.5624208  23.5762386  74.7269974   8.8100147  24.4019241
  73.5276947   8.0785122  23.8383942  27.7234669  47.7635841  17.3306446
  28.2095318  48.5845299  17.4082737  27.3324604  47.6341209  18.1946945
   2.0013344  44.8124199   7.3225985   2.9411552  44.7235985   7.4809632
   1.8484749  45.7572784   7.3120117  81.3439636  47.8555450  23.9163456
  81.6893463  47.3603706  24.6591434  81.4141922  48.7714081  24.1855907
  55.9226799  21.6824684  58.8453407  55.7443657  21.3062172  57.9834404
  56.4280891  21.0091038  59.3007240   4.5135360  19.2844257  19.5245075
   4.1742058  20.1793823  19.5126171   5.2168746  19.2863083  18.8752422
  50.0476494  62.7871437  72.2430801  49.3658524  62.9104767  72.9035110
  49.6216583  63.0082016  71.4148941  14.0633841  48.6946144  65.2764511
  13.8898468  49.5188560  64.8217621  15.0093012  48.5716553  65.1967468
  21.9995136  48.3196640  73.7110825  21.3685665  48.1081047  74.3991089
  22.8332920  47.9825745  74.0388260  41.4438972   5.9661279  44.5347519
  41.0364952   5.5314631  43.7855377  42.2105026   5.4292026  44.7353973
  17.4075069  13.7787752  19.0589943  16.4534740  13.8364716  19.1111984
  17.7010231  13.8358831  19.9682903   7.5479555  68.2460480  72.1341171
   8.1053524  69.0070953  71.9718018   6.8083787  68.5928955  72.6330719
  52.4109497  15.3377104  69.8660202  52.6134911  16.2727776  69.8367538
  51.8620186  15.2357683  70.6435242  49.9259987  28.8843994  10.8773460
  50.1499176  28.6806183   9.9692907  49.6757736  28.0421505  11.2571297
  70.4630814   2.4535687  68.0827942  69.9027481   3.2165940  67.9411697
  71.2539368   2.6399560  67.5767899  68.8705215  22.8159695  26.1364784
  68.1222992  22.2478542  26.3199005  68.8858643  22.8912563  25.1823673
  51.8566437   0.9120514  61.3004303  51.0743141   1.1650525  61.7905121
  52.1818275   0.1340245  61.7533760  69.6529617  59.5664597  75.8436279
  69.2070236  59.9400826  75.0835114  69.1589966  58.7714958  76.0442810
  22.9333153   1.0755851  44.2876892  23.2275066   1.4995257  43.4814911
  22.1988411   1.6119839  44.5861130  79.0582047  21.3151283  21.4652634
  80.0057831  21.3571587  21.3365650  78.9454269  21.3135777  22.4157963
  17.8588924  67.9194717  72.3994675  17.4385090  68.6549988  71.9539185
  17.2566738  67.6928711  73.1081390  60.4617157  35.5746536  77.2745895
  60.5347023  34.8231964  77.8629913  61.2290154  35.5091248  76.7060928
  16.9595890   7.7634196  73.4594498  17.6394176   8.0654507  74.0618134
  16.2574463   7.4489613  74.0289612  71.9476318  13.7507086  41.4671631
  72.1760483  13.7854500  42.3960609  72.3302917  14.5459595  41.0965157
   9.7422314  63.2361221  70.0430527  10.0275497  62.3240471  69.9887390
  10.5433207  63.7272148  70.2255783  15.8279314   6.9088540  32.3103523
  16.4189014   7.2959609  32.9562111  16.1023693   5.9936461  32.2528114
  52.8997116  48.6759567  72.3024673  53.0394897  48.2563515  73.1513596
  52.0606155  48.3292885  71.9991989  84.2154083  63.5131149  23.0452957
  84.7667923  62.7392235  22.9299641  84.8003464  64.1697922  23.4232597
  56.5208282   1.7823563   0.6310022  56.7974854   1.7616193  -0.2851105
  56.5405693   0.8663102   0.9079530  78.8227081  70.8821411  55.0562820
  78.3888092  71.6238708  55.4779510  78.6539001  70.1424942  55.6399307
  59.5324631  17.7340984  65.6788864  59.3229485  17.8071289  66.6100159
  59.4515457  16.7996712  65.4877548  77.6760330  22.6913681  71.3830338
  78.5422440  23.0974426  71.3512955  77.7638931  21.8980789  70.8546295
   2.3269005  71.3582764  26.3486176   2.0350504  72.2293243  26.6175652
   1.5218970  70.8995895  26.1081848  31.8994751  55.5248566  59.3769035
  31.8439980  56.2112427  60.0417519  31.5289478  54.7505836  59.8005104
  46.2645874  28.4298248  15.7646275  45.6194038  27.7724705  16.0251236
  46.8519096  27.9657307  15.1680527   0.8009028  51.1126556  23.3039227
   0.3869787  51.7112427  22.6821594   1.0494844  50.3536034  22.7764015
  74.4248657  12.4462585  14.0448322  74.0064011  12.7049074  14.8659391
  73.7295532  12.5126886  13.3903389  60.0024338  44.4891281   2.7641871
  60.7823296  44.7007484   3.2772322  59.3346214  44.2820129   3.4179153
  32.9991760  58.8033409  10.1242332  33.2005768  59.4816017   9.4795370
  32.8591080  58.0122719   9.6038313  70.9303207  59.5567703   5.9093108
  70.2120438  58.9368324   6.0357451  71.4959030  59.4265289   6.6704874
  83.5100479  36.0878143  66.6367111  83.9497833  36.7705994  66.1300888
  84.2168045  35.6463585  67.1077194  42.2587318  61.5841026  82.7513351
  41.3558388  61.8507195  82.9243546  42.6162338  61.3748932  83.6142731
   5.8561468  14.7486010  52.4016571   6.7460456  14.5197735  52.1334229
   5.5765820  14.0174704  52.9525871  30.9881573  48.2102242  11.9899950
  31.3128090  47.4056244  12.3942909  31.7644558  48.7628212  11.8993044
  83.6835175  35.2778091  55.7258911  82.7766876  34.9749794  55.7726440
  83.7584839  35.9194412  56.4322357  28.4095554  52.2210617  78.7761612
  27.6486244  52.3195648  78.2038727  28.8434639  51.4273262  78.4632034
   9.4231949  36.4488754  20.8127842   9.8674164  35.9359207  20.1376724
   8.5321074  36.5602303  20.4814320  71.3828888  23.6946106  82.4563599
  70.9827728  23.2863293  81.6886063  70.6549377  24.1233711  82.9063416
  63.7207031  70.9859314  15.0937929  63.6515388  71.8792953  14.7571163
  62.8239708  70.7490616  15.3304338  25.5439529  53.1263580  54.7002831
  26.3028831  52.8569107  54.1829300  24.7901707  52.8090820  54.2029076
  46.3045502  13.6287785  23.3499794  46.3167191  13.0560637  22.5831165
  46.0122719  14.4753189  23.0120811   0.6004762  50.8092422  46.2048683
   1.1048521  51.3125381  46.8440323   1.2613094  50.3526611  45.6842270
  42.7466812   3.3658090  74.2910080  42.1301346   2.8978074  74.8541031
  43.5042458   3.5324728  74.8518600  72.8632202  63.9109154   9.4470119
  72.8721771  63.1944160   8.8123608  73.1549759  63.5095139  10.2655382
  85.6735306  66.3082886   8.0050611  84.9244308  65.9698029   7.5146394
  86.3544998  65.6455383   7.8898063   5.7313452  67.6915283  29.5423203
   5.2147641  67.1016541  30.0913448   5.2268567  67.7682419  28.7324829
   2.5059652  61.3898315  61.8076591   2.3669498  60.9181519  62.6288910
   2.8144813  62.2548294  62.0775337  22.6839409   7.0919881   0.2872860
  22.2869930   6.8318944   1.1185595  22.9453297   8.0029955   0.4213507
  57.3326263  47.7013168  31.0788078  57.7936516  46.8862457  30.8804493
  57.3827629  48.2081795  30.2683697  82.8346786  52.4226379  19.7984428
  82.2675858  51.6573257  19.7039051  82.5757904  53.0025101  19.0822353
  81.4984818  47.0666733  47.4315758  81.8292923  46.6154137  46.6549454
  80.9473724  46.4177475  47.8690834  37.9712563  61.6080437  24.2257271
  38.5302811  61.8927650  24.9486752  37.1097946  61.4832344  24.6238956
  63.4855423  31.1584530   6.1413927  64.1180038  31.7599220   5.7483873
  63.5992699  31.2740936   7.0847507  82.6161880  50.9199486  58.0459213
  82.5974503  49.9795113  57.8685455  81.7033310  51.1968422  57.9667625
  64.4141922  68.9134674  83.7183304  65.0389786  69.5725174  83.4158020
  63.7025528  68.9467926  83.0790329  32.2269287   0.9381720  25.7830391
  32.5544968   1.4995418  26.4857445  31.2799091   0.9113550  25.9196606
  75.2101440  40.2383690  43.4647293  75.4241104  40.1676979  42.5344276
  75.4521027  39.3879356  43.8314133  11.4963999  11.9222984  66.3353271
  11.2285223  12.7152777  66.7997208  10.7850170  11.3012571  66.4917679
  61.8447189  59.5087662  29.4376163  62.1960907  60.0485268  30.1457310
  62.1641502  59.9258156  28.6374512  41.6491547  31.7631187  11.3879337
  40.9703598  31.1932430  11.7494707  42.3418732  31.1639023  11.1098776
  11.1110268   8.1374102  51.4231033  10.3145981   7.6096749  51.3645515
  11.7227316   7.7156343  50.8196526  78.0205688  69.2636795  24.1232777
  77.6762848  68.4123077  24.3932209  77.4058533  69.8983002  24.4915276
  76.3868866  59.8331833  25.5669765  77.1265335  60.0822678  25.0127983
  75.8095245  59.3367500  24.9869480  52.4069328  26.4346924  80.9954147
  52.2971001  27.3852673  80.9713898  52.8051262  26.2610798  81.8483658
  46.2455101   7.6451240  53.6333809  45.5225792   7.2103815  54.0857086
  45.8826561   8.4858990  53.3546944  11.4017897  50.3240700  41.6239166
  10.9618874  50.2263336  42.4684067  11.9405174  51.1089325  41.7238998
   8.9462748  48.7171097   3.9226527   8.9706831  49.5301933   4.4271669
   9.7829304  48.6983337   3.4580176  31.6276321   8.0443344  31.7172661
  32.4715576   7.8637166  32.1312714  30.9791527   7.7572803  32.3601532
  76.7610626  54.6411018  16.5790672  77.1948090  55.1532097  15.8965445
  77.0625534  53.7443275  16.4337101  56.9271660  52.7157326   0.2003371
  56.0670357  53.1190834   0.3174421  57.3440933  52.7871246   1.0590031
  61.1960869  50.6383934  32.9205589  61.4827766  49.9286079  33.4952316
  60.8289871  50.1942749  32.1562119  20.6135807  26.8802567   6.8086371
  21.4787903  27.2702827   6.6840301  20.6521015  26.4852886   7.6796985
  68.2606430  36.3651657  12.6721687  68.5577927  36.4539070  13.5777397
  68.2310867  37.2626724  12.3407488  52.2560730  58.4071503  63.7273026
  52.8842125  58.3943062  64.4494553  51.5139656  57.8935204  64.0461960
  79.8608170  28.1961842  58.0039902  79.7746964  27.2429028  58.0123253
  80.7844925  28.3549347  58.1985321  51.2363205  52.6897964  30.5445614
  50.6687317  52.4605713  31.2804489  51.4855766  53.5993042  30.7085762
  21.1602440  11.9674196  23.0108356  21.3870239  12.7900038  22.5770626
  20.7605743  12.2352619  23.8383350  78.5199890   8.0404224   9.7544546
  77.9472656   7.2961078   9.9394274  78.3229446   8.6719694  10.4462328
  80.9244766  50.4218178   1.7314796  80.2435074  50.4216232   2.4041667
  81.0293198  49.4998398   1.4965361  30.6769981  64.5763779  49.2350960
  31.2028179  64.2274475  48.5153770  30.0332909  63.8913002  49.4154854
  41.6665688   7.8524337  55.3409157  40.9812508   7.2056241  55.1729622
  41.2111053   8.5790434  55.7661476   6.8201065  36.3404808  19.4883041
   6.9120607  35.4550285  19.1365261   5.9205179  36.3768425  19.8133450
  73.5061417  69.7115250  39.1045532  73.9477615  69.0899582  39.6832199
  74.1138687  69.8330154  38.3750725  64.1095123  20.3261242  16.6230068
  64.7478943  20.9191532  16.2267418  63.7242317  19.8589363  15.8817081
  13.2157679  18.1410694  72.4780045  12.4431381  18.6365643  72.7495956
  12.9294987  17.6563148  71.7038651  21.4079323  31.0628395  11.4476452
  21.1320534  31.9641705  11.2811384  21.6553745  31.0550308  12.3722763
  33.2067757  14.6130285  66.7422180  32.5663948  13.9017744  66.7259979
  33.9008942  14.2972183  67.3207474  65.8535995  57.0824432  30.9866867
  65.7796860  57.7172508  30.2740936  65.7546844  57.6039352  31.7832375
  21.9332600  40.8162956  87.8639221  22.0089417  40.0819778  87.2546005
  21.1320419  41.2671089  87.5973740  17.3743610  70.3536377  28.8679295
  17.0735474  70.5051117  29.7639198  16.6636486  70.6829605  28.3177738
  86.2287064  53.4785385  86.2131195  85.4499741  53.7814217  85.7461319
  85.9102631  53.2487640  87.0860596  51.8882103   7.2294850  27.8968887
  52.1766777   7.4031558  28.7929115  51.8954697   8.0873861  27.4724045
  48.9967346  61.4722061  64.7989120  49.1614532  61.4098854  63.8580551
  49.5549164  62.1922112  65.0926132  68.1789780   4.4942689  44.9436417
  68.7516403   4.5005102  44.1766663  67.8738785   3.5892372  45.0073891
  17.6056614   0.7287537  42.1322098  18.5300980   0.9211897  41.9753189
  17.3198357   1.4082593  42.7427902  75.7794495  32.0938797   3.9173822
  76.6641693  32.4576607   3.8831623  75.4273911  32.3985481   4.7537222
  41.9979897  61.3853455  78.4202576  41.9756775  62.0467644  79.1118164
  42.0169144  60.5503845  78.8879242  43.6101761  15.0480690  82.1151123
  43.3011551  15.9418173  82.2632751  42.9178391  14.4927425  82.4736023
  80.2595062  27.3086319  45.6240883  80.5472717  28.1665630  45.9361458
  79.3852310  27.1986675  45.9979630  36.0829964  36.1623306  19.9304333
  35.6330948  36.9011459  19.5205860  36.8543358  36.5507317  20.3432407
  73.3827591  48.7805138  19.4304733  72.9845505  49.2867775  20.1385403
  74.1086426  48.3159904  19.8470535  26.1420498  56.3311310  79.0341110
  26.6879711  55.8714027  79.6719589  25.7533703  55.6344185  78.5051956
   0.4197057  14.8346081  82.9828110   0.2193925  15.7047710  83.3276596
   1.3419290  14.6975613  83.1995010  58.0025024   8.0441055  71.5617218
  58.9423904   7.9747744  71.3942719  57.9420395   8.4874611  72.4078979
  37.8786964  47.0376511  84.7256241  36.9638977  46.7559471  84.7211838
  37.8420982  47.9734497  84.5277100  36.9412270  64.8554382  67.2124329
  37.0727997  64.1041641  66.6340714  36.0839195  64.7041092  67.6103668
   0.1876262  58.0736351  65.9903030  -0.1575934  58.0096245  66.8807831
   0.7748852  57.3224106  65.9065170  85.0472717  23.3260193  52.0892677
  85.0013275  24.2252121  51.7643471  85.9452972  23.0504665  51.9052887
  79.4988861  44.3371849  23.4261703  80.2578812  43.7539749  23.4310760
  78.7738953  43.7843246  23.1346874   1.8570249  52.6966209  88.8108368
   2.5840492  53.0773010  89.3035355   1.6391764  53.3590698  88.1551437
  85.7702942  25.7200909  43.7784882  85.4898224  25.6851597  44.6930084
  86.1038513  26.6099682  43.6640892  63.9804649  11.2975855  44.2763634
  64.0470047  12.2174988  44.5324173  64.7911224  10.9009418  44.5953369
  45.3616905  40.9775162  30.1632652  45.8863564  40.9167976  29.3649750
  44.7268982  41.6702538  29.9805546  33.7178535   5.2137322  45.3883743
  33.2057648   4.7026982  44.7616005  34.4945946   4.6797271  45.5549355
  83.8471756  18.5263081  22.0642872  83.6363068  19.4490719  22.2066631
  82.9986191  18.0834007  22.0678101  67.7974014  54.3219185  42.6514893
  68.5267181  54.2453270  42.0363007  68.1260223  53.9332352  43.4621429
  85.8626556  57.6850243  34.4943352  85.2415619  58.1251068  33.9139900
  86.6262283  57.5144806  33.9428711  29.6885395  64.6569977  25.2474632
  29.7235298  65.5209579  24.8368855  29.3305683  64.8207703  26.1199684
  64.9004288  59.5184784  45.1157074  64.1603699  59.1444740  45.5939026
  65.4755402  59.8654442  45.7976875  61.4101601  32.2528610  83.8832169
  61.4294243  32.6586800  84.7499161  61.7961502  32.9089699  83.3029022
  86.5427780  20.2014828  19.0071106  85.9014435  19.4910355  19.0207405
  87.2604599  19.8868599  19.5568218  38.8877602  70.0681686  24.9990730
  38.3592606  69.8072968  25.7533092  38.7840919  69.3504791  24.3742447
  57.8307800  67.3656921  77.0518875  58.5555496  66.8463745  77.4001007
  58.0837975  67.5543365  76.1482162  73.2324753  19.2718410  61.2173271
  72.5283127  18.7581787  61.6129646  73.4451752  19.9335175  61.8754883
  17.4535122  29.1076870  86.9860382  18.3548698  29.2839966  87.2556686
  17.2111988  29.8637733  86.4513855  49.6195755  52.5833969  32.9472466
  49.3495445  53.4204559  33.3249359  50.2936478  52.2578011  33.5437737
  68.9978943  51.9952431   7.5169334  68.6102295  51.6239777   6.7243996
  69.7009583  51.3877525   7.7468953  18.0772343  12.8702707  76.2141113
  18.0933418  13.1545954  77.1279678  17.9994259  11.9173946  76.2610703
  51.8438644  67.6098022  33.8655663  51.6396904  66.7697906  34.2765617
  51.0761375  67.8067474  33.3288765   1.1186795  64.5563126  64.4978943
   1.3239554  65.4795685  64.6451797   0.2213358  64.4567871  64.8158569
  80.8276901  55.3468170  58.9306221  81.2479935  56.1815338  58.7236786
  81.3404312  54.9943123  59.6579933  43.1906013   7.2713161  38.7216606
  43.6332970   8.1096535  38.5895882  42.5760422   7.2072001  37.9906082
  19.0031109  15.7227182  25.8907986  19.5598755  16.0408726  25.1801491
  18.4487514  16.4704895  26.1138611  16.3241558  42.8587875  52.4315109
  15.8245468  43.2693176  53.1372643  15.6628752  42.5966339  51.7910309
   3.7926874  11.1862869  61.9823303   3.2715912  10.3838854  62.0113564
   4.2120147  11.1685686  61.1220512  80.2359467  59.7481842  48.2856026
  80.7999802  59.6011314  47.5263443  79.5450897  59.0909958  48.2016220
   6.3989468  11.0556450  42.5441284   5.9524393  10.8226652  41.7301369
   5.6914892  11.2657671  43.1537056  36.1689949  11.6666603  61.8551025
  36.7865143  10.9353485  61.8460197  35.3658562  11.3066540  61.4788094
  84.4275665  50.1072731  63.2347450  84.7447128  50.9262733  62.8540993
  83.5743027  49.9669838  62.8242683   8.1723785  62.1659813  37.1349754
   8.4306898  61.2495117  37.0370369   8.9025211  62.5720062  37.6021690
  17.3490181  65.5478287  81.0482025  16.4562492  65.6752625  81.3690720
  17.7486515  66.4160156  81.1008224  81.4560165   5.9681101  26.1680756
  82.3253708   6.2969217  25.9392891  80.9095840   6.1912880  25.4145317
  26.8097363  65.2719955  11.0345116  26.4516182  64.7952576  10.2857122
  26.1016197  65.8550262  11.3081436  83.5463638  58.7434616  22.6270180
  84.2711716  58.3742676  23.1315689  83.9485626  59.4340134  22.1001415
  37.7193756  17.4693756  50.0708961  38.3860512  17.3930874  50.7535057
  37.8036652  16.6627007  49.5625610  37.7850227  47.8862076  67.4654236
  37.7592087  48.6581154  66.8999863  37.2689514  48.1339111  68.2325897
  79.4589920  44.1278915  19.8460197  80.2589264  44.2529640  20.3566036
  79.3170471  43.1812897  19.8512650  33.3098526  21.1587124  80.5745392
  34.1222343  21.6645107  80.5536270  32.6311302  21.7851830  80.3233414
  85.8835373  59.7486763  58.6701355  86.6452560  60.3207321  58.7637978
  86.0584183  59.2452278  57.8750343  33.2301178  18.7034950  16.0335159
  32.7763977  18.5450039  15.2057171  32.5277405  18.8412132  16.6690750
  78.2752914  68.2537155  21.3323116  77.3236084  68.3513336  21.3006229
  78.5232849  68.6010132  22.1891174  17.8373089  38.0661125  88.6553802
  17.1927624  38.7399826  88.8714600  17.3292179  37.3773384  88.2268219
   1.8379624   7.4528532  68.1047668   1.3860892   7.7241812  68.9037857
   2.6047699   8.0238295  68.0576096  40.4222031   3.0972240  67.8630371
  39.9806137   2.5124857  67.2471542  40.7809753   3.7953629  67.3152084
  84.9533310  38.2375221  14.8430719  85.0235138  38.9728165  14.2342625
  85.8068619  37.8066483  14.7976398  30.1969986  51.9926109  13.5726128
  29.7956772  51.3727722  14.1816912  29.6528969  51.9424896  12.7866917
  82.4508286  14.9995480  78.7948227  82.8719482  14.3030634  78.2910385
  81.6113434  15.1382856  78.3563614  79.9364471  20.2249107  30.0634613
  79.9481812  19.6505470  29.2978249  80.8589172  20.4142723  30.2349854
  10.8755274  32.3279114  60.5172424  11.5858040  32.8985634  60.2238274
  11.2293997  31.4425030  60.4332199  18.9498272   7.8888378  25.5752010
  18.5514317   8.0740747  26.4256115  19.8000107   7.5038218  25.7877636
  36.1293144  17.4312496  86.8521194  35.4295235  18.0390892  87.0909805
  35.8908463  16.6103134  87.2827301   1.2410793  10.1119833  66.7092819
   1.2431443  11.0690536  66.6936569   1.7741040   9.8837214  67.4708710
  82.4433289  54.0093460  60.9252052  83.1841965  54.5712051  60.6979065
  82.1180725  54.3647919  61.7523079  60.1618156  68.0057220  70.6672287
  60.2761116  68.7690811  70.1011429  59.2420425  67.7634354  70.5597992
  66.1188431  64.1140594  30.1398849  66.4569778  63.8474655  29.2850037
  65.9042816  63.2914200  30.5797310  56.5770760   1.3491213  23.8057060
  56.1268730   0.5486026  23.5360451  56.7171173   1.2399105  24.7462883
  24.8520031  11.0113506  74.9087677  24.0878220  10.9812155  74.3331375
  24.8489017  11.8999300  75.2646408  32.2307281  31.5743465  23.4534225
  31.5888786  31.6185017  22.7446823  31.9602222  32.2595940  24.0645638
  83.6612930  36.0503464  63.0222054  84.1617737  35.4036484  62.5246811
  84.2270813  36.2742577  63.7611084  65.8434372   9.2580976  72.5292740
  65.4816818  10.1052399  72.2690582  66.1293793   8.8574133  71.7083511
  82.5838242  30.8973923  45.1008034  82.7514420  31.7736244  44.7538872
  83.3016052  30.7414398  45.7145653  33.5089569  12.8470640  59.6225395
  33.7281265  13.5222988  60.2646103  34.2969513  12.3067379  59.5647278
  27.2085037  58.8119164  86.4849243  26.5879765  58.7517395  85.7585907
  26.7870941  58.3352623  87.2000809  32.1177063  34.6213531  84.0429916
  33.0480309  34.4236870  84.1509781  32.0792542  35.5768242  84.0002136
  66.8259888  25.1976185  57.6103210  66.1483078  25.8193092  57.8758087
  66.6218262  24.9962978  56.6970711  85.9795685  37.4255829  48.1394005
  86.8306580  36.9909935  48.0845108  85.5043411  36.9375000  48.8118324
  10.7330952  13.5359879   1.3273612  10.3573246  14.3489456   1.6651883
  11.4559603  13.3403625   1.9235402  46.0942116  67.4302902  29.3450832
  45.9024506  66.8366318  28.6191158  46.1487846  66.8605881  30.1123447
   4.1062641  20.4367123  37.1370163   4.5923724  19.8332253  37.6989174
   4.2397966  20.0994110  36.2512245  21.0182476  49.1445885   7.2828956
  21.0184879  49.3925209   8.2074289  21.9448986  49.0906868   7.0491333
  27.5182228  55.9668465  22.8542690  26.9675789  55.4104576  23.4051361
  28.2307034  56.2440453  23.4302578  23.5156784  13.7768698  12.5890112
  22.7476845  13.8425846  12.0214720  24.2592812  13.9182682  12.0030985
   3.0657010  63.7399292  62.7503357   3.7433708  64.3392410  63.0630989
   2.3413281  63.8555527  63.3652725   7.6648431  15.2712460  28.8121338
   7.5288148  16.2187290  28.8103390   7.1916924  14.9628124  29.5849400
  75.1426086  70.8570328  42.1159859  75.0435562  71.0903931  43.0390015
  74.7291946  71.5779266  41.6409760  66.5017319  66.8571701  65.6106491
  65.9847565  66.6929626  66.3993225  66.0360031  67.5626144  65.1615601
  32.3019524  55.8767662  84.6280212  33.0380554  55.2665291  84.6726990
  32.1388245  55.9871063  83.6912994   5.8845754  51.5307808  80.5272675
   5.7304564  50.8548889  79.8672256   6.5029340  51.1314468  81.1391449
  85.7128983  16.1130638  50.1256943  86.5400620  16.5906277  50.1886139
  85.7411194  15.4886065  50.8505974  60.9719086  16.3890152  78.6511459
  61.3044395  16.3611526  79.5483017  60.0196762  16.3875427  78.7485046
  55.0823326   9.2862310  23.1514454  55.0783997   8.3290644  23.1584015
  54.6031990   9.5219469  22.3570271  21.9107094  45.2049942  55.7563477
  21.9334469  44.8737488  56.6541176  21.1230240  45.7477188  55.7211761
  -0.1666026  16.9913845  28.7550220   0.6351646  16.9234753  28.2365723
  -0.4238195  16.0839653  28.9183064  52.4386292  33.4110641  15.9817476
  53.1994019  33.9433784  15.7491522  52.2504845  32.9041443  15.1918964
  65.3460541  52.8069687  57.5593681  64.4816589  52.8719482  57.1533661
  65.2460938  53.2414627  58.4063950  61.6799469  45.0739212  80.1676025
  61.2135239  44.4771690  80.7528915  60.9927444  45.4688416  79.6309204
  65.4911499  19.8787746  75.7180099  65.4918594  20.8095913  75.4948273
  65.3967361  19.4309692  74.8773041  76.8723297  23.2856712  19.6427917
  77.3720627  22.4812698  19.5033817  76.8295593  23.3791733  20.5944538
  57.6103172  33.3590164  35.8648300  57.4628105  32.4620743  35.5648880
  57.1147957  33.4230881  36.6812744  52.9212608  18.1063671   7.4156022
  53.4450417  17.3217468   7.2535639  52.8510971  18.1548290   8.3689966
  19.5179024  20.5672741  34.6751633  19.7252903  20.6287537  33.7427254
  19.1097088  21.4071083  34.8856201  64.9373779  62.3378601  10.3821554
  64.8318558  62.4983368   9.4444218  64.9770813  63.2113342  10.7716484
  45.0580673  63.5255280  86.2217178  45.1301041  62.8069992  86.8500137
  45.8006516  64.0950012  86.4229431  56.3676529  11.9886208  11.4856720
  56.4440727  11.4351177  12.2628632  56.6712189  11.4347839  10.7664042
  46.4537048  41.1999283   0.1387800  46.0150414  40.3685417  -0.0417814
  47.0463333  41.0053139   0.8648306  46.1331406  28.3484497  79.8762970
  45.4782143  29.0272312  80.0392609  45.7706184  27.5626888  80.2854309
   0.0127399  61.4531326   2.8931408   0.1334793  61.9206581   2.0666590
   0.5668239  61.9223328   3.5168986  75.8393326  64.5508118   4.2685423
  75.2519989  64.4933777   5.0221825  75.3754425  64.0924225   3.5678837
  13.9189014  24.4259872   6.4422135  13.0236483  24.6653843   6.2025433
  13.9334755  23.4703369   6.3897805  15.3882809   6.2524419  51.8283920
  16.0357990   6.3094959  51.1257553  15.6497488   5.4822879  52.3330994
  73.9709015  54.9846115  41.5026207  74.7974854  54.6230774  41.8224487
  74.2292328  55.7309952  40.9618721  47.6129761  66.7725296  62.7304649
  47.7234421  67.3308182  61.9608269  47.8015060  65.8889008  62.4144249
  60.6777306  31.3816032  31.4558086  60.1889839  30.7001133  31.9172497
  60.0121346  32.0171967  31.1926804  64.2038193  37.7762718  86.2246399
  63.4841690  38.4020386  86.3068008  64.6712723  38.0510597  85.4358368
  63.7033005   8.4571285  66.3195419  63.6509514   8.4984531  65.3646698
  64.1042938   7.6070929  66.5008698  62.0674248  44.5045052  39.4079628
  61.3099136  44.4296875  39.9883156  62.5356827  43.6768646  39.5174294
  20.3330688  48.0061913   2.9859309  19.5229282  48.0775719   3.4907181
  20.1924038  47.2527542   2.4125407  13.7584610  20.2462101  50.1608963
  13.2154131  20.4105186  50.9318275  13.1412268  19.9502945  49.4918022
  64.1459427  58.0252991  12.6924925  64.1807709  58.0516129  11.7362890
  64.3149490  58.9277229  12.9632416  25.5131741  15.5347109  15.4528847
  25.1967506  14.8201618  14.9001398  26.4178562  15.2974072  15.6565275
  62.4040031  28.0265675   2.6803207  61.4591751  28.0144310   2.8332310
  62.5851288  27.1991234   2.2344947  39.8449745  14.0773134  87.4290848
  40.7234192  13.7184620  87.5547409  39.9154625  14.9884520  87.7138443
  69.1222076  28.6561642  60.0220222  68.4897156  29.2756481  59.6581268
  68.7594299  27.7946644  59.8160019  67.7286758  63.2710991  78.8534317
  67.1836014  62.8325806  79.5067520  68.0598984  62.5617142  78.3027115
   1.9496261  69.1012726  68.2892303   2.6916482  69.7052078  68.3190842
   2.3300283  68.2446747  68.4835815  56.8170013  22.0099926  16.9879112
  57.5719261  22.4160423  17.4138718  56.0636902  22.4997272  17.3179321
  66.1687698  24.9381599  79.6606140  66.7293549  25.6061859  79.2660065
  66.0341415  24.2961617  78.9635162  76.9998779  32.9915276  48.1407394
  77.6568604  33.1152267  48.8257980  77.2391281  32.1625252  47.7263222
  67.1684799  57.4563599   0.8973280  67.9221191  56.9316750   0.6272238
  66.4617386  56.8205681   1.0092219  43.2599945  67.5920639  82.3281631
  43.0027695  66.7514877  81.9493561  43.9245071  67.3678818  82.9796143
   7.1254807  36.6641960  72.5575027   7.7961888  37.1237450  72.0523300
   6.7455945  37.3386765  73.1205292  52.4825935   3.9288826  83.8244476
  51.9245110   4.6178412  84.1851578  53.2869339   4.3810010  83.5697784
  62.3799553   6.2310319  23.2859612  62.9559708   6.8641171  23.7144947
  62.6436691   5.3846292  23.6469173  70.8635788  40.9295998  36.9191895
  71.2432022  40.3732376  37.5993271  71.2538452  41.7907448  37.0687141
  29.0166550   7.9783506   2.2179749  29.3986740   8.5218706   2.9070897
  29.5307922   7.1711731   2.2369053  27.4605007  25.5051937  19.6173763
  28.2299728  25.9180012  20.0094681  26.9318085  26.2371349  19.2996006
  69.4443130  66.3420258  34.0348930  69.7606354  65.9068680  34.8266029
  69.3720703  65.6399460  33.3882866  75.2813721  52.0008316  28.4893837
  75.5081406  51.0733070  28.5565224  74.3565292  52.0395393  28.7330952
  70.4357605  54.2080727   1.7216208  70.2077942  53.5374680   1.0777638
  71.3628159  54.0574493   1.9063331  36.8643646  56.6739616  29.8626080
  36.7498550  55.9743538  29.2194347  37.3422089  57.3565636  29.3914890
  61.8196487  71.2180862  48.2345810  61.8303185  70.3891830  47.7559967
  61.5160332  71.8608551  47.5935707  12.1753731  26.1438141  49.3377419
  11.7605972  26.3770733  48.5072098  13.0055571  26.6202641  49.3329926
  62.4343719  32.3523064  35.5250473  61.6340446  32.5109520  35.0245056
  62.1394272  32.2843933  36.4331398  22.8499069  26.1951981  14.7418661
  23.0022659  25.2502804  14.7297134  23.6553040  26.5630093  15.1055708
  42.5908241  38.8405495  87.8115082  43.1818733  38.8293800  87.0586700
  41.7148781  38.8813972  87.4277344  61.6186943   7.0215187  40.1078720
  61.2039108   6.3733931  40.6771851  60.9652748   7.7153292  40.0189705
  57.4419365  24.3222237  75.1299973  57.5060081  25.1313610  74.6226273
  58.3037758  23.9152203  75.0416260  63.7038002   9.6255369  39.4445229
  63.4304466   8.8947535  39.9990158  63.3836136  10.4043617  39.8996544
  41.5781631   5.3061776  83.6064529  42.4968567   5.1136875  83.4188919
  41.5872879   6.1952186  83.9610672   9.2282238   3.6432598  37.2529602
   9.6978159   4.0276213  37.9932175   8.7930460   2.8733230  37.6190872
  79.5577850  19.8325882  79.0849762  79.7453995  19.5394115  78.1933060
  80.2447128  19.4325047  79.6181717  19.1748676   5.4818420  76.9124298
  19.8812637   5.0769634  76.4091263  19.6207600   5.9424171  77.6232605
  63.6176720  37.5588074  23.5328102  62.6750717  37.6236839  23.6862030
  64.0041580  38.1792679  24.1507797  77.8327484  63.7004280  52.2258186
  78.3704071  64.2986908  51.7069397  78.3847122  63.4690704  52.9728432
  74.7894669  21.9485474  88.9758530  74.1143265  21.3367329  89.2692947
  75.6002426  21.4403477  89.0003967  28.0639076  68.4220352  29.0134525
  28.8181858  68.9280853  29.3154564  28.1493530  68.4105606  28.0601425
   4.3277588  56.0532303  22.1588516   3.6537778  56.2002335  22.8224564
   3.8555417  56.0845757  21.3268299  55.1839409  17.8636723  77.8526764
  55.5123863  18.2414551  78.6685410  55.2936707  16.9194088  77.9647369
  57.7857170   1.5899289  87.0702896  57.0205994   1.5340967  86.4978333
  58.4851074   1.1602110  86.5779266   5.2576880  42.3465729  45.4849892
   6.0937853  42.3680687  45.9505119   4.6028824  42.5234375  46.1604042
  18.2688255  31.9642639  30.8362770  19.0398598  31.4292545  30.6478558
  17.8181973  32.0395813  29.9951496  54.1867752   1.1233940  63.9217033
  54.6875267   1.0145268  63.1132317  54.6856194   1.7645968  64.4279099
   6.3054838  30.5112629  21.2290897   5.5885406  30.2416458  21.8031387
   6.4829316  31.4184933  21.4774399  35.6264992  23.7138195  73.7966461
  35.6727257  24.3521442  73.0848618  35.7595749  24.2308979  74.5910950
  16.6114693  25.1065617  85.0737076  17.3439503  25.1097870  84.4575195
  16.3919315  24.1809559  85.1799545  36.5690651  57.0671005  12.0046673
  37.1726913  57.1577148  12.7420006  35.9557762  57.7949486  12.1063643
  40.7526360  49.9087372  80.6873016  39.9469948  50.1996231  81.1145706
  40.4566383  49.4812469  79.8836441   9.0679150  11.2205610  76.8289032
   9.7085724  10.8031921  76.2530594   8.2770824  11.2931929  76.2945404
  55.4467773  40.0979080  34.5333939  55.8131332  40.8142700  34.0148926
  54.7633057  40.5099449  35.0619049   1.7409889  36.2241936  75.3674088
   1.7734241  36.8393745  76.1000366   1.3823205  36.7348328  74.6415787
  17.4695187  62.3656158  46.2908516  17.2781525  61.4600220  46.0468941
  16.9576492  62.8923073  45.6769981  33.7293854  36.8770981  84.5430145
  34.3188667  36.2646408  84.9830627  33.7868996  37.6794930  85.0617523
   2.2879529   2.8901641  37.5407753   3.1646404   2.6810768  37.2183876
   2.2152920   3.8391442  37.4388466  45.5723305  45.7097778   5.5379634
  46.4208870  46.0344200   5.8392806  45.1407776  45.3945274   6.3320742
  46.7079964  13.5948591  26.3287258  46.8439255  13.8390875  25.4132442
  46.1338654  12.8299465  26.2898464  62.1042557  70.6936417  26.8384304
  62.7934494  71.2285385  26.4445591  61.3282738  70.8741760  26.3078671
   0.1297788  47.5793648  87.0738754   0.0381593  48.5321274  87.0829239
   1.0209041  47.4214706  87.3856430   1.5059800  64.4154510  69.3488998
   2.1113970  64.6711578  70.0448303   0.6998634  64.8927460  69.5453720
  36.8576584  51.2155380  17.8271065  37.7239265  51.5838203  17.6533775
  36.7295723  50.5675240  17.1343536  30.1955338   3.0836370  49.2736969
  31.0149059   3.5124698  49.5206070  29.5852985   3.8045189  49.1182175
  23.3406601  11.6599150  84.1457825  24.1373196  11.1448202  84.2732239
  23.6047421  12.5602751  84.3351135   1.8072537  35.5385628  79.6784439
   2.2200184  36.2273712  79.1574860   2.3940997  35.4187737  80.4250946
  13.6502132  44.2073135  72.0206451  13.2444897  44.0378304  72.8708725
  14.5813704  44.0357285  72.1611328  44.3835716  65.0846939  40.1828690
  44.7115479  64.3461685  39.6697922  43.6416702  65.4168167  39.6773949
   9.3794651  26.9778271  73.6785431   8.5098686  27.3651600  73.5785065
   9.9690657  27.5993729  73.2515945  71.2838898  18.9720497  15.1885328
  70.7070084  18.9150314  14.4268312  71.5791016  18.0730801  15.3332319
  12.2115154  49.5219116  74.8723297  12.6792946  49.2758255  74.0743027
  12.4083691  50.4514351  74.9883652  73.5088196  24.6227493  77.8423233
  73.0077820  24.9277096  78.5987549  73.9666290  23.8431549  78.1567688
  12.4513836  11.6131411  78.9566956  12.7821693  12.1864758  78.2652512
  12.4494705  10.7403603  78.5636520  53.6730843  65.5580750  23.2546005
  53.5956039  66.4811172  23.0132980  54.2131271  65.1744080  22.5636711
  86.5365982  56.3958397  81.3680496  86.9322510  55.7402687  80.7936630
  85.7710800  56.7068901  80.8848801  30.5891571  51.0017548  37.3381577
  31.2927418  51.6045647  37.0977058  30.0490551  50.9376450  36.5504951
  59.3127632  50.1616020  46.1259193  58.9053612  49.3923454  45.7278061
  59.9936104  50.4204559  45.5048904  19.1669674   4.1975117  17.6532001
  18.8449211   4.9384236  17.1398125  20.0424557   4.4634275  17.9343395
  24.2612820  67.1004028  47.7106247  23.6785622  66.3878021  47.4482040
  23.7211876  67.6572876  48.2713470  15.0034761   7.4730287   3.7945514
  15.8631964   7.0556254   3.7408154  14.8901873   7.8983712   2.9445624
  69.2684708  57.6175995  36.6460762  69.0236053  57.2260208  37.4844894
  69.3382950  58.5542679  36.8304901  17.0292816  38.2671394  68.9081421
  17.2688503  38.2188263  69.8336182  17.5536423  37.5847549  68.4890671
  63.1958656  31.5521927  74.9128494  63.7742157  31.2883110  74.1972275
  63.7697792  32.0069008  75.5293732  78.4860687  38.5802917  77.1115570
  79.1769791  37.9178238  77.1075821  78.6256561  39.0670586  77.9238434
  44.3153839  69.2452621  27.8031120  43.8343849  70.0633698  27.9278698
  45.2188606  69.4609604  28.0342617  35.3555908  26.5299702  22.0717316
  36.1021843  27.0231533  21.7317371  34.5926819  27.0583973  21.8372765
   5.6714993  22.0635643  69.0378876   5.3005366  21.9276161  69.9097443
   6.5703244  22.3489685  69.2018738  18.4479904  50.4160423  39.0803986
  18.8692303  49.5905190  38.8410225  17.9210529  50.6467285  38.3153152
  14.0695496  43.0332184  31.7211761  13.5810823  42.7925568  30.9339561
  14.8114777  42.4286308  31.7368698  60.3202400  66.5680847  57.5006752
  61.0256004  66.7382889  58.1249580  59.5299187  66.5226517  58.0387878
  52.5261650  39.2476616  75.8266983  51.9364548  38.9371681  75.1396255
  53.4020309  39.1480179  75.4536514   3.8593810  34.3076439  75.6043854
   3.4970889  35.1322441  75.2803268   3.2480705  33.6393356  75.2947083
  60.7509842  53.9173851  45.9123993  61.4892921  53.7789993  46.5056801
  60.6533012  53.0833397  45.4529877  22.7038898  70.0389481  68.1536560
  22.9977856  70.9105911  68.4184265  22.6884613  69.5341415  68.9667740
   7.9913111  61.9325562   1.3775228   8.1322489  61.5457268   2.2416589
   8.1897497  62.8614769   1.4956824  69.7330246   0.0606876  55.2967453
  69.5706482   0.8713087  55.7791977  70.5069122   0.2488831  54.7657967
  26.7482319  67.5874176  48.4465637  26.5551434  68.4079895  48.9000092
  26.0051632  67.4589691  47.8570023  77.7967148  13.5497980  71.1705933
  77.8550262  14.3030653  71.7583237  77.3956604  12.8619604  71.7018890
  34.0830727  21.4061756  16.0611115  33.9715080  20.4556332  16.0452213
  33.3563499  21.7414379  15.5360346  77.7938538  30.5559826  86.9447403
  78.6620331  30.1589851  86.8748398  77.5587616  30.4568996  87.8673172
  23.5899448  55.0455017  47.7088356  23.3715878  54.9977379  48.6395721
  24.2915459  54.4045258  47.5942230  32.6049309  33.7081451  87.9065247
  32.3195038  33.5646477  87.0042114  32.0999031  34.4665642  88.1997452
  84.2729416  10.6502762  43.6756973  84.4815826   9.7573271  43.9501801
  83.7592087  11.0093632  44.3991394  84.0944366  55.2821465  52.8505898
  83.9021149  56.0775909  52.3540916  83.2378922  54.8846283  53.0072632
  72.8351593   3.6989765  69.9871979  73.0861511   2.8479834  70.3464279
  73.5634842   4.2780285  70.2118530  66.4917221  23.2889633  77.5144806
  66.6232910  23.0303364  76.6023178  66.2609940  22.4755325  77.9631729
  51.1225471  21.9528084  85.6024551  51.5575905  21.4833145  84.8907318
  51.5732918  22.7962265  85.6437302  79.7426453  20.5046787   2.6939762
  79.7602158  21.4468956   2.5261970  79.7654419  20.4308243   3.6480505
  11.7316771  61.5851936   5.6969552  12.6489954  61.5750580   5.9701886
  11.7631359  61.4652367   4.7478228  56.3083344   0.5912694  11.1355448
  57.0971985   1.1075848  10.9701948  56.4845734   0.1428441  11.9626398
   5.5575600  24.6723518  23.1673298   5.9283991  23.7908878  23.2089386
   6.1903152  25.2205524  23.6313648  31.4125996  30.3299198  28.6772003
  31.7644215  29.6319313  29.2297077  30.7417221  30.7476883  29.2172203
  50.3362350   9.3856764  58.5127373  50.2356873   8.8614883  57.7181625
  49.7978134  10.1617031  58.3574524  48.9756966  32.9137535  63.9731674
  48.4406624  33.0591583  63.1928940  48.4348831  32.3579330  64.5342484
  69.0013123   6.1922827  26.2371063  69.7592087   6.5638366  26.6885223
  68.2458496   6.5447488  26.7074986  67.4652710  10.0576258  52.6569481
  68.1009598  10.6044369  52.1952934  67.8826447   9.1978407  52.7098885
  55.7222786  42.7617073  65.4904404  56.5219078  43.0837097  65.0743332
  56.0307159  42.1649055  66.1722946  65.1963882  48.6701126  17.2163677
  65.6417618  47.9552498  16.7615585  65.3325882  48.4845505  18.1454792
  64.2052078   1.3930449   8.2186346  64.5672836   2.2655108   8.0639172
  64.0182114   1.3743170   9.1572037  17.8391819  70.1252747  33.7913780
  17.5402660  70.9562836  34.1605644  18.7889156  70.2220383  33.7215462
  26.8956242  65.0431137  29.2985973  26.3735943  64.6371307  28.6065712
  27.0122395  64.3500824  29.9484825  73.6951981  45.1019058  87.2772217
  73.9947586  45.7838669  87.8784027  73.5456085  44.3390732  87.8357391
  58.7197456  59.3210258  84.3963242  58.1480141  59.2335625  83.6336288
  58.9608879  58.4219284  84.6192627  30.3977222  67.0867157  62.7693367
  29.5678844  66.6875839  62.5080070  30.2271461  67.4455872  63.6401672
  82.4843063  27.9159355  58.1837387  82.8362885  27.0772076  57.8856201
  83.1589813  28.2655144  58.7658386   7.6682115  25.3028584  58.4192276
   7.8961372  25.7133427  59.2533646   7.4634314  26.0363808  57.8393669
  36.1718140  66.7720413  48.3435593  36.6429138  67.4038620  48.8867874
  35.2498131  66.9100571  48.5605736   1.7275960  47.1916237  29.8937073
   1.2451248  48.0156937  29.9597340   1.9029670  47.0910568  28.9580975
  82.3915100  53.2439766  55.6439247  82.3025131  54.1036415  56.0553703
  82.6815109  52.6685410  56.3517418  49.1899796  65.1814194  24.5231457
  50.0565224  65.0670166  24.1329632  48.9883232  66.1077957  24.3912487
  73.2956772  43.3510590  60.0583687  72.4666595  42.8853645  59.9484520
  73.8712769  42.7175560  60.4868469  59.2894211  52.8192406  49.4157104
  59.3793411  51.9288406  49.0760994  60.0843658  52.9609489  49.9297295
  70.8882599  35.6356049  42.2994385  70.6854401  36.5605202  42.1593475
  70.8517838  35.2473297  41.4252853  27.6443977  24.0278645  85.1990204
  27.0409737  24.6048717  84.7308655  27.9804382  24.5644379  85.9169312
  76.8624191  64.3227692  37.2348747  76.4335403  63.6025925  37.6970787
  76.1469879  64.9089966  36.9884377  60.9846573  41.4903717  32.1030769
  61.7191963  41.2619667  32.6727448  60.2627296  40.9430161  32.4120407
  51.8110733  70.9335709  26.4178028  52.0266533  71.7779694  26.0218887
  50.9182854  70.7522659  26.1240501  23.0975780  40.0002098  85.2419205
  22.9415932  40.8677788  84.8687897  23.5262642  39.5110054  84.5396805
  50.5728226  55.4448967  31.4078827  50.1087074  55.2370682  32.2188301
  51.0669365  56.2390213  31.6114826  81.8128586  45.0025444   6.1068082
  81.5134048  45.9077721   6.1911783  81.0079422  44.4900322   6.0314670
  40.0857391  24.5462685  75.8539429  39.5880890  23.7606812  75.6271667
  40.9653549  24.2240925  76.0506897   9.4981804  52.6861076  48.7526512
  10.1202412  53.3443527  48.4428329   9.7667627  51.8781433  48.3152885
   3.1712644  39.1421852  47.4629326   2.6660216  39.9468460  47.3468056
   3.6783061  39.2908287  48.2610855  54.8542366   8.9918251  18.6592579
  54.4213600   9.4563599  19.3755379  54.5764275   9.4565506  17.8699017
  77.0902710  14.4522114  85.1349106  77.9918594  14.7424564  85.2732162
  76.6029510  14.8263149  85.8689346  67.9082260  17.2899551  70.9622879
  67.5202637  17.3968506  70.0937881  67.3185043  16.6874352  71.4155273
  51.7137566  31.8292694  86.0769653  50.7972145  31.9944630  86.2980881
  51.7178421  31.7397823  85.1239700  33.6622314  52.6558914   2.3266215
  34.1881447  52.0238075   1.8366084  33.5912170  52.2794724   3.2038307
  65.1441956  47.7507057  42.9360428  64.3907394  47.4366875  42.4361153
  65.8298950  47.1045837  42.7670326  48.3471603  68.3294983  17.3314877
  47.4896927  68.7078934  17.1370697  48.1653023  67.6391144  17.9690838
  37.6002960   7.4316864  29.8451595  37.6316032   6.9779949  29.0028915
  38.4013405   7.1602397  30.2933464   5.3188977  61.4116058   0.3416693
   5.3030477  62.3218536   0.0459773   6.2260118  61.2621117   0.6081783
  79.0681992  22.0550804  80.6024246  79.7994461  22.6402721  80.4047699
  79.2186356  21.2885056  80.0492783   9.0348711  29.7371655  75.8640900
   9.4699879  30.3924236  75.3186111   9.7284660  29.3974266  76.4295349
  75.3310394  14.3592243  18.1408348  75.9720383  13.8058701  18.5870991
  75.2252121  15.1159277  18.7174034  56.6778755  28.9226685  13.6917534
  56.6208076  27.9888363  13.8940744  55.8259773  29.1379795  13.3120947
  14.1940832  25.2431736  13.7456570  15.1256123  25.4275169  13.6252298
  13.8463678  26.0303822  14.1647396  14.7653065  30.6281147  31.3713837
  15.2064161  31.1047688  30.6682091  13.8329477  30.7749424  31.2120705
  11.8251152  60.6500092  57.6476707  12.6129494  61.1882019  57.7244720
  12.1366167  59.8193169  57.2882996  79.4892349  37.7937241  16.3127632
  79.5785675  38.5648804  15.7527914  79.0389175  37.1508064  15.7649469
  17.6301861  49.1575165   9.5183802  17.2840252  50.0289764   9.7106390
  17.7514877  48.7531052  10.3774309  16.1107273  21.5379963   1.2807317
  16.0232296  20.6321049   0.9841909  16.0881863  22.0565281   0.4764616
  47.0938454   0.5658007  58.2954254  46.8012009   0.2477261  59.1494865
  47.6110611  -0.1548910  57.9358101  66.7591476  30.9247799  12.9011650
  66.9819260  30.0880508  12.4931364  67.5922699  31.2580967  13.2343941
  69.7540054  14.7902746  84.8882370  69.6640091  14.5675192  85.8147964
  68.8673706  14.7125654  84.5360031  79.0983200  51.1049881  66.3021317
  79.5902252  51.6430969  66.9223709  78.6906815  51.7356949  65.7086029
  60.4402161   4.6391654  81.0503845  60.2504272   5.4331303  81.5502167
  61.0448761   4.1459394  81.6047745  55.0338898   5.0875669  64.2639847
  54.9452324   5.4239502  63.3722382  54.8820915   5.8492422  64.8234863
   1.9072269  67.1384888  40.1572571   1.2126684  67.2289124  39.5048447
   2.3911221  67.9628830  40.1077690  72.0339661  16.8301086  34.5269928
  72.3736038  16.0059338  34.8757210  71.1583557  16.9077358  34.9058151
  45.7506294  65.3006821  27.5029850  45.5260277  64.6464767  28.1646576
  44.9061623  65.6031113  27.1688614  71.3642120  62.1375275  23.4818611
  71.4042969  62.9476814  22.9736481  71.7058334  62.3779068  24.3431072
  38.3205681  59.1357422  28.8754711  37.7871552  59.2614670  28.0906811
  39.2099800  59.3556442  28.5983067  14.6218853  27.7481518  87.3934555
  13.6991901  27.4948025  87.4195328  15.0229559  27.2668533  88.1171494
  33.1321106  58.8396530  49.5201454  32.2322311  59.1513443  49.6165695
  33.6625900  59.4958572  49.9720535  60.5670433  61.9030113  10.1500092
  60.3930931  61.4286957  10.9630270  60.7060661  62.8088760  10.4262505
  22.5400639  13.6245022  15.1139641  22.3016186  12.7295008  15.3555174
  22.7304249  13.5770864  14.1770830  41.6031723  29.3607712  32.2869377
  40.7835655  29.8511600  32.2237434  41.6820068  28.9162540  31.4428883
  29.5063896  16.8983326  78.8670731  30.0870342  16.2401085  79.2489471
  29.9579086  17.7296276  79.0130539   8.3348818  10.6055546  23.0683689
   7.3903227  10.6898766  23.1984863   8.5045214   9.6667337  23.1462784
   2.5365672  31.9602432  74.7046738   2.8773141  31.5184784  73.9268723
   1.6692647  31.5774422  74.8368912  60.3979149  37.9742661  62.9023743
  59.7076340  37.8245659  62.2563591  60.1641083  38.8060455  63.3143349
  20.6364861  61.2603912  44.0591927  20.1916847  61.0206642  44.8721581
  21.2381535  60.5348473  43.8924294  85.3647995  18.1950779   4.3088198
  85.4072571  18.7099705   5.1146197  85.1054001  17.3199730   4.5971522
  73.7242050  39.5867882  47.7594986  72.9307785  40.0920982  47.5823784
  73.4103699  38.6971626  47.9216957  18.6939316  67.3619843  66.3066101
  18.7321854  68.2645493  65.9901657  18.1233253  67.4012604  67.0741425
  83.3231277  19.0222664  31.0749531  83.0633621  19.9306278  30.9212322
  84.2106247  19.0834732  31.4282799  84.3824539  44.3490334  62.4985390
  84.5380478  43.4509315  62.2062492  85.2546692  44.7407379  62.5436363
   6.7394753  62.9781685  21.9186516   7.0340757  62.1897392  21.4627743
   7.2032323  62.9582062  22.7557659  35.0059547   7.0356574  23.5256100
  34.5413857   7.2970390  24.3206482  34.3123474   6.8012319  22.9090176
  70.1600494  59.3269157  85.9880142  69.5609665  58.7289124  85.5411148
  69.6874084  60.1586037  86.0217133  37.7727432   2.1593084  22.7989063
  38.6598434   1.9066371  23.0547218  37.8986626   2.8498549  22.1481209
  64.4659729  10.2309666  13.0582342  65.1322556   9.5475178  12.9861355
  64.9234543  11.0374765  12.8205767  67.4440613  40.4475136  13.6910973
  66.6547546  40.9199638  13.9557257  67.1189194  39.7005730  13.1885071
  49.2195015  39.2626343  32.5137634  49.2625389  38.9647522  31.6051121
  49.8719940  38.7320709  32.9709129  80.4986115  30.5692158  43.2136116
  80.7306061  30.3535805  42.3103333  81.3376160  30.6141567  43.6721802
  64.9531784  30.4799671  25.2690144  65.5810623  30.3077583  25.9706802
  64.1410522  30.0715160  25.5687637   4.2595057  11.9548292   0.2419365
   3.9578078  12.8109407  -0.0618440   5.2144351  12.0118237   0.2088659
   5.1019511   6.0448050  20.0117950   5.2670608   5.2807794  19.4593143
   5.0277176   5.6886168  20.8971481  36.1627464  21.4049129  27.0138607
  35.5659409  21.9219036  27.5549507  36.1560364  21.8439274  26.1632996
  68.2714920   8.4309359  36.1573753  68.9990540   9.0520649  36.1902008
  68.5142212   7.7446585  36.7789345   3.9640253  41.7463570  26.6087570
   3.9520175  41.8457870  25.6568108   3.2073464  41.1926460  26.8013000
  62.0924263  41.4553337  44.8818550  62.3990326  41.8509026  45.6977882
  61.3320808  41.9804039  44.6320343  12.0721226   6.4885364  34.4992447
  12.0657082   5.6248393  34.0866661  12.9742165   6.6048236  34.7974625
  36.7788773  65.8589096  81.2299500  35.9505272  65.6006012  81.6341095
  37.0301552  66.6599884  81.6896973   5.7355809  49.3515129  42.9672546
   6.0600581  49.6390839  43.8206291   5.7649894  50.1379623  42.4224052
  43.3003197   1.7350743  14.9739771  43.6198006   0.9451470  15.4100723
  42.4900475   1.9521316  15.4350376  78.7118530  38.9023895  80.3177795
  77.7819214  38.7450218  80.4811707  79.0779800  38.0321236  80.1602402
  76.7085800  69.8153305  71.2421570  75.8677979  69.3596954  71.2008667
  76.5356293  70.6728668  70.8536377  60.0018616  70.5315247  82.2052231
  59.3424950  69.8525772  82.3484192  59.5998268  71.1260605  81.5718842
  51.0383453  66.0373230  86.0626526  50.8878593  65.3756714  86.7377853
  50.3682594  65.8620834  85.4019699   7.1674032  62.7163124   8.7970886
   7.0091090  63.6289558   8.5557280   7.1570377  62.7164383   9.7542324
  43.4642372   3.5894804   5.4953117  43.1496353   3.4154203   4.6082039
  43.4051247   4.5403328   5.5881438  85.3551254  49.8545914   3.4101772
  86.2726974  49.5979271   3.5019159  84.9329376  49.0950546   3.0088060
  84.7676392  19.9522438  65.9809189  84.3465195  20.6826363  65.5276871
  85.4452972  20.3624897  66.5182343  79.2202225  46.5013885  71.5977936
  79.2183380  47.2875519  72.1438446  78.5208359  46.6501045  70.9614182
  72.7182693  15.6641293  27.0808468  73.1739044  14.9021797  27.4387074
  71.8949890  15.3132257  26.7412739   5.5172267  23.4921913  88.6206818
   6.1581159  24.1977196  88.5328064   5.5507827  23.2520943  89.5466690
   9.5184908  39.2789993  16.8867168   8.6153383  38.9670067  16.8300724
   9.9318352  38.9631653  16.0832081  86.1962357  48.4289894  83.5803146
  85.7204666  48.9418144  84.2336807  87.0981674  48.7441368  83.6388321
  63.9648056  52.1889610  88.7444534  63.7433167  52.9519577  89.2783203
  63.4569054  52.3030968  87.9411850  62.6707458  59.8732147   9.2248650
  62.0262070  59.6687431   8.5473747  62.4136658  60.7370987   9.5471134
  17.4382668  13.0668631   4.7837510  18.0627537  12.4676771   5.1926785
  16.6273479  12.9405260   5.2763786  63.5756721  54.4684830  42.9833145
  64.0302048  53.6737862  43.2627640  63.2197304  54.2504807  42.1219101
  60.5177956  61.1374092  35.8574600  60.4267273  60.7612686  36.7329369
  61.3708801  61.5713425  35.8707619  67.0312119  43.7609901  46.3053284
  67.4148254  44.5999069  46.0498085  67.1240616  43.2087936  45.5289993
  69.0494461  13.2873106  87.3163605  68.5022049  12.7240229  86.7691269
  69.6352692  12.6826782  87.7718430  84.5149307  39.7593498  30.2909393
  84.9990921  39.0873413  29.8111229  85.1864471  40.3757935  30.5829830
  42.6258583   8.4873419  66.6974030  42.9217262   7.8035359  66.0964813
  41.9441338   8.9531822  66.2131729  80.9932632  36.6936455  62.8019829
  80.7010727  36.6719513  61.8907280  81.9485245  36.6655655  62.7479439
  83.8638306  11.8083324  80.3183746  84.7802429  12.0810041  80.2728348
  83.8826141  10.8716536  80.1221313  59.3719711  51.3497620  29.5554447
  60.0745544  50.8464508  29.1440029  58.6448097  50.7314568  29.6273174
  21.1928616  65.0081940  13.2913761  21.9585896  64.5947800  12.8926516
  20.6108685  65.1951828  12.5547962  20.3015308  52.5564270  46.1884689
  20.8141537  51.7924461  45.9243088  20.8415337  53.3057442  45.9371719
  28.9493179  45.6453285  82.5636597  29.3456459  44.8939590  82.1225281
  29.3703918  46.4067688  82.1647339  82.4458542   0.5290154  87.9072189
  83.2914963   0.7797974  88.2790070  82.3501740   1.0844533  87.1335449
  26.9428902  53.3821449   5.6413436  27.0528088  53.8571701   6.4650564
  26.6759300  54.0522995   5.0121732  66.9187469  45.5841980  42.3541336
  66.7424011  45.7199211  41.4231606  67.4209671  44.7699738  42.3865585
  58.1419945  40.8129387  24.2242603  57.4939690  41.4292984  23.8830929
  58.1272583  40.9498100  25.1715088  59.4143372  33.9324188  60.3368607
  60.3421440  34.0088463  60.5594940  59.4011688  33.8757629  59.3814278
   6.4504423   0.7509210  76.3806381   5.5914907   0.4000590  76.6158600
   6.2678790   1.6315190  76.0528412  28.4521236   9.5428686   8.3264303
  29.4002609   9.6093559   8.2130852  28.1071301   9.4945393   7.4348726
  18.6130753  17.3466511  80.0783386  18.0927334  18.1489258  80.1211472
  19.2208996  17.4937801  79.3536758  45.2511444  59.0174522  17.6436539
  45.9283142  58.3656693  17.4623833  44.4274826  58.5375557  17.5569820
  61.7374573   2.8280606  29.5073986  61.6340446   1.8774517  29.5507622
  62.4891701   3.0131376  30.0703430   4.6541953  28.8118763  42.3871841
   5.3743405  28.9186630  43.0086479   4.2498479  29.6780834  42.3379936
  71.5200958  71.1031265  65.1722946  71.4636002  71.9521255  64.7338409
  71.8847122  71.3026505  66.0345459  22.3416061   1.5661267  83.9981461
  22.3424969   0.7636443  84.5199203  21.4990845   1.5555733  83.5439682
  17.2652435  33.0390778  19.8092155  17.6625366  33.8685150  20.0745907
  17.9801102  32.5509911  19.4005947  77.2277527  22.4082355  66.6560059
  76.8564987  22.2590256  67.5255661  77.0287323  21.6079369  66.1700592
   4.4936380  65.6456757  40.1646423   4.7311664  65.2806931  41.0170517
   3.5384700  65.5894318  40.1377678  82.0497971  66.0979080  77.1907654
  82.4256592  65.5706558  76.4858017  82.6294327  66.8567200  77.2574921
  80.0876770  47.5473442  43.5945168  79.4347000  46.9482422  43.2326660
  80.8662338  47.0050545  43.7210045  55.2439194  52.5516281  32.6850662
  55.6980286  53.3697586  32.4833717  54.9168434  52.2445030  31.8395309
   8.4762030   6.8962045   1.4296299   8.6264944   5.9574718   1.3181566
   8.8681021   7.2954049   0.6529152  67.7347260  23.7665005  67.4548035
  68.0139084  23.9847546  68.3439941  66.8027191  23.5652390  67.5390015
   2.8066435   8.4940090  21.3422089   2.7104499   8.0040569  22.1588631
   1.9459373   8.4388857  20.9270229  34.8268394  31.3049374  14.3816738
  34.6742554  30.5379295  13.8297224  35.5753746  31.7448978  13.9787321
  45.5393486  17.5225430  61.6285934  45.6803207  16.8173008  60.9969330
  46.0095673  17.2392845  62.4127426  86.9691620   5.9961357  78.8872070
  86.2903595   6.2949824  78.2820969  86.6159363   5.1904111  79.2643967
  41.5130424  62.1274757  63.5425224  42.4555435  62.2543602  63.4337692
  41.4137268  61.8348198  64.4484558  65.7217865   1.8892754  31.1670513
  66.6131897   1.5507257  31.2508163  65.2889099   1.6277548  31.9797325
  36.2712212   2.5034413  76.8538361  36.4712105   3.4393091  76.8735123
  37.0245438   2.1066859  76.4164276  29.7265034  12.2819662  29.1135139
  30.5848312  12.6484785  29.3260555  29.1018467  12.8902712  29.5084839
   3.9701543  23.8768654  26.7066860   3.8456650  24.0879822  25.7813950
   3.4920297  23.0571175  26.8317490  59.8997841  61.2696304  64.8706818
  59.3534164  62.0519295  64.9463120  60.3082428  61.1786156  65.7315598
  62.3654366  62.9388351  12.5014849  61.9616470  63.5619812  13.1055355
  62.2016678  63.3066139  11.6330671  11.0186663  17.0670681  20.1475601
  11.7111006  16.6014442  20.6165600  11.1213064  16.7938499  19.2359409
  51.3398323  41.8045807  17.5705814  51.7996635  41.8612137  16.7329788
  51.9660225  42.1423798  18.2109013   6.4313855  13.9045086  59.3035469
   7.0558171  13.1852274  59.3981552   6.0951419  14.0477066  60.1882286
  71.3691025  14.9386120  48.9980278  70.8960571  14.1362934  48.7772484
  71.3427887  15.4605503  48.1960793  68.4763031  56.5684586  84.8421402
  68.3002625  57.2735519  84.2191696  67.6240463  56.3759155  85.2330551
  14.0264368  68.7166977  13.5372467  14.5702353  67.9376068  13.4209042
  13.9669189  69.1000900  12.6622057  21.5199986  59.1099472  71.6968002
  21.4065990  60.0426865  71.8794632  21.4918003  58.6921577  72.5575485
   4.7025008   7.0575442  10.6357851   5.1720834   7.7595348  10.1853046
   4.2228098   7.5008583  11.3355007   7.3915920  26.0098915  79.4963303
   7.3439307  25.5609703  80.3403854   7.3227224  26.9392090  79.7150955
  12.3838453  30.1014977  15.2171249  12.0729733  30.2521744  16.1098099
  12.5295572  29.1566010  15.1705360  52.4944496  41.8899422  80.8645172
  52.2600975  42.2383003  81.7247238  52.6883926  40.9664078  81.0248413
  82.7169418  26.6957092  70.2931671  82.5351257  26.5899715  71.2269745
  82.0606689  26.1513062  69.8582306   5.6817160  59.6441956  30.5010643
   5.0844035  59.0506210  30.0459595   5.2038951  60.4720230  30.5522404
  73.1585617  71.2876434  85.4429398  73.5318909  70.5769882  85.9643097
  73.9161072  71.7150650  85.0433578  82.1089630  68.4242706   1.9777063
  81.9018250  69.1270981   2.5936270  81.2844772  67.9502945   1.8690522
  86.0661316   5.7584519  47.4257011  85.7958755   5.0945406  48.0600624
  85.9121704   6.5917544  47.8708229  56.7765274  30.9113274  71.2329407
  55.8999596  31.2556858  71.4040680  56.8758354  30.9705486  70.2827530
  58.6268654  62.6310120  31.4990559  58.8224068  62.1688576  32.3141670
  58.2854271  63.4796753  31.7808781  82.2885437  23.6403732  71.1890488
  81.7509384  24.1271648  71.8137512  81.9521942  23.8990421  70.3310394
  36.8074646  42.1873093  78.7807541  37.1681137  42.3422775  77.9077377
  36.3658752  43.0060730  79.0062714  57.9413681  57.7334900   9.6684999
  58.4127426  58.4886398   9.3166695  58.5906258  57.0302505   9.6805887
  32.3992958  16.2188663  14.6426449  32.4902725  15.2891836  14.8515606
  33.1971092  16.4350739  14.1599665  71.6178513  55.7272148  20.5434303
  70.9325562  56.3935242  20.5947742  72.3323593  56.1544151  20.0709820
  75.3345490  58.4867058  34.1657677  75.4261856  58.1139412  35.0426254
  74.3915787  58.6075058  34.0542145  44.1027641   1.5252806  12.1321259
  43.4435539   1.4506482  12.8221292  44.4950104   0.6536771  12.0803308
  55.2236137  36.4986000  33.2262802  54.3628502  36.7094040  33.5880585
  55.3269501  37.0994339  32.4883423  82.4444885  65.7990341  69.2584839
  82.0648575  65.3673477  68.4931335  82.8526382  66.5911102  68.9088287
  73.8276367  36.9131393  48.6089249  73.8772202  35.9572449  48.6153450
  74.6369934  37.1978188  49.0333405   0.3146662   9.4251537   7.1648722
   0.2271243   8.4971104   6.9473786   1.2483826   9.6084700   7.0609446
  55.5450363  70.0519028  85.3136444  55.3732224  69.6471939  84.4633942
  54.6792145  70.2909851  85.6444397   9.5910778   9.9426775  72.8180542
  10.2246342   9.9658022  73.5352097   9.2161665   9.0628586  72.8579559
  66.6215363  55.6678810  68.6891632  65.8220825  55.3932991  69.1382904
  67.1733093  54.8857460  68.6827011   6.4356127  58.1164742  32.9629478
   5.6860480  57.5249748  33.0301208   6.3096414  58.5689850  32.1289215
  65.1374207   0.8421733  33.6472588  65.7543259   0.1103632  33.6363449
  65.1948929   1.1906325  34.5369225  19.8994007  24.5188866  30.6317253
  19.5272808  23.6901665  30.9333572  20.5893631  24.7162647  31.2651482
  55.0753937  22.2896976  23.2763653  55.5810585  22.2011337  22.4684715
  55.0001564  23.2346096  23.4094639  19.1987267   7.0332007  55.6388206
  18.6842728   6.2906928  55.3221970  18.5512562   7.7163930  55.8127785
  54.7409058   9.1305895  28.5612698  55.3544540   8.4048538  28.6757145
  54.3565140   9.2582817  29.4285469  42.5012856  57.7017746  22.4291859
  42.2314453  57.2269211  23.2152710  41.6832161  57.8840408  21.9668255
  59.8328514   3.2117808  21.0323372  59.4542999   3.3371048  21.9025230
  60.2034035   4.0651412  20.8071728  47.7099075  58.8717537  80.1256332
  46.9281120  58.5502243  79.6765823  47.4356995  59.6991806  80.5211182
  63.0088272   8.6326313  87.7861938  63.6654701   9.2811546  88.0401001
  62.2499390   8.8330097  88.3340683  12.3127089  11.3592968  50.3231621
  12.4129076  12.2901974  50.1241226  11.3736038  11.1955738  50.2365112
  77.9181671  71.8968353  51.9597168  78.2946396  71.3687820  52.6637459
  77.0779190  71.4793320  51.7702370  57.7991104  53.9100418  10.7590570
  58.1652260  54.4467049  11.4620380  56.9983559  54.3667564  10.5013075
   2.8453505  30.9323292  42.3399544   2.5053391  31.1311493  43.2123642
   3.0495551  31.7876377  41.9618301  54.1503563  62.2543182  70.1578445
  53.4633293  62.8858147  69.9446716  54.8530998  62.7832832  70.5354462
  85.2610168  48.9888954  56.9842415  85.5863342  48.8669205  57.8761635
  84.3605270  48.6654587  57.0114174  19.5415516   0.9972658  61.1403656
  19.7367058   1.8136661  60.6803284  20.3910389   0.6937959  61.4605331
  37.2108459  62.9746819  38.5053482  36.7572136  62.3372955  39.0568810
  36.5696411  63.6720047  38.3681564  36.6476631  36.9068031  14.9737787
  36.2448425  37.7155418  14.6576986  35.9603767  36.4813881  15.4865093
  55.3113251  63.5525436   6.3371449  55.8115921  64.1346054   5.7651567
  55.1864471  62.7572021   5.8193903  22.8907661  44.5648232   7.8836598
  23.8108253  44.7135201   7.6654596  22.5758457  45.4163933   8.1867790
  13.8396196  55.3305626  46.5749588  13.4448719  56.2011604  46.6246071
  14.5969448  55.3773346  47.1584854  78.0131302  32.0393028  60.4376450
  78.6727524  32.2315063  61.1041222  77.1784058  32.1007729  60.9020653
   2.0527797  16.9663734  61.9048462   1.6536124  17.0150661  61.0362091
   2.5340812  16.1389885  61.9012222  77.4576187  46.9950676   1.3911909
  76.6799088  47.4164429   1.0253485  77.1322403  46.5073967   2.1478529
  82.8045731  41.9864769  84.0074234  82.5271301  42.8593140  83.7291946
  83.7091064  42.1038742  84.2977219  23.7307930  38.7442627  10.9145565
  23.6082668  38.6079826  11.8540497  24.2460632  39.5486946  10.8544178
  15.5145216  57.9464531  88.6635437  14.9336748  57.7711258  89.4038925
  16.3951759  57.8073082  89.0118561  47.2277069  11.7942743  63.9217987
  46.6003418  11.0981636  64.1169357  47.4358597  11.6762199  62.9949951
  29.7318516   0.0594040   6.6615076  30.2333488   0.6958150   7.1711273
  30.3283501  -0.6806873   6.5488725  30.8004570  57.4162331  47.8526001
  31.7139683  57.5089188  48.1230392  30.5918751  58.2467232  47.4248009
  56.4140358  39.4418640  22.4821014  56.6324387  40.3546448  22.2940521
  56.4688454  39.0027237  21.6333485  71.3843765  55.6716232  67.0178070
  71.8211517  55.3012695  66.2508011  71.0380173  54.9121132  67.4862137
  48.3085289  60.9642715  48.2066612  47.9290199  60.6996346  47.3687057
  47.9897003  61.8564720  48.3428879  67.5775223  48.9046745  35.0171242
  67.1035538  48.3182678  35.6067963  67.1998215  49.7683105  35.1836052
   6.7691898  14.4616356   5.4695358   5.8922806  14.7001438   5.1689110
   6.6545892  14.2454786   6.3949409  45.0370674  48.5611191  12.1420355
  44.4403000  49.3065720  12.0757265  44.7712936  48.1121941  12.9445715
  20.3053722  29.2330799  18.6863918  21.0520515  29.1426849  18.0943356
  20.2927570  28.4146748  19.1826649  61.1322861  20.8242588   8.8384304
  60.8632393  21.1078167   7.9646788  60.4403419  20.2256012   9.1195984
  69.5323715  43.4940414  49.4260254  69.5354385  42.9303741  48.6523933
  68.8349457  44.1277237  49.2579002  24.3222961  39.1746788  79.0520096
  25.1491661  39.5826225  79.3091049  24.4160538  38.2584152  79.3125916
  30.3276634  68.6828918   2.7652402  29.9988632  69.3616333   3.3546751
  29.9714432  68.9168701   1.9081559  74.7360001  62.1100044  83.9603043
  75.3718262  62.5610504  84.5157394  74.6769791  61.2292099  84.3303604
  56.3580132  33.0108528  38.2972450  56.5036316  32.0976601  38.0500450
  56.7006989  33.0752411  39.1886749  14.2793808  33.8188896  57.2446518
  14.4001026  34.3665314  56.4689255  15.0625620  33.2693558  57.2741203
   3.4407673   2.6274693  33.1634178   2.5939243   2.5530021  32.7234840
   4.0760655   2.3305795  32.5118942  75.1680603  60.0631866  42.7656174
  76.0380020  59.7569733  42.5093765  74.5837631  59.7158928  42.0916557
   1.1108631  30.2005634  70.4050827   0.2969899  29.8627453  70.0312881
   1.6011885  30.5308800  69.6522827  34.6977577  51.3032074   7.8802166
  34.0394745  51.1062012   8.5466137  35.4134674  51.7145309   8.3647804
  62.5546417  24.2006702  42.8902206  61.9236145  24.7070522  43.4016991
  62.4248657  23.2966690  43.1768761  27.2077122  61.5457802  85.8987503
  27.1848907  60.5994911  86.0410385  26.3641071  61.8576508  86.2263184
  79.9717484  48.4370575  38.2324219  79.3583298  48.4994240  38.9645805
  79.7070541  47.6447906  37.7650070  78.8599472  54.5177803   6.6827407
  79.7383118  54.2616730   6.4014802  78.8273010  54.2826385   7.6100345
  80.0930939  45.2719765  88.4446487  80.2044220  45.3075333  89.3946838
  79.5262070  44.5147476  88.2981033  81.6924667  40.1848068  14.7312164
  80.7777328  40.1082382  14.4598627  82.1926575  40.0635796  13.9241571
  77.0840912   0.8219410  30.5611000  77.9741516   0.5900946  30.8261795
  76.6660995   1.1268610  31.3664169  83.8284073  46.8256493  74.8150406
  83.5579376  46.1647606  75.4524612  83.0339584  47.3307457  74.6419601
  58.5947914  31.6274223  80.0839767  58.9830208  31.8361073  79.2342911
  58.9143829  32.3146629  80.6686096   5.7835798  31.6939735  28.9790592
   5.5981965  31.3069725  28.1234341   5.7250190  30.9605980  29.5914001
   2.0511584  13.6922941   3.5162468   1.8326070  14.6236467   3.5486357
   1.2820562  13.2530336   3.8792408  17.5077915  51.2883492  14.3821487
  18.2574024  51.2444153  13.7885275  17.5993900  50.5167389  14.9411287
  63.4852219  25.2642174  16.7632999  63.3232460  25.4164944  15.8322744
  64.3121643  24.7827148  16.7869225   0.3756131  59.3062515  49.0693817
  -0.1141940  58.4850960  49.1143990   1.2943954  59.0383644  49.0869408
  71.3068848  36.7042809  61.0775795  72.1817551  36.9353142  60.7653885
  71.1746674  35.8054314  60.7762184  77.0739517  65.5053101  15.0021181
  76.9086914  64.9877319  15.7901783  77.5998001  66.2447052  15.3070841
  46.7812157  11.3889923  83.2502136  46.3670082  11.8990316  82.5541382
  46.4958153  10.4894381  83.0902710  50.0827332  27.4454670  65.3171616
  49.5390205  27.3299503  66.0964355  49.8629112  26.6995564  64.7590179
  58.4481926  35.2582474  10.6205282  57.6787109  35.2269821  11.1889973
  59.1132965  34.7546349  11.0898228   8.1982212  30.6818771  38.9211464
   7.5396581  30.2312107  38.3925362   8.7576590  31.1229553  38.2818413
  26.6970615   9.3165359  42.7954712  27.5667858   9.4680777  42.4255447
  26.2793522   8.7095337  42.1844940  80.2392197   7.6193805  42.7952766
  79.9375000   7.3617563  41.9241714  79.4863358   7.4633055  43.3653984
  57.8755722   0.5207496  39.0824661  57.3722153   1.2893338  38.8138733
  57.5299416   0.2981881  39.9468956  60.0806732  47.7271919  81.7815247
  59.3701553  47.6044159  81.1519852  60.8791199  47.6564026  81.2583542
  44.5832062  43.1703415  81.3618546  44.1002541  42.8532753  80.5986633
  44.3444176  42.5657959  82.0645142  56.4306374   9.6709385   9.7157154
  55.4792137   9.6534615   9.8192768  56.7027740   8.7629490   9.8488569
  68.7319260  24.2912273  18.2359581  68.8166275  25.1581287  18.6328716
  68.9038086  23.6814480  18.9534931  10.7245827  37.3151932  38.3283577
  11.4239521  37.9635201  38.2459793  10.3127432  37.5127220  39.1695480
  35.8510132  45.7993202   6.2570252  35.9169273  45.7320824   5.3044672
  35.7205467  44.8981895   6.5522814  83.8711243  16.6786194  42.1015549
  84.7236862  17.1108360  42.1521339  83.6337662  16.5096722  43.0133400
  31.3187408   3.6676080  45.6344185  31.4883804   4.3670387  46.2654877
  30.6236343   3.1461849  46.0358887  70.2104950  39.2877922  69.7914963
  71.0060959  39.8195343  69.8138123  69.9691544  39.2565804  68.8657455
  64.1222534  54.4061623  68.1986542  64.0814896  55.0192528  68.9326096
  63.2248955  54.3688507  67.8676147   5.5750537  35.0879173  50.5008354
   4.8856692  34.4454498  50.3328667   5.9925923  35.2192879  49.6495819
  62.7878761  31.7116642  45.3022003  63.5966148  31.4452057  45.7394333
  62.6696053  32.6273651  45.5546646  45.0244637  56.8924713   4.1759243
  44.4428329  57.6335182   4.0062394  45.9058914  57.2599792   4.1107035
  32.6718025  27.7505112  21.3306713  32.3206062  27.1686440  20.6566372
  32.8396378  28.5739918  20.8724766   6.2994280  54.4260674  81.1113510
   6.7432017  54.0102310  81.8505249   6.0173812  53.6962471  80.5599518
   4.8262620   1.4006003  25.9981823   5.4427276   1.1051356  25.3281803
   4.0106506   0.9443889  25.7911053  70.1991882  17.0749340  47.5007973
  70.4260178  17.9744186  47.7368240  69.4571304  17.1641083  46.9027786
  45.4425430   5.7436581  80.7569351  45.4286690   6.0494533  79.8499985
  45.1944809   6.5111804  81.2723007  16.6398468  31.8251648  75.3246613
  16.9381809  31.3022957  76.0688629  17.2394180  31.5953522  74.6147842
  49.4373131  61.2129517   3.7103074  49.1570778  61.8374557   3.0412090
  49.6511993  60.4181976   3.2215810  69.0734787   7.3481269  51.3115120
  68.6173782   7.4622631  50.4777374  69.9395905   7.0213690  51.0679588
  72.6729736  28.3560410  69.0696335  72.9470367  29.2259579  69.3600845
  72.8726578  27.7825432  69.8095322  33.6417580  57.4186249   2.7541871
  33.0629501  56.9786873   3.3768170  33.8465958  56.7480431   2.1025782
  42.2758827  65.4365845   8.8953743  41.9895477  64.5265121   8.9729185
  43.2044792  65.4160461   9.1267052  60.4998131  42.9338531  17.7327461
  61.3156700  43.0819588  18.2109451  60.4110222  43.7010040  17.1672134
  29.5842037   7.5589137  17.4530544  30.1523972   7.7169361  18.2069893
  29.7207241   6.6358695  17.2395515  37.3252335  51.0315247   1.8945427
  38.0406876  50.4557991   1.6245437  37.7561035  51.7430992   2.3680859
  50.0976219  30.3197079   7.2294345  49.7386475  30.5891418   6.3839922
  51.0303535  30.5265102   7.1704745  78.6721802  21.9339657  84.9880142
  77.8549805  22.2128372  85.4011002  78.7413712  22.4773674  84.2030563
  70.1970215  50.6325607  53.0790024  70.2763519  51.4351082  53.5946159
  69.7588425  50.0144196  53.6639214  62.0740128  14.6350412   2.3481658
  61.8005295  15.5523405   2.3469534  61.4352760  14.1939373   1.7881025
  29.2292347  50.9801254  15.8615055  28.3606129  51.3087196  15.6296530
  29.1625214  50.7620125  16.7911339  76.6159363  69.4471970  84.1478882
  76.5241623  68.5113983  84.3270187  77.4229660  69.6989746  84.5968246
  63.8338890  67.3481140   7.7452021  64.6747208  67.8000336   7.8159475
  63.6108704  67.1146927   8.6463165   2.3953743  36.5167007  44.4680328
   2.7773082  37.3413582  44.1675377   3.0996418  36.0905075  44.9565010
  12.7701406  65.1990051   1.3436824  12.0882807  65.8594055   1.2205100
  13.2371731  65.4807739   2.1302714  61.1169472  20.6767120  68.2358170
  61.3425560  19.7953434  67.9382935  61.0468864  20.5977478  69.1871719
   6.7403464  44.9241333  38.6632118   6.6197953  44.7558441  37.7286644
   6.1224284  45.6277504  38.8615341  13.1204319  39.1842041  76.6455307
  12.2553968  39.0728760  76.2511292  13.0865116  40.0475349  77.0575256
   2.7751396  46.4795303  88.3376770   2.2647424  45.6962128  88.1323853
   3.6062610  46.1428986  88.6725616   7.6343575  23.5563812  11.6173582
   8.0920019  22.7203484  11.7059231   7.2710543  23.5379410  10.7319756
  14.8285475  49.3842506   8.1866789  14.0320272  49.1598740   7.7055936
  15.4815941  49.5470772   7.5060539  74.5024185  22.8405647  81.3466263
  74.1028137  23.5615120  81.8332367  75.3654938  22.7314491  81.7459183
  76.7033234  48.7685928  83.3971329  75.9801025  48.9390640  82.7937012
  77.4642868  48.6443176  82.8299179  79.7248383  57.2515640  31.9027691
  79.0968475  57.7539253  32.4218979  80.5808487  57.5222549  32.2347260
  60.8854561  69.2578888  32.1616058  61.4658356  69.8918457  32.5828972
  61.4707870  68.7028275  31.6463127   8.8674259  28.1970158  86.2195435
   8.8252687  27.3842602  86.7234039   8.7464638  28.8886738  86.8700867
  10.0868893  64.6368866  40.6100082  10.4412785  64.3320770  41.4453125
  10.3253460  63.9525528  39.9846573   5.0493560  28.9536800  48.9561539
   4.2203617  29.3224697  48.6512032   4.8154650  28.0924187  49.3022118
  36.3230247  29.3088341  81.6824188  35.6296883  29.3841724  81.0267944
  36.4803467  28.3676472  81.7575760   6.3160291  11.1404343  33.0050697
   7.1299930  11.4219198  32.5873871   5.6282091  11.5992823  32.5227890
  39.1692352  47.2219620   9.2875080  39.8208237  47.9212952   9.3384457
  38.3276672  47.6780128   9.2907095  47.5301323  48.3500748  31.5778465
  48.2976608  48.8693466  31.3380814  46.7890129  48.9395599  31.4382725
  15.9090452  21.9134922  27.7632828  15.1532173  21.5903511  28.2537270
  16.6136723  21.9560165  28.4097538  56.7807617  69.2750854  57.0426750
  57.3355331  69.6610947  56.3648415  56.1900024  69.9827652  57.3004036
   4.5771694   3.0340075  76.6737061   4.5911622   2.3465984  77.3396683
   4.2170844   3.7974575  77.1250610   0.6706370  61.1259003  14.9293795
   1.2135649  60.3406563  14.8597164   1.2586287  61.7929802  15.2836475
  76.9911880  18.6653366  35.4769440  77.8192291  18.2910194  35.7777176
  76.3451920  18.3609352  36.1143265  77.0171280  32.6351852  21.3687763
  77.2217789  32.3105621  20.4918671  76.4327164  31.9735184  21.7387657
  64.0235443  26.2028961  83.8144150  63.5697365  26.9852657  83.5010681
  63.8905830  25.5554428  83.1220627  38.2912674  17.7157536  34.0077820
  38.8651810  17.3781147  33.3201370  38.8177567  17.6648960  34.8055649
   3.2745917  23.1377029   2.6967595   3.4921308  24.0590363   2.8383589
   4.1041889  22.7315845   2.4456244   8.4937944  26.8241196   5.2269669
   8.9041023  27.6223335   4.8941994   8.0979662  26.4187393   4.4554629
  62.6698036  60.0427437  54.6946754  62.0545654  59.7267151  55.3563690
  62.6562805  60.9950447  54.7904510  79.9539566  13.7717113  34.0153580
  79.2472153  14.3334007  34.3335533  79.5059128  13.0264349  33.6152916
  45.7032814   7.5554304  40.0407982  44.8629341   7.2320828  39.7160034
  46.0327301   6.8495250  40.5970306  44.3167191  69.1024246  62.5559006
  44.2342606  68.1519775  62.4778595  44.0942955  69.4343567  61.6860847
  35.1782532  64.4632568  72.0394211  34.2761497  64.3258667  72.3284988
  35.7123184  64.2080002  72.7916489  70.1338196  59.4798355  25.1887474
  70.7332687  58.9144363  24.7017002  70.4861603  60.3617744  25.0692959
  55.7835846  49.3574028  85.2254028  56.6093636  48.9888725  84.9115372
  55.4436150  49.8524933  84.4800568  42.5137253  51.2870827  15.9500732
  42.5961189  50.4765549  16.4525547  41.7301025  51.7088394  16.3026199
  63.0971832  41.9520607  39.2000999  63.9234085  42.4213181  39.0844307
  63.3530350  41.1002197  39.5538483  38.2019653  41.9641113  14.3933067
  38.4497147  41.1376419  13.9788170  37.4964447  42.3055687  13.8438759
   0.4293694  12.6647940   0.3971055   0.0859137  13.4432211   0.8356500
   0.1772783  11.9380856   0.9668226  55.5992432  48.3617096  47.9159660
  55.1957397  48.1607666  48.7603798  55.9749947  47.5303993  47.6261902
  74.7722244   7.2471695  56.7583084  74.3608398   7.6492739  55.9932518
  74.3015900   6.4222221  56.8774567  54.2006302  68.7194901   4.7461119
  54.8783951  68.1069946   4.4602647  54.6831284  69.4322510   5.1649289
   8.9116039  68.2436676   2.0444813   8.9522839  69.1615219   2.3130379
   8.1460781  67.8943253   2.5007281  71.4900513  61.2665787  30.5822430
  70.8122635  61.6534843  30.0280457  71.0986099  61.2388535  31.4553051
  15.4745979  56.5152054  59.0288315  14.8828878  56.1664009  59.6954994
  15.1651688  56.1302490  58.2088966  21.3277931   9.4038944  59.6667061
  21.1913605   8.9411211  58.8399925  22.2603016   9.2931118  59.8521461
  37.9031868  62.5732346  88.0221405  37.9544334  62.5022850  87.0689468
  37.0106583  62.8743668  88.1922607  23.8146572  53.4199257  27.7068119
  23.5341911  53.2158890  26.8146572  23.5030613  54.3123283  27.8576508
  43.1419106  64.8422089  37.8263130  43.8640594  65.0630035  37.2381096
  42.3637161  64.8655701  37.2694435  45.2645721  20.0631104  24.2439079
  45.7224731  20.7959805  24.6555614  44.8929443  20.4324398  23.4428349
   6.6279902  23.3516617  27.6321373   5.8335238  23.5667667  27.1434822
   6.9623713  24.1976337  27.9300537  57.7419090  46.5684776  79.7658691
  57.8396950  46.2108727  80.6483612  56.9649620  47.1251564  79.8177490
  14.7393131  66.1379242  26.0245876  14.1630220  66.6749115  25.4807491
  14.1436281  65.6212387  26.5671997  57.3053741  16.4484978  54.7686844
  57.4956512  15.8956680  54.0107880  57.1724014  17.3220387  54.4006119
  74.0270538  17.0615158  49.5862160  73.7353592  16.1498623  49.5919228
  74.1693802  17.2732277  50.5087967  24.1475925  20.5300198  88.8770523
  24.9505138  20.0137844  88.9481277  24.1719608  21.1161499  89.6334229
  54.0253563  56.3136749   0.4655861  53.3308449  56.9562569   0.6103948
  54.5689011  56.3672180   1.2516679  27.0777035   5.3768067  86.3928757
  27.1038914   5.2704597  85.4419632  27.9964905   5.3620968  86.6609192
  85.1702652   0.5264900  45.2935829  85.7826767   1.1913668  45.6084290
  84.3054962   0.8776200  45.5059814   0.3611065  14.0043736  27.5351925
   0.5917149  13.5630045  26.7177296   0.3186674  13.3012533  28.1833057
  34.8242569  51.8973160  19.0810184  34.3373413  51.4099922  18.4164410
  35.7134514  51.5463867  19.0318317   2.5183094  40.7201653  20.3550320
   2.8152254  39.8855934  19.9923229   3.3194404  41.1493378  20.6554184
  83.5028915  18.6416702  86.7041702  83.2907333  18.9366779  87.5897217
  84.4226837  18.8791218  86.5865479  48.7366676  37.4349632  17.9933243
  48.1394806  37.9963570  18.4877224  49.6103439  37.7237701  18.2569790
  75.5874023  50.9452477  37.0459328  76.2447586  50.2603989  37.1688042
  76.0652924  51.6646881  36.6333122  49.2808876  22.0263958   6.8764334
  49.5830650  22.3982315   6.0477843  50.0686455  21.9762840   7.4178791
  86.5899811  68.6657715  15.7727947  86.5972519  67.7204514  15.6226330
  85.9211807  68.7963715  16.4450111  32.1154366  71.3192291  16.6270351
  32.3724670  70.4220123  16.8395634  31.6315575  71.6184692  17.3968048
  22.8095646  53.3092270  70.0024872  22.5066700  52.6820755  70.6591187
  23.7130814  53.5012474  70.2535172  70.6880798  65.3425217  36.4415359
  70.7976608  65.8470306  37.2475700  70.8356628  64.4343414  36.7054863
   6.6430297  62.6498146  62.6431503   6.3027225  62.8693161  61.7758331
   5.8875856  62.7332802  63.2250175  81.0518417  52.3506927  75.1839066
  81.7592545  52.9877243  75.0839462  80.9034805  52.3037529  76.1283722
  76.6106949  27.9489937  53.4985275  77.1146545  27.9771900  54.3118286
  76.2499542  27.0628014  53.4708939  44.1300240  56.2300720   7.0546775
  44.3761215  56.5506668   6.1869864  44.9616585  56.1308784   7.5181170
  58.5756302  36.0648575  31.8981991  58.5950584  36.3109283  32.8230247
  59.3846436  35.5709801  31.7647152  82.1977158  65.5982590  44.1513367
  81.5925140  65.8101883  44.8619995  82.9290237  65.1567535  44.5831833
  66.3801422  11.7832499  42.1620941  65.7742004  11.8842249  41.4280167
  66.1015015  10.9753714  42.5932846  64.3427887  23.4835339  73.3866653
  63.9379272  24.3379250  73.5361023  63.7020149  23.0032883  72.8622513
  77.7044220  52.1227570  30.0928440  76.8342361  52.0249634  29.7062721
  78.1424332  52.7671890  29.5368919  12.2727661  17.3128166   1.9723448
  12.8131933  17.4971848   2.7405756  12.8390417  17.5139523   1.2272892
  80.4432144   0.9856195  68.7963181  80.7550125   0.7472703  67.9232712
  79.5323410   1.2474074  68.6621399  83.3988342  43.4670029  48.0204277
  83.0558624  42.9497719  48.7491798  83.0305328  44.3405800  48.1525269
  86.1902313   8.8773079  81.6935196  85.4515305   8.7801371  81.0925903
  86.9625549   8.7146978  81.1519394  45.1007652  37.6070442  14.4438820
  45.9217606  37.9100227  14.8316975  44.4538460  38.2593536  14.7126255
   2.3457046  13.5367374  80.7705841   2.3346403  14.2820663  80.1700897
   2.7427356  13.8799734  81.5710754   0.7113952  68.0631104  29.4577618
   0.3301320  67.3324280  28.9709663  -0.0291018  68.6414413  29.6406097
  49.3522110  22.4774189  70.0749893  48.7130966  22.4416523  69.3633041
  49.7404442  21.6026592  70.0924454  18.3800468  25.2078342  28.1755180
  17.5574188  24.7714500  28.3970604  18.9654579  24.9992390  28.9035397
  61.8568840  22.3847351  10.9334393  60.9710922  22.5822163  11.2377539
  61.7290726  21.9490185  10.0907974   5.3408294  32.1884880  52.9698257
   4.7150207  32.4149818  52.2818604   4.9778018  32.5825310  53.7630272
  66.8803329  27.9513702  12.8389492  67.7423935  27.8225555  13.2345247
  66.9584274  27.5693150  11.9647818  57.4056282  59.6470032  65.0924835
  57.0693512  58.9978333  65.7103271  58.2222519  59.9528351  65.4872284
  82.3631516  44.9217758  83.4909286  82.6688919  45.3396111  84.2960129
  82.8732605  45.3382874  82.7962723  69.3463516  69.0569534  18.3890991
  69.9725342  68.6181564  17.8132629  68.5872726  69.2278290  17.8315792
  55.7593079  63.4222260  55.0456314  56.7005501  63.4242783  55.2196808
  55.4126587  64.1254196  55.5947952  40.2534790  43.5698166  14.8402281
  39.4421501  43.0837669  14.6928244  40.0732689  44.4457893  14.4990091
  70.0875015  25.6642151  51.3781624  70.1958618  25.3362598  52.2708740
  69.3037567  26.2123089  51.4178352   3.2757561  66.1894913  74.5090408
   2.5939000  65.5202637  74.4503937   3.7572923  65.9715195  75.3070602
  59.2206230  19.1929245  41.4523087  58.7979126  19.2087402  40.5936470
  58.7678146  19.8702698  41.9547005  61.7315178  63.7271729  57.8445473
  61.8185616  64.0048981  56.9326706  62.1049232  64.4483185  58.3512459
   8.8326092  30.7239742  29.5060616   8.9054356  29.8053589  29.7650490
   8.5425577  30.6935158  28.5943737  24.7277336  45.9565277  84.6635742
  24.8703823  45.7028542  85.5754547  25.3363152  45.4110870  84.1652222
  19.5336990  38.4621391  54.2516632  19.7123528  37.8839531  53.5100327
  20.3949471  38.7853317  54.5162964  46.0008430   8.1531696  75.4725266
  46.4249954   7.3902392  75.0797577  46.7055779   8.7927876  75.5748520
  70.7330780  26.0833530  77.8143005  70.6790695  25.1777935  77.5088806
  71.3142700  26.0456696  78.5739136   9.4239521  70.5214767  88.6466751
   9.1420050  69.7865677  88.1020126   9.1948338  70.2602997  89.5385971
  75.3602676  24.4394436   7.0716724  75.8809204  24.2401943   6.2935634
  74.4564133  24.4568462   6.7570634   8.2644424  56.6053200   3.9127119
   7.5572248  56.0330849   3.6150196   7.8185353  57.3232536   4.3621244
  76.2758331  38.3063698  20.2007446  76.8183136  38.3399277  20.9886684
  76.0752335  37.3773079  20.0874596  64.0293198  51.5229683  67.4250031
  64.8489380  51.0581284  67.5934677  64.2321014  52.4402504  67.6086044
   9.4459782   5.4083500  61.5364647   9.4664841   5.3784146  62.4929771
  10.0373240   4.7074199  61.2621689  80.8714218  71.6805115  62.7307510
  81.6218109  72.2716446  62.7916679  81.1809998  70.8601379  63.1146545
  76.7134171   9.7555933  35.6521301  77.5331955  10.1153307  35.3133392
  76.6909103  10.0322971  36.5681877  64.3116608  44.5928383  79.6841278
  64.7763901  45.0850029  80.3609085  63.4031410  44.8854065  79.7564697
  69.6499710  55.6236763  26.4421120  69.2065506  56.4663200  26.3443241
  69.1735535  55.0331726  25.8585358  14.9035892  12.7042885  63.0975189
  14.5750809  12.3495045  63.9236183  15.1007376  13.6205721  63.2919083
  21.6806068  55.6255989  72.9963760  22.3819294  55.2003593  72.5028687
  22.1334877  56.2341805  73.5801239  28.1404057  54.0911446  14.4817543
  28.4801540  53.6108017  15.2367868  28.9201908  54.4352379  14.0461330
  43.4712448   1.3376417  59.2617073  43.0320206   1.4442493  58.4179382
  44.2934723   1.8183117  59.1661377  25.0586872  23.0780582   9.2521696
  24.1408501  23.0274029   9.5190802  25.4263859  23.7788239   9.7906475
  55.2384377  57.7927017  87.6911774  55.0836983  57.5031509  86.7920380
  54.9997482  57.0385056  88.2301102  48.6025276  35.4397621  57.8730202
  49.2068329  35.0285835  57.2549744  48.1548615  34.7060776  58.2943649
  17.5553169  30.4101124  70.5726318  17.4249496  30.9025612  69.7622452
  17.8801117  31.0585670  71.1973343  57.8634644  51.4149132  83.1445770
  58.7477837  51.7349014  83.3229446  57.8931084  50.4868736  83.3771515
  55.7464790   3.3127244  30.3030663  56.3086891   2.5409501  30.3702831
  55.7508736   3.6896122  31.1829338  50.2469978  22.9899330  78.9472351
  49.9033356  23.1641808  78.0710068  50.8567963  23.7089596  79.1127014
  40.9627380  14.1050711  76.8026276  41.5716057  14.0742102  76.0646820
  41.5244980  14.1859331  77.5734253  77.8661499  68.5078430  44.8547096
  77.6846390  68.8543396  43.9810829  78.5465240  67.8492966  44.7145844
  21.3986225  63.8532066  17.2536182  22.0798550  63.4652214  17.8028202
  20.9114933  63.1038322  16.9110165  15.4304762   4.3989267  59.4622116
  16.2972679   4.4173222  59.8678780  15.0718479   5.2715735  59.6237831
  33.3453102  65.7793045  56.0137863  33.2833786  65.7984543  55.0587845
  33.9840965  65.0908127  56.1986198  67.9082108  29.9230499  83.7634583
  67.6350479  29.0056744  83.7575226  68.8263550  29.9013062  83.4936752
  78.9502335  17.1597557   9.0844746  79.3485260  17.5800991   8.3223038
  79.0317535  17.8070736   9.7848778   1.7860609  60.8591614  21.0774460
   2.1115351  61.5627174  20.5159264   2.5345483  60.6250572  21.6262589
  53.9651184  45.0365601  30.9124775  54.8547974  44.6842575  30.8883839
  54.0399323  45.9035110  30.5136852  71.0985107  17.3050728  58.1967049
  70.4136124  16.8239746  57.7322845  71.2989044  16.7610664  58.9583664
  75.6014023  51.2557220  65.8673553  75.1572800  50.9655113  65.0706329
  74.9814911  51.8556290  66.2821579  19.3381996  -0.1017354  73.8608398
  18.8761578   0.5427769  73.3247833  20.2346897  -0.0936950  73.5254745
  70.7475204   3.4997947  87.1286011  69.9281311   3.0101850  87.2001572
  70.8895569   3.8583763  88.0046539  80.7396851  61.1623421   7.1206751
  80.6290359  61.3926697   6.1982121  80.5054245  61.9592972   7.5962949
  75.5971451  68.6287689  21.2144051  75.5782928  67.8436661  21.7616653
  74.9750595  69.2256393  21.6303291  81.1006851  15.1581345  40.4204445
  80.8932190  14.8847561  41.3140068  82.0567856  15.1374903  40.3795471
  10.5461826  19.6876907  32.9252586  10.0823078  20.5033607  33.1142960
  10.5378952  19.2097149  33.7545357  27.5760727  27.3329697   4.6809149
  27.1350727  26.5544968   4.3407226  28.3499298  26.9928303   5.1300054
   7.8846941  29.0461826  49.2445869   6.9330411  29.1255875  49.1791382
   8.2010345  29.2194290  48.3579369  75.8872375  38.5300941  55.9882965
  76.0335083  37.8678169  55.3128510  75.4617233  39.2528152  55.5269394
   7.2981992   9.1862841  49.8080711   6.5582600   8.7056894  50.1792183
   6.8971677   9.9152737  49.3348045  70.6302261  52.1786804  42.6069450
  69.8920135  51.8301010  42.1071815  71.2809753  52.4089622  41.9438286
  35.4938774  28.0844059  34.9554977  36.1356239  28.7942429  34.9326096
  35.8939476  27.3831558  34.4412766  30.3428135  68.6702118  73.2893829
  30.5026951  69.3488541  73.9452209  29.3986282  68.5176773  73.3278275
  75.7743683  29.2326641   7.8151531  76.5559540  29.0055943   8.3189278
  75.8245773  28.6818771   7.0339074  17.4783821  53.3926582  60.9815140
  18.2090855  53.0106277  61.4676819  16.7306862  52.8344841  61.1951103
  20.6791458  22.3929291  59.9890213  19.7634754  22.2282467  59.7639427
  21.1754551  22.0240936  59.2583580   5.5984025   6.4163671  81.0479202
   4.9599776   7.1044416  80.8603058   6.2441683   6.8371134  81.6155396
  74.3076324  51.0364342   0.0591589  73.8270340  51.5573273   0.7025301
  73.6563873  50.4291267  -0.2919698  59.6774368  16.2663021  49.2743797
  59.6906052  16.8099899  50.0620728  59.7510529  15.3695812  49.6010361
  71.2949677  49.9812622  27.9247398  70.9508820  50.1281433  27.0436840
  71.1247177  49.0552216  28.0970592  32.6835632  19.7801571  75.2167130
  33.0379715  20.0846291  76.0521317  31.7387371  19.9120865  75.2950287
  61.7567711  62.7483673  54.3733788  62.1622772  63.6044807  54.5107231
  60.8743210  62.8409462  54.7324677   8.5094519   4.3977942  78.5248642
   8.9515095   5.1027079  78.9980621   9.0510750   3.6250861  78.6854858
  69.6774979  66.5771408  24.1121731  70.4354935  65.9926376  24.1174202
  70.0290375  67.4227676  23.8336811  10.9986057  26.8521538  64.7280807
  10.3639011  26.2182007  64.3941879  10.5056200  27.3738060  65.3613815
  13.5093203  45.1030731   6.1209440  14.4535227  45.0252266   5.9843678
  13.3110008  44.4556732   6.7975330  76.4567719  47.2448425  66.6337662
  75.8959885  46.5167694  66.9014664  76.1908112  47.9716721  67.1969833
  70.7177353  58.1793213  60.8115730  70.2636642  58.7548561  60.1960983
  70.1198425  58.1046371  61.5553322   8.4285088  21.3820686  55.0854454
   7.6292505  20.9474182  55.3829308   8.3154869  22.2960243  55.3464890
  69.2303772   6.2135000  37.4652901  68.5818405   5.5559273  37.2138405
  70.0591660   5.7352438  37.4901505  29.1660748  19.5350056  19.5982361
  29.1157188  19.2434311  20.5085545  28.4123669  19.1254177  19.1735077
   2.7993011  71.4167557  71.3620911   3.4651115  72.0093384  71.7110443
   3.2874506  70.6368408  71.0981369  62.4575882  50.6085320  61.1585808
  62.9960594  49.9973793  61.6613426  62.5101242  50.2889519  60.2578354
  83.9872055  19.4270630   9.2859211  83.9970322  18.4765778   9.3986702
  83.2954025  19.7308254   9.8736000  83.5739441  69.9753418  24.6795578
  83.2520370  70.0505447  23.7812519  83.0891190  70.6432419  25.1644192
   0.9284534  12.3028240  25.5307961   1.7874014  11.9037094  25.3924198
   0.3045446  11.6159525  25.2958965  46.1428070  27.7920284  76.8045654
  45.4895744  27.0924149  76.8123932  45.7027245  28.5352459  77.2171021
  79.7022476   5.0555596  22.1786709  80.1314087   4.4087324  22.7387276
  78.9311447   4.6027355  21.8372211  84.9167480  60.3193092  32.4907455
  84.5663071  61.1952438  32.6525040  85.0303955  60.2784004  31.5411968
  59.3473701  67.6653824  24.8583050  58.7851982  67.1398849  25.4275551
  58.7511406  68.2866974  24.4403114  75.4803314  25.6074924   1.8965063
  75.0251312  26.4277172   1.7060983  75.2954636  25.0499382   1.1407361
  66.0531464  26.2073860  67.0005493  66.7352524  25.5417137  66.9119720
  66.5000687  26.9575787  67.3926010  20.9285259  18.7303715  29.4505806
  20.4358025  18.0070438  29.0629559  21.7811222  18.6991062  29.0166035
  63.0395508  45.8852348  35.3651772  63.9825249  45.7401276  35.4424629
  62.6556473  45.0118523  35.4429741  68.5593033   6.5309315  66.4176636
  68.4854813   7.0311413  67.2304153  68.2208328   7.1192799  65.7427444
  48.6166382   6.2317290  71.9667358  48.5176086   6.2189522  71.0147629
  49.1994820   6.9716878  72.1370010  39.6514206  25.1773472  33.3470230
  40.3521118  25.8239708  33.4315147  39.9872284  24.4004822  33.7941742
  61.7701492  58.7515564  60.9765816  61.3019638  59.1341591  61.7186394
  62.4522896  59.3900948  60.7687759  67.8354187   6.5100627  79.5237122
  67.0041199   6.9834843  79.5560760  67.7035751   5.8401594  78.8528290
   3.3923395  23.7072029  63.1725845   4.0779233  23.2074547  63.6158218
   3.8141456  24.0432167  62.3817596   3.2002654  30.7929039  72.2989120
   2.5544846  30.2725353  71.8209839   3.4653482  31.4731121  71.6798172
  54.3553238   0.3841380  35.5383301  53.4837685   0.0834531  35.2810211
  54.9283104   0.0926311  34.8291473  81.9713364  57.9420700  57.6732330
  81.9610977  57.2657051  56.9959908  81.8338394  58.7605743  57.1963959
  79.4370575  44.1552620  72.8612442  79.2024841  44.9937668  72.4636078
  78.6591034  43.6095924  72.7460632  74.5946732  42.6392632  67.1389236
  74.5336761  42.9066963  66.2218704  75.1725311  41.8762474  67.1279755
  26.5947514   6.5179715  72.4821320  25.6542034   6.6867738  72.5378799
  26.8716602   6.4025059  73.3910980  66.9873428  42.7922020  16.3814640
  66.5185394  42.6492538  15.5592594  67.8931427  42.9514580  16.1161423
  72.9881821  40.2253685   6.7994046  73.2377548  39.4795418   6.2537999
  72.8269730  39.8466339   7.6635823  59.3712196  11.0270185  77.7865982
  58.6199837  11.5954580  77.6170349  58.9852638  10.1785088  78.0040894
  29.2175846  55.3758278  18.1741314  29.5211105  54.5621071  17.7716866
  29.6234703  56.0674515  17.6515007  67.6800385  15.0811605   9.5018816
  68.6246948  15.1707001   9.3760519  67.4850693  14.1863451   9.2234478
  49.9042206  54.6307335   6.1921978  50.0839157  54.0472145   5.4550085
  49.0735359  55.0504341   5.9684911  54.0499268  18.2694359  26.6278782
  54.0244293  18.9366837  25.9420490  54.9495850  18.2951546  26.9537354
  66.6884689  65.1099701  17.9748039  67.2025833  65.1367416  18.7817745
  66.0877762  65.8515396  18.0487957  45.7947388  54.4081345  76.5638046
  45.2406197  54.6898994  77.2916718  45.5673523  54.9999123  75.8466415
  48.8832092  40.5028992  75.7832260  49.6838875  40.2903137  75.3036880
  48.8691673  41.4595070  75.8137894  29.9887886  26.8677864  13.8600445
  30.8279972  27.3045845  14.0055399  29.6162357  26.7669239  14.7359800
  25.2006340  49.7393227  31.7124233  25.6191063  49.7325096  32.5732765
  24.4328728  50.3000145  31.8237629  86.0853348  56.9773483  20.6271744
  85.8062210  57.2696152  21.4948769  86.8083878  56.3740349  20.7987595
  29.0075836  64.1402588  12.6400185  28.1546574  64.4206619  12.3081665
  29.2477493  64.8104401  13.2798719  54.3689575  36.9931335  81.7206497
  54.0901642  37.8938942  81.8853836  53.5563774  36.4872208  81.7200699
  37.9302940  38.5450592  20.8227100  37.7330894  38.6925163  19.8977242
  38.8197136  38.8807373  20.9344521  40.1077957  41.1912003  82.8535385
  39.4302597  41.4128113  82.2147369  40.5539818  40.4330750  82.4761887
  60.4847450  49.1735611  15.1317225  60.4626999  48.4527168  15.7611065
  61.4136467  49.3878860  15.0454664  84.8628540  11.0757036  86.0441437
  85.3304214  10.8436451  85.2417984  85.0681152  12.0004101  86.1820526
  17.2368927  10.5797548  26.6269875  16.5080795  11.1114159  26.3069897
  17.9953556  10.8908272  26.1328220  55.3795357  31.8939972  34.2971458
  55.4815979  32.6242256  33.6867523  54.4564934  31.9197941  34.5492592
  21.8925800  28.5432129  57.4557800  22.5454350  28.9108562  58.0514717
  22.2139702  28.7649460  56.5818367  82.5456772  15.5436096  74.1731644
  81.9386292  16.2761345  74.2786865  82.0832138  14.9295540  73.6028137
  68.2110977  35.3001137   2.3227019  67.6081619  36.0322037   2.1933098
  67.7718124  34.5532684   1.9159049  28.7502441  55.0556107  65.8851089
  29.5937939  54.6808434  66.1384964  28.7985115  55.9683037  66.1695404
  16.3142796  49.1432228  78.4462738  15.9208927  49.4985886  77.6492844
  17.0968666  49.6765327  78.5854492  81.2471161  67.5276718  71.2025986
  81.0583801  68.3944168  70.8429108  81.1482544  66.9330673  70.4590225
  80.4889145  67.6437836  56.5498505  79.7495499  68.1537781  56.8807068
  80.3892822  66.7842636  56.9591560  52.5455093   1.5446148  79.5269241
  52.4391403   2.3658934  79.0469055  53.1825409   1.7482251  80.2117310
  19.2799911   3.5536623  82.9481506  19.7990742   3.8961515  82.2204971
  19.7273769   3.8720064  83.7322006   2.7263958  67.3026733  53.1567993
   2.2982357  66.5053177  52.8451462   2.3820086  67.4295883  54.0408363
   0.3973726   8.7199917  56.9167900   1.0430288   8.4931097  57.5860329
  -0.3895417   8.2372866  57.1697617   6.4186311  50.3797836  45.7602997
   6.8609080  49.8927383  46.4555740   5.4928961  50.3556099  46.0024986
  67.8267899  29.5381813   8.7860270  66.9270706  29.8083191   8.9697523
  67.7459564  28.9059582   8.0718908  65.5553207  14.3012505  78.1078491
  64.6950378  14.4915648  77.7337646  66.0801620  14.0063219  77.3636780
  82.9879990  10.1444893  69.5736618  83.7812881   9.6241550  69.4464951
  82.2892151   9.6129112  69.1924133  79.5175705  44.5796089  17.2390614
  80.0048370  45.4034920  17.2353306  79.2688446  44.4525909  18.1546135
  64.3139038  35.4113045  29.2246742  63.8065796  35.6112709  28.4379921
  64.0531998  36.0828972  29.8549385  65.9314957  42.1921883  68.0313339
  65.5234222  42.9955673  68.3542862  66.8708038  42.3750496  68.0534439
   0.3284113  23.4081783  73.8127213   0.2671010  23.5771732  72.8725586
  -0.5728205  23.4772224  74.1277542  59.9062805  47.0118027  33.5431099
  59.9130936  46.0755615  33.7422104  59.2025299  47.3670158  34.0860558
  27.2506561  28.9270363   9.1638298  26.5396500  29.5426426   9.3419580
  27.6048050  28.7138405  10.0271721  17.6987019   7.6613750  79.2025604
  17.1271572   6.9228883  79.4128113  17.4755917   8.3291302  79.8510666
  28.2612057  20.7915077  32.0382195  28.8523273  20.0990028  32.3335876
  28.5785847  21.0209465  31.1648006  41.8736153  25.7056770  18.9660358
  42.4629478  24.9536648  18.9077606  41.9981537  26.0392857  19.8545322
  65.1269684  65.1310349  85.7597122  64.9752884  65.9735031  86.1880493
  64.5787354  64.5138550  86.2442322  55.8416901  49.0065041  22.3889065
  55.8129501  49.3627930  21.5009518  56.5967751  48.4182205  22.3866081
  55.0599709  19.9369183  29.9755211  54.6878815  20.1506329  29.1198864
  55.0857849  18.9802303  29.9932823  82.4942169  41.9187546  79.2286453
  81.9758072  41.6239090  78.4799423  81.8471527  42.1099205  79.9076080
  50.9132729  40.7091904   6.6699929  51.7465057  40.5813904   6.2165360
  51.0618439  41.4675407   7.2348490  71.9691315  66.9707336  60.7534866
  72.6810303  67.2751923  61.3162766  71.2210159  67.5156479  60.9976616
  24.7056351  53.3865929  32.1852570  25.0215282  54.2684708  32.3820572
  24.9635639  52.8646736  32.9450607  75.7391357   3.0459466  43.8406067
  75.0874405   3.1064329  43.1421356  75.6941452   2.1352739  44.1319542
   4.1379285  56.4956551   3.4293728   3.3344460  56.8901558   3.7685149
   4.1636095  55.6252136   3.8267384   1.3513366  20.5759869  26.6230068
   0.6806132  20.3665581  27.2730064   2.1549668  20.6789474  27.1327209
  41.6068268  52.7790413  28.8889751  40.7945366  53.1689110  29.2121181
  41.4422302  52.6181641  27.9598560  34.3171654  69.8560257  75.8079910
  34.2920609  69.9360275  76.7615128  33.6002731  69.2572021  75.5989227
  30.1052666  68.9828568  77.6792755  30.9382038  69.2466431  78.0702515
  30.0316505  69.5177002  76.8888626  50.7202034  30.0449085  22.8460388
  49.9268341  29.5412540  22.6640110  50.6146088  30.8497601  22.3387928
  86.7772522  13.5395994  37.8814735  87.2486954  14.2011576  37.3751984
  86.0022888  13.3426323  37.3552933  43.9779015  16.4725552  76.4849930
  44.0825958  17.0410175  75.7220230  43.2296791  16.8392963  76.9560471
  66.1707687  12.0019779  34.6690178  66.7031250  11.3735981  35.1568298
  65.3461304  12.0440693  35.1532021  87.1704178  65.4210510  38.2281952
  86.5154419  64.8022003  38.5510902  86.7160797  66.2633820  38.2109871
  70.6262360  52.3540688  33.3981972  69.8621521  51.8120232  33.2017441
  71.2864761  52.0764771  32.7631721   8.9285240  41.7985382  19.5732346
   9.8822269  41.8560524  19.5151501   8.7682972  41.0512428  20.1495228
  71.5704269  58.5863228   8.5010195  71.5070724  58.9517593   9.3834457
  72.0971603  57.7941513   8.6070862  13.3435545  25.6465893  39.1882820
  14.1387901  26.1786613  39.1612320  13.3923340  25.1028309  38.4020386
  70.2536697  26.5760593  34.7060051  70.9084320  25.8778706  34.7135773
  69.9375687  26.6177750  35.6085434  74.6481323  14.1418018   6.6740589
  74.8052063  15.0858641   6.6566086  74.2941132  13.9740038   7.5474119
  47.7519493  51.2097244  34.4987297  46.8595238  51.3083267  34.1669350
  48.3092499  51.3575287  33.7346611  26.3175507  64.4484024  75.9190216
  26.4717541  65.2206497  75.3748856  25.9938240  64.8004074  76.7481842
  48.6064224  41.1766548  28.8395844  47.8472862  41.5425262  29.2935467
  49.0665970  41.9394112  28.4893379  64.7020264  18.0752964  18.8788223
  65.3687439  18.6114006  18.4495106  63.8726387  18.4924355  18.6457062
  36.9860268  63.0892334  64.9088669  36.3685379  62.7905159  64.2412567
  37.7964096  62.6188889  64.7131882  14.6475058  20.9437923   7.6276278
  13.8483667  20.4804573   7.8784866  15.0521011  21.1909752   8.4591532
  18.0205898  21.7222443  53.4617538  18.3825207  21.8642578  54.3364372
  17.2142048  22.2378273  53.4496078  75.3704987  61.2664795  47.2618713
  75.1262283  61.8901863  46.5780907  76.3042297  61.4212418  47.4047623
  36.8305740  43.2435875  11.8518314  37.4392509  42.9777069  11.1625891
  36.7167244  44.1849136  11.7207899   5.2786407  34.7460365   2.3550823
   5.4406943  35.4812546   2.9462013   4.5044022  35.0061569   1.8559608
  80.3469925  38.9879494  43.7579918  80.3031158  39.7847366  43.2293739
  81.1175308  39.1105232  44.3124924  51.2453880  58.1333504   7.1637526
  51.5504112  58.5252800   6.3454719  50.3664970  58.4916306   7.2879143
  56.5506516  47.0227585  74.8637314  56.0231438  47.1330643  75.6548080
  56.0482750  46.4123650  74.3240356  26.8856602  43.4146576  12.6806755
  26.1492405  43.9004517  13.0520544  27.6383762  43.9942589  12.7977715
  80.8511658   5.0770950  68.3349915  81.1405792   4.5086470  69.0486755
  80.2070312   4.5537348  67.8581085  61.7318230  44.1594505  10.3690529
  62.5401039  43.7403717  10.0736055  61.0490837  43.5109978  10.1969891
  41.4065590  45.9780426  24.6600857  41.8298378  46.6313705  25.2170639
  41.8660927  46.0430984  23.8229313  71.8476944  31.4662342  16.2613125
  71.9402237  32.4063950  16.4154778  72.1776886  31.3356800  15.3723288
  78.8373795  28.9873314  32.2845116  78.5049973  29.5064487  33.0168152
  79.2942657  28.2548828  32.6980400  85.6568985  49.4324799  11.1483870
  85.6461411  48.6364021  10.6169958  86.0292282  50.1000328  10.5722208
  84.4631805  13.2486916  15.5162802  83.6376877  13.3772774  15.9834595
  84.9634628  12.6525831  16.0736008   5.1832771  17.8619957  79.4201431
   4.7491684  18.4994774  78.8532181   4.5460649  17.1542683  79.5166626
  62.2416191   1.5640789  58.7151260  62.9299507   2.1689842  58.9917488
  61.6884689   1.4604386  59.4894104  57.0795059  47.8141594  87.5632629
  56.1743927  47.5351906  87.4247665  57.0120506  48.7410851  87.7923660
  78.9132614  30.7883148  58.0142250  78.9432144  29.8408566  58.1471024
  78.1918106  31.0852623  58.5688057  66.6228638   9.3913651  40.2108879
  65.7224350   9.4800196  39.8984795  67.1494675   9.8520899  39.5576973
  81.0033798  53.9778442  26.3056049  80.1468506  53.6442719  26.0385475
  81.6307678  53.4473763  25.8144608  50.9467125   3.3398812  60.6021538
  51.8212433   3.7087390  60.4781799  51.0986481   2.4053092  60.7425880
  22.4925766  19.5419350  26.7152500  22.4978123  19.6037960  25.7600651
  22.7577305  20.4121227  27.0130768  11.4981136  58.3626060  60.8962631
  10.7638702  57.8992882  60.4932060  12.0605202  57.6680069  61.2389908
  13.1508951  15.5860481  21.3630676  14.0698242  15.5127077  21.6207924
  12.7820101  14.7212420  21.5426960  79.9450226   4.1240668  61.9023857
  79.3090210   4.6799326  61.4521141  80.7856522   4.5598364  61.7621269
   9.6768732  50.8561325  63.6053581   8.7986431  50.9134560  63.2289848
   9.8688602  51.7457275  63.9019966  49.5220833  24.8848667  59.1978188
  49.9615555  24.0471821  59.3440361  48.8273354  24.9089222  59.8558311
  84.8052139  59.6786728  29.4030170  85.6208496  59.2976189  29.0778008
  84.2902451  58.9272232  29.6969032   0.7320682  52.1291542  84.1629410
   0.0645042  52.5576859  83.6272659   0.6236061  52.5129242  85.0331039
  15.4627151  18.7414074   1.3561289  15.1434565  18.1759300   0.6528932
  16.1353340  18.2209015   1.7953216  84.5129776   8.6633415  79.4968414
  83.5991211   8.3990965  79.6030273  84.7887802   8.2486467  78.6794128
  21.9713097  45.7596626  83.9915695  21.5067825  46.4977264  84.3861694
  22.8977509  45.9648361  84.1174316  60.7472076  36.6696053  80.5462952
  60.0424271  36.5753746  81.1871033  61.4245148  36.0623436  80.8441544
  83.4410095  70.9378815  71.6730118  84.2664795  71.0801620  71.2097626
  82.8501816  70.5861816  71.0070877  67.8218765  25.2182503  32.8577728
  67.8083420  25.8685875  32.1555557  68.7463531  24.9899254  32.9549828
  17.9078484  27.0007477  24.5595284  17.7150364  27.5301342  23.7857037
  17.9235134  27.6288929  25.2816219  83.6203918   0.3449375  27.0037537
  84.4778366   0.3552922  27.4291019  83.2069931  -0.4592866  27.3176899
  81.8818817   6.5214810  12.8402395  81.2408447   7.2080331  12.6559906
  82.6278458   6.7334752  12.2791376  52.8671074  59.5049286  59.1642990
  53.6730804  59.1801720  59.5657616  53.1494522  60.2417641  58.6224594
  32.2163582  27.1769848   9.1796875  32.6902237  27.1769772   8.3480120
  31.2927094  27.1597748   8.9290810  32.5455971   1.5840719  85.3674164
  31.6918831   1.9912647  85.5143814  32.4947128   0.7474841  85.8297577
  59.9051056  43.8597755  44.5167313  60.2364235  44.6925621  44.1806870
  59.5914993  44.0646858  45.3975792  85.4299316   9.0306129  51.5207939
  84.9616776   9.7980251  51.1920891  85.5563812   9.2082405  52.4528313
  68.0418320  51.7198334  73.1013031  67.1447601  51.5248337  73.3723526
  68.5093231  50.8912163  73.2065582  83.6623459  17.7653065  77.9735260
  84.5495605  17.5451145  77.6896515  83.2568588  16.9205723  78.1690750
  84.4894562   0.8679383  32.8622551  84.2081680  -0.0427126  32.7738228
  85.4061890   0.8103694  33.1315613  36.6601143  53.7982292   4.8410549
  37.2797050  54.1526146   5.4788251  36.0489616  53.2791061   5.3637729
  83.5601959  29.6250591  88.2047043  83.4992447  30.4338436  88.7130203
  84.3102722  29.1629200  88.5789337  76.3084869  58.7396545  44.9425583
  75.6353149  58.0748444  45.0878410  75.9399872  59.3102417  44.2681122
  63.9090347  62.4410706  74.9042816  64.7222900  62.4923630  74.4020691
  63.4555244  63.2613640  74.7101746  12.3335333  20.3568497  77.0544586
  12.5649252  19.5914383  77.5806122  13.1682673  20.7952652  76.8894119
  42.5718040   1.6533542  56.7713127  42.1523666   2.1213679  56.0493240
  43.3764839   1.2998086  56.3921967  26.1597919  70.4755096  10.6774969
  26.3366108  71.1869202  10.0619774  26.6222172  70.7293777  11.4762144
  17.7327251  52.7112846  81.0494690  17.3312664  53.5559654  80.8455582
  17.9619808  52.7726898  81.9767838  38.6589890  56.8131561  -0.0357210
  38.4640694  56.8470230   0.9008105  38.1288109  57.5134315  -0.4161878
  48.2073364   1.7675420   4.2219305  47.4350967   1.8915396   4.7737451
  48.8036156   2.4692512   4.4832501  47.8947983  54.7082634  25.0352154
  48.6152229  54.3652420  25.5639477  47.9300079  55.6555290  25.1681862
  84.7635727  35.9525299  49.9157448  84.2686691  36.1734085  50.7047424
  85.6023026  35.6268845  50.2424316  24.9482231  11.9815168  40.3425980
  24.0170994  12.0477562  40.1308098  25.1681118  12.8313894  40.7241707
   5.8565655   7.6810498  36.8188667   5.3858838   6.9796071  36.3686790
   6.6272736   7.8404083  36.2740288  81.9753952  47.5889206  78.2736435
  82.2795715  46.8032608  77.8192825  82.1628418  48.3045731  77.6662445
  10.4279881  52.3193512  51.2154274  10.0511351  53.0451927  51.7127914
   9.8758078  52.2504845  50.4365921  37.4370041   3.3158374  36.4279747
  37.8268471   2.9241600  37.2095375  37.9900970   4.0737677  36.2385941
  83.0344543   2.0712368  61.9557419  83.7619781   1.6632075  61.4862137
  83.0787888   2.9952242  61.7097473  61.4350510  34.9339523  71.2559891
  61.0562477  34.1716080  71.6936722  61.0427399  34.9283524  70.3828964
  28.6825523  36.0172195  11.6009150  28.4679089  35.1274719  11.3207169
  28.0905914  36.5762024  11.0975752  47.2740479  14.8430281  70.9787369
  47.0906067  14.0691519  71.5113678  46.4176445  15.2480965  70.8418961
  75.7212677  55.3744888  88.9062729  75.1993179  55.0975761  89.6593399
  76.4380035  54.7413368  88.8657837  66.5966949  15.8526096   3.6726568
  66.9257507  16.4200954   4.3697305  65.7373734  16.2139111   3.4552810
  81.8962784   3.4190876  36.2295685  81.7280731   3.0180707  37.0822830
  82.8498993   3.4150167  36.1469116  38.0184212  55.3769875  81.0069504
  37.9997597  54.4211807  80.9587479  38.9364929  55.5905190  81.1736298
  68.3534775   3.9358461  72.0723419  69.2158279   3.6815321  72.4008255
  67.8396759   3.1286514  72.0983429  81.5988617  26.9455872   6.1989636
  81.5310593  27.8407288   6.5311632  82.3037796  26.5520229   6.7131891
  22.0383453   7.9067044   4.2002501  21.7325745   7.5556946   5.0366282
  21.9217129   7.1861081   3.5810812  32.1160393  61.8995209  60.7718430
  32.7516251  62.1968613  60.1208000  31.5439968  62.6543961  60.9102859
  22.3183289  59.5446320  79.2140961  22.9134045  59.5395813  78.4643631
  21.5805721  60.0846481  78.9306717  85.0522079  47.8563881   8.1070452
  85.1419907  46.9139442   8.2483768  84.3848114  47.9338264   7.4252696
  20.9176903   8.1896534  11.9617691  20.7651825   9.1345453  11.9741306
  21.5770149   8.0445614  12.6403484  46.8461227  29.2999363  18.3594494
  46.3013992  30.0571499  18.1446552  47.0034523  28.8716564  17.5179901
  43.4430313   9.9128542  71.4157410  42.9466133  10.0277863  72.2260437
  43.9193726   9.0921049  71.5410461  33.6850090  27.1526051   7.0892177
  34.5523224  27.1352863   7.4938159  33.8194618  27.5994854   6.2534842
  85.6925659  63.6358528  85.9671478  84.7652206  63.4124413  85.8874969
  85.7636948  64.5063934  85.5755768  69.5381012  60.2768784  68.8102570
  69.1309052  61.1130066  69.0367889  70.0230255  60.0258484  69.5964279
   7.1778474  36.6398048  69.2999954   7.8905454  36.2155457  68.8221893
   7.5662332  36.8877296  70.1389923  10.8159313  39.1952591  25.0384674
  10.7560835  38.2501755  24.8989525   9.9841433  39.4297638  25.4500122
  67.0466003  20.9759979  85.9560318  66.4225311  20.8405228  86.6690598
  67.6828003  21.5977421  86.3094635  73.1429443  54.7330818  33.0492859
  72.9282990  55.0028267  32.1563148  72.9099655  53.8052330  33.0817451
  76.0592117  18.2872486  84.8559341  76.1979904  17.7416897  84.0817642
  76.4612427  17.7945328  85.5713577  10.7881784  66.0995560  24.2551765
  11.1246662  65.9799728  25.1432686  10.1198149  65.4211349  24.1589088
  70.7105713   4.9635539  62.4842339  70.8264236   5.6938405  63.0920944
  70.1982269   5.3305650  61.7637901   6.6905904   9.7336960  16.8351994
   6.3109031  10.5552845  17.1467476   5.9394460   9.1522131  16.7173328
  30.1076965  32.1567841  21.4369869  29.9572239  33.0456467  21.7587185
  30.4335709  32.2768822  20.5450153  53.7796364  16.6304512  57.3350868
  54.5171242  16.8580990  57.9012337  53.3280106  17.4608727  57.1845322
  11.8191948  62.1228790  67.2205200  11.3335247  61.7100754  66.5064087
  11.6189070  61.5866928  67.9877319  24.9057941  68.2126389  55.4141922
  24.4633579  69.0560684  55.5096436  25.8120136  68.3874664  55.6680260
  51.1766891  47.0505714   5.4547105  50.6286621  46.5748329   4.8305559
  52.0199890  47.1427345   5.0113349  68.1264038  68.9495087  37.8449440
  68.7346954  69.1431580  37.1317062  68.6563187  69.0240936  38.6385803
  76.6350021  64.0305328  17.4804440  76.3212967  64.7372208  18.0447254
  75.8684387  63.4733238  17.3458214  78.6019058  60.9059601   1.2687075
  77.9385376  60.3685913   1.7016158  79.3123932  60.2958908   1.0705720
  73.7077255  66.7936554  44.0739174  73.3637085  65.9712448  44.4225311
  74.3921661  67.0484085  44.6926880  55.7994270  29.7251682  30.9140682
  55.2665443  30.4262352  31.2892647  56.2849350  30.1466885  30.2049599
  83.6376724  20.4415970  57.3065224  82.8596954  19.9239388  57.5139351
  84.1496277  20.4391384  58.1153030  25.0834656  15.6603622  28.5634823
  25.2111015  16.4715118  29.0553932  25.9306602  15.4953976  28.1496239
  72.0452271  59.7692833  78.5677719  72.8887405  59.4219894  78.2777786
  71.4016724  59.1428413  78.2366486  67.4868088  46.4715843  32.2056084
  68.1416473  47.1633682  32.2996864  67.9977188  45.6639748  32.1510963
  78.8047409  67.4025650  34.3506241  79.2225800  67.9450607  35.0194626
  78.3530502  66.7185135  34.8448715  31.3755951  29.5784340  43.8755569
  31.7075386  28.7827053  44.2913246  30.9059792  30.0352688  44.5734062
  49.4767265  63.5871964  44.1057816  49.0338478  64.2630539  43.5926552
  48.8919144  63.4270935  44.8464546  59.8005486  56.7521553   6.2722344
  59.9859505  56.4100266   7.1467667  59.8474312  57.7029724   6.3721170
  73.5873184  31.5618057  85.4329300  73.6839066  30.6641960  85.7510529
  74.2394333  31.6406288  84.7366791  39.6407204  43.0862350  37.1195984
  38.9328270  42.9384956  36.4924698  39.9171181  43.9887581  36.9605560
  81.2818604   2.4432788   9.5136299  82.2277222   2.5836401   9.4702520
  81.1427231   2.0073566  10.3543701  59.4161110  27.0637932  65.3514099
  59.1871567  26.2217083  64.9580841  59.9558220  27.4979000  64.6907349
  26.7136955  17.2393227  77.7944107  27.5435200  16.9411526  78.1668625
  26.1769428  17.4638309  78.5544968  51.0060349  14.0616188  24.1988106
  50.7100716  14.8937645  23.8297997  50.3169365  13.8144913  24.8154984
   6.8426890  11.0517311   2.4676116   6.9003253  10.6920176   3.3527763
   6.8852048  11.9999685   2.5911844  60.0645905  18.8077507  88.5963821
  59.5594788  18.6936817  87.7913513  59.5244446  18.4061642  89.2769775
  63.1691666  54.0381393   8.2781658  62.9838104  54.8305626   7.7742405
  62.3921204  53.4918442   8.1598835  51.3242073  58.3412247  74.6499557
  51.0571518  57.7856636  73.9176483  52.2335243  58.5701828  74.4577103
  80.2166595  61.0764046  39.8305321  81.0671844  61.4482536  39.5969429
  80.3476944  60.1294746  39.7816849  59.3218575  36.8558655   3.7342076
  58.7021332  36.2413826   4.1273789  59.2283745  36.7199478   2.7913294
  23.4771709  55.4281921  43.2219963  23.0662766  55.7741508  42.4297180
  24.1900673  54.8761826  42.9005966  29.6421986  70.6233521  14.3244724
  30.1369553  71.4386063  14.4070425  30.0652275  70.1585312  13.6025171
  63.4111214  34.4218941   6.5898237  62.8919830  35.2143669   6.4530058
  63.9633179  34.6247025   7.3449268  83.8982391  33.6759148  34.4025078
  83.6793060  33.2231636  35.2169495  83.3445435  34.4567070  34.4062157
  56.9942818  36.1002274   8.5198708  57.4417152  36.8605309   8.1484175
  57.4442368  35.9390793   9.3492117  21.1742306  37.3209000  63.0998459
  20.6506882  36.7475815  62.5399857  21.7902508  37.7430038  62.5010300
  -0.2302460  55.6756477  74.2479782  -0.1633081  56.2077751  73.4551392
   0.5300176  55.0951996  74.2117538  12.4864435  39.5353737  17.4176674
  12.9949017  39.3847427  18.2145443  11.5823107  39.6145248  17.7218246
  39.7853203  47.1331482  69.1600113  39.2801323  47.4184456  68.3986816
  39.6515121  46.1859932  69.1949997  77.0911942   0.9895646  14.2210369
  76.7707443   0.6268205  15.0468454  77.6831436   1.6947384  14.4828730
  34.2448463   9.6678143  20.0464859  34.2295074  10.4295807  19.4670830
  34.0113716   8.9318447  19.4807415  76.7881393  65.0228271  64.8049774
  76.1935196  65.5861435  65.3003006  76.6871338  64.1585541  65.2037888
  73.4500275  46.9236069  16.9231758  73.5591431  47.3689041  17.7634335
  73.6849365  46.0131378  17.1023293  57.9403229  17.0420246  21.5868130
  58.4119682  17.6156292  22.1907654  58.2216187  16.1589680  21.8262253
  75.9863358  38.1346245  84.0881958  75.0840988  38.0919876  84.4050140
  76.2011414  39.0673141  84.1018143  10.4546957  59.7593193  35.8316498
   9.5270767  59.5841866  35.6732750  10.8568888  59.7229080  34.9638100
  42.6023369  49.4872665  85.3756027  43.3713913  50.0367546  85.5267868
  42.9191437  48.5925522  85.4995117  17.4787865  33.8827400  24.3350163
  17.4909859  32.9298248  24.2453766  18.3650684  34.1080780  24.6177864
   3.9941998   9.8672256  58.2405396   3.1283348  10.2750072  58.2256012
   4.3411503  10.0094471  57.3598404  77.9868851   8.1633224  15.6424608
  78.2919769   9.0302010  15.3747425  77.7056885   8.2781563  16.5501900
  72.7559052  32.2389870  48.8844452  72.8958282  31.3284588  48.6244583
  71.8148727  32.3769760  48.7765312  71.5505829   2.2104094  33.6845856
  71.5452881   2.3704562  32.7408752  70.9218445   2.8398206  34.0377922
  38.1020775   8.0138264  85.2593536  38.7097702   7.9223742  84.5254745
  38.3170815   8.8636160  85.6438828  64.1090393  67.8887863  43.9587936
  63.3135605  67.4492722  44.2592545  64.8227997  67.3358231  44.2766037
  77.5055847  34.5907326   7.2503490  76.9144440  33.9705429   6.8235569
  78.2854080  34.5990372   6.6953406  50.3373909  47.9339943  71.6684647
  49.7114029  48.0544243  72.3825073  49.8877831  47.3576965  71.0504303
  40.5132523  39.1660233  21.6492996  41.3724899  39.5144539  21.4115238
  40.6838417  38.2579041  21.8992004  50.9065247   7.5092049  55.9250488
  50.2241135   7.2892208  55.2908936  51.2832451   8.3260527  55.5978241
  23.7651958  12.3847351  33.9192047  24.5884056  12.6930561  33.5403976
  23.8108292  11.4313107  33.8475761  79.0521393   3.8492141   0.6616361
  79.0925751   4.7513299   0.3441703  78.1445236   3.5836372   0.5135393
  84.9802017  25.3642006  29.9517765  85.5277939  24.5855103  30.0518589
  85.5618973  26.0177822  29.5635777  30.8795261  54.5208244  75.8051834
  31.8229084  54.6650200  75.8791580  30.5772457  54.4442558  76.7101669
  46.2732620   7.8623834  43.8761940  47.0299568   7.6337705  44.4159927
  46.2390099   7.1767635  43.2091217  28.2436562  31.5274029  81.5797577
  27.5915527  32.0556831  82.0401001  29.0160484  32.0905457  81.5296249
  53.1826973  60.8988800  50.7325439  53.4866638  60.6494293  49.8598404
  52.3073044  61.2579651  50.5876999  18.5109673  49.0162964  18.0052834
  18.4416122  49.8666153  18.4393082  18.5734768  48.3856277  18.7226276
  25.8956852   9.8208618  38.9735184  26.8272514  10.0209398  38.8819580
  25.5548763  10.5181761  39.5337257  50.0889702  39.8701744  65.0944290
  50.2550240  39.9565239  64.1557083  49.1418610  39.9783821  65.1810684
   4.3800492  42.4851646  11.0825634   5.1710734  42.4104500  10.5487747
   4.6988568  42.4808922  11.9851007  37.0476532  71.9229202  60.4384193
  37.2811737  71.0177460  60.2326126  36.1969643  71.8580551  60.8724136
  50.6085358  29.4060688  18.5835438  49.9552078  30.1042747  18.6271954
  50.2072868  28.7369232  18.0290375  42.3736153  45.8554153  28.5042973
  43.1790810  46.0047226  28.9994373  42.5610886  46.2017555  27.6318665
  75.6244202   0.7410194  65.5058060  76.2865295   0.0527280  65.4417953
  76.1036987   1.5512673  65.3325348   0.7080726  37.9909325  20.8344326
   0.6095585  37.0609932  20.6301289   1.2358178  38.3394165  20.1159096
  48.7644844   9.4018478  45.8546753  49.1270714   9.8885422  45.1144791
  49.0398026   8.4974613  45.7046165  46.3606148   0.5608027  74.5595627
  45.7784309   0.1319155  75.1867371  46.6550217   1.3529770  75.0090179
  76.6597824  23.3658257  28.0565376  77.1296844  23.6800518  28.8289909
  76.9982758  22.4819965  27.9133606  43.2389946   9.8088026  50.0043678
  43.6026726   9.1732368  49.3879013  42.4196091   9.4128428  50.3011017
  35.9381180  60.7709923  44.5300331  36.8786850  60.8066216  44.3559685
  35.5409126  61.2413597  43.7970810  56.6952820  63.0934792  84.6319427
  56.3605537  62.3875313  85.1849670  56.3562927  62.8951530  83.7590256
  84.7985458  48.0775681  89.0129013  85.1109085  47.3902893  88.4244156
  83.8472443  47.9718094  89.0210495  64.4630356  13.0654716  10.0076790
  65.1176147  12.3675604   9.9816828  63.6381950  12.6282167   9.7962952
  10.3926630  21.3221512  71.1469421  10.7785149  20.8958950  71.9122238
  10.9659653  22.0689774  70.9742889  82.8087692  63.7070541  30.5883160
  82.6938934  64.6557007  30.6440086  83.3423843  63.4852028  31.3513851
  39.1501389  40.8664780  86.5209274  38.8014679  41.1237030  87.3744431
  38.9225388  41.5927696  85.9404602  44.8401070  43.6830521  32.0921593
  44.5398216  44.4745560  32.5389099  45.0838203  43.0864067  32.7998657
  17.9799213  15.8666277  32.4721489  18.8309498  15.4326324  32.5324059
  18.0964527  16.6893635  32.9472885  62.3627663  69.1501617  82.0687637
  61.9361916  68.3387756  82.3442917  61.6466599  69.7791061  81.9801254
  33.7834587  17.0214863  79.2437897  33.6820908  16.1044922  79.4988937
  33.6583290  17.0213261  78.2948074  39.0855751   1.8152353  62.9135132
  39.8236313   2.2148387  62.4532700  38.7428474   1.1664977  62.2987709
  62.8315048  69.9944687  88.1704788  63.5877647  70.1919937  87.6179504
  62.3968010  69.2645493  87.7294769   7.5399632  47.7507744  13.8436108
   6.7078094  47.8679848  14.3018837   7.2976904  47.3634300  13.0024796
   1.0191373  12.9529877  70.5692368   1.3007951  13.8356228  70.8097763
   1.8300343  12.4944353  70.3492203  37.9507751  14.9403782  10.3033304
  38.7318993  14.4126997  10.1371040  37.3615685  14.7309370   9.5786219
  26.2174721   0.8042315  32.0648079  25.6944656   0.6750555  31.2736015
  26.9912205   1.2814859  31.7651863  35.3376923   6.3672342  52.6060791
  35.1858940   7.2170000  53.0197067  35.1961937   5.7309618  53.3070564
   5.0066457  64.6232681  52.1786537   4.2509751  65.1927414  52.0341072
   5.3778372  64.4917908  51.3062057  61.7528152  55.9565582  25.1734791
  62.1870842  56.3096886  25.9499722  60.9619293  55.5365219  25.5115681
  33.7432556  47.9130859  16.6151009  33.1138382  47.4300385  16.0796299
  33.6965065  47.4953270  17.4750576  34.4840508  34.3166771  13.7608299
  35.3709946  34.4650078  13.4328690  34.4363861  33.3713608  13.9034290
  44.3503761  32.6136246  77.1976624  45.2195854  32.4843025  76.8182144
  44.0526924  33.4481697  76.8355103   9.8769722  49.7048912  29.1098022
  10.0368605  48.9093170  29.6174679   9.0287209  50.0210609  29.4208317
   0.5367728  60.8148727  33.9609070   0.9911156  60.0021515  34.1829185
  -0.2265197  60.5325966  33.4569855  29.0473385  16.9949284  17.0656281
  28.5077858  17.1558208  17.8397274  29.9468269  17.0142403  17.3923988
  46.6660614  12.0303755  88.1685028  47.2897873  12.4103432  88.7872238
  47.2040405  11.4977627  87.5827255  49.2282982  61.1877213  62.1257286
  49.5131454  61.9153061  61.5728111  49.7811279  60.4533234  61.8587723
  24.0726662  20.2687588  78.1191788  23.8274021  21.1929569  78.0751724
  24.1064701  19.9861450  77.2052765  72.2233276  19.0522690  50.3763046
  71.6396942  18.3214722  50.5801163  72.9485245  18.6528416  49.8959084
   2.7482979  32.4301643  62.8241653   3.5244553  32.7071419  62.3372421
   2.6686449  33.0697479  63.5318489  51.8366394  58.0786133  47.4988327
  51.4165726  58.6567726  48.1356277  52.0400581  58.6475601  46.7564354
  20.9066391  31.9078541  82.9051590  21.4157887  31.2293663  82.4617081
  21.5634785  32.5086250  83.2571106  46.2240791  25.5411777   8.7943811
  45.4114380  25.2017593   8.4193602  46.7462120  25.8040123   8.0364056
  23.9035168  55.1821823  64.1591263  23.0327396  55.2095795  63.7626076
  24.4267788  55.7840385  63.6297913   2.5484419  44.2945518  59.1734505
   2.3715346  44.7391586  58.3444405   1.6930190  44.2304306  59.5981522
  82.0406342  42.2196541  30.6560879  82.4291763  41.9296913  31.4814301
  81.6876297  41.4210167  30.2639179  68.0641098  28.1057262   5.6284080
  67.7257156  28.8279457   5.0991397  68.6057816  27.5988159   5.0235419
  46.2972145  52.2125130  12.9013271  46.0824013  52.1132965  13.8288193
  46.9705772  51.5517578  12.7394161  33.0829582  13.9621077  16.2944279
  33.6715355  14.5375814  16.7829304  33.6644173  13.3394327  15.8580666
  17.6564617   9.7604742  71.7658691  17.4911060   8.9287224  72.2098007
  18.2924328   9.5455008  71.0835495  77.7160950  57.9143867  71.7310104
  78.3060989  57.9380836  70.9776459  77.3723984  57.0210495  71.7380524
  62.1115913  21.5595207  43.7450066  61.1793938  21.3766613  43.6275368
  62.5552216  20.8573170  43.2692566  10.3601656   3.2898741  87.4206085
   9.9582977   2.5235639  87.8298721   9.6647816   3.6652293  86.8804398
  22.4074001  13.4194689  52.5688324  22.7722473  12.8737850  53.2655029
  23.1180592  13.5030689  51.9330597  44.6433296  13.8625069  65.6952362
  44.8507729  12.9545116  65.9160156  44.7822075  14.3448963  66.5102463
  55.6791878  69.5056610   9.0116196  56.1057205  68.7823410   8.5521603
  56.1981087  70.2758636   8.7798090  40.7824516  64.8171539  45.0946465
  41.1421738  65.6574020  44.8103752  40.1962395  64.5551071  44.3847733
  26.1987133   0.3149763  41.2376747  26.7438087  -0.4657907  41.3351784
  26.1286716   0.6703601  42.1236916  33.9813576   3.9054859   7.7997994
  34.8018227   4.3776631   7.9416442  33.3894119   4.2472115   8.4699173
  64.7046967  30.2904892  54.7163239  65.5574265  30.6481819  54.9635963
  64.8530197  29.3478355  54.6412621  77.5460739  35.8700256  67.6819305
  77.3474503  36.7824783  67.4716644  76.8818817  35.3658752  67.2119217
  40.0889664  31.7495918   0.8971455  40.9659538  31.7073441   1.2783866
  39.7283325  32.5765457   1.2170203  55.4814339  26.9953194   7.3411384
  54.8120041  27.6681404   7.4652662  55.9208565  27.2419262   6.5273056
  45.8846741  63.1019211  55.9360847  45.8546677  62.3057404  56.4665871
  46.5383186  63.6524887  56.3671913  71.6892624  30.7783394  63.5822487
  72.2731476  30.7791901  62.8237572  72.1176605  31.3548870  64.2149353
  29.2798786  60.9566841   5.3514080  28.5480766  60.7087402   5.9164033
  29.5923595  60.1285744   4.9869585  86.9615479  31.8682251  14.1585274
  87.0354156  31.0705185  14.6823969  86.1337585  31.7700043  13.6880522
  47.2461090  46.7847557  29.2964954  47.0254555  45.8953743  29.5731678
  47.5634003  47.2114182  30.0924339  82.9990692  47.3306160  15.0152597
  83.5705185  46.5734215  15.1430941  82.3623581  47.0424461  14.3612080
  23.2254982  29.2345028  18.3431816  23.5827961  29.9705124  17.8463326
  23.1673679  29.5580864  19.2421513  27.4498539  13.3133249  81.7737808
  27.2983761  12.4057131  81.5101013  26.5865040  13.7239017  81.7259750
  31.1735859  68.9012985  60.6987305  30.7978859  68.2742157  61.3166695
  31.7645664  69.4356232  61.2292671  47.5269279  35.6304665  24.1678944
  46.9132271  35.7444801  24.8935661  48.0434570  34.8616867  24.4095802
  33.8205948  22.8390465  28.7508011  33.8424492  23.6111679  28.1854839
  33.6863213  23.1903782  29.6310101  45.4580688  33.6703186  15.2489214
  45.6766815  32.8578148  15.7052927  45.2249603  33.3922501  14.3631630
  18.4129810  16.1157608  15.3850613  18.5882282  16.9650497  14.9798136
  17.8568649  15.6593075  14.7537003  84.4303055  41.6820297  61.8100281
  83.7984238  41.0592957  62.1694107  85.1474762  41.1362953  61.4874229
  46.8259735   7.0622716  26.9281998  46.6738625   7.9857554  26.7275200
  46.7569160   7.0097899  27.8814621  46.3310890   6.6956754   3.8422062
  45.9640541   7.1622171   3.0913031  47.2102165   7.0602756   3.9443371
  74.0607376  22.9932384  34.6211891  74.1568146  22.4699402  35.4169006
  74.9581757  23.2029610  34.3626328  21.3917446  52.3516273  10.8865328
  20.7718620  53.0561600  11.0752411  22.2192249  52.8006096  10.7135553
  15.7975140  14.2175760  32.7858009  16.2954865  15.0210934  32.9361801
  15.4625607  13.9781179  33.6499176  83.9891052  69.6505890  42.6502533
  84.0201416  69.8464890  43.5866776  83.5090408  68.8243790  42.5941849
  38.6942024  39.4342842   7.4281502  39.0235939  39.9511681   8.1633825
  37.7550087  39.3531189   7.5941606   9.0397635  49.2308731  52.6723137
   8.7274952  50.1020889  52.4279671   9.9295540  49.1884041  52.3220253
  70.5842285  24.4597931  65.2844467  69.9044647  23.8085670  65.4578323
  70.1678696  25.2988834  65.4814453   1.1512023   8.8420973  46.6028099
   1.4516802   9.4162035  45.8982925   1.6215779   8.0208359  46.4596024
  52.5495262  66.8001785  71.8232727  53.4356155  67.0649490  72.0702133
  52.5348396  65.8533173  71.9628143  33.5160522  66.0861053  70.3433762
  34.3002396  65.6099014  70.6163483  33.3783455  66.7358704  71.0326233
  33.0704727  65.1157150  23.2726212  32.9107857  65.8130188  23.9086208
  33.6561775  65.5103531  22.6265240  82.0879593   9.2992792  41.4354248
  81.4922485   8.7908993  41.9857941  81.6524658  10.1449623  41.3286552
  54.8194847  51.0915298   2.3624482  54.3937111  51.7368698   1.7981023
  54.1038208  50.7061844   2.8679788  36.8472672  57.3282547  53.2113953
  36.7388039  57.9058838  53.9669151  36.6008873  57.8677673  52.4600945
  80.5777588  42.0080261  42.8561516  81.4681091  41.8131104  43.1485825
  80.5627975  42.9594116  42.7518768   5.8325562  22.6135006  45.7280769
   6.4101334  22.2826824  45.0401840   4.9629774  22.2968884  45.4834938
  79.4878922  46.9238052  21.6294479  78.9093781  46.2409439  21.9689465
  80.2022552  46.9702530  22.2648678  85.3839264  16.7097282  58.2993698
  84.7523575  17.1290569  58.8837624  84.8881912  16.0107613  57.8728447
  50.3889694   9.8841982  31.7497368  50.7888298  10.7314034  31.5533009
  50.9068069   9.5376625  32.4763641   3.0622671  23.7108707  35.0952988
   3.8629143  24.2189617  35.2258301   2.7792556  23.4784203  35.9796638
  25.4270935  62.9825058   0.6086970  25.3813515  63.7890663   1.1221144
  26.2749901  62.6012573   0.8366275  46.1940651   3.3735521  23.5195618
  46.4958115   2.5654128  23.9344025  46.2248650   3.1870599  22.5812111
   8.3646517  38.5343552  71.0506821   8.4151659  39.0714378  70.2599716
   9.2766504  38.4047737  71.3108673  85.8286514   0.7966495  77.0552673
  85.8945923   0.3609180  76.2055511  86.5314713   1.4464134  77.0464249
   8.0356827  60.2437134  40.3079605   8.4195318  59.4002151  40.5475464
   8.7878180  60.8228455  40.1849518  35.4981117  12.9349537  64.4138718
  36.1266060  12.5408039  65.0187454  35.7629471  12.6152821  63.5513725
  33.8208504  41.4786224  14.4495697  33.5982170  42.3115005  14.8654804
  33.4248505  41.5318642  13.5797520  54.9892502  36.3470345  68.1985550
  54.5224571  35.9965935  67.4399185  54.7823067  37.2815933  68.1963882
   6.0100927  56.2849960  88.1024094   6.7883306  56.2300873  88.6569977
   5.3578825  56.7247772  88.6477966  66.2913208   6.7389731  18.6742096
  66.4704361   6.1234107  19.3850060  65.4409332   7.1188936  18.8949795
  30.5454178  27.1257744   5.8849511  30.0599785  27.0242748   6.7036572
  30.7472324  26.2303123   5.6135693  15.9009438  29.1988468   1.8569019
  15.7348719  28.6103611   2.5933366  15.2176933  28.9858131   1.2212776
  26.3200989  54.7787476  86.6430588  27.0027065  54.9644165  85.9982224
  25.4999790  54.8851700  86.1610718  62.3634949  36.0791359  66.4422913
  63.0447311  36.7233925  66.6348495  62.8433495  35.2990837  66.1639328
  84.7028732  59.8800812  20.3841572  85.3950958  60.3185005  19.8893299
  83.9869919  59.7793732  19.7567825  65.1073914  66.4623795  32.9747276
  65.4515686  66.2798920  32.1003838  64.2196960  66.7853470  32.8200951
  78.5151749  15.0884342  68.9248428  79.3549728  14.6902151  68.6959457
  78.1582489  14.5194330  69.6068115   8.1702118  32.2136917  45.3425789
   8.8874664  32.7980118  45.5882301   8.5960064  31.3767815  45.1567917
   5.2663026  45.4533348  52.2818146   6.1602607  45.7297440  52.0801468
   4.7350459  46.2362480  52.1367378  58.2987633  59.2621689  55.2047043
  58.7593079  59.5199585  56.0032501  57.3716202  59.3028679  55.4391823
  44.7720680   9.5840540  79.5347748  44.4191780  10.0887871  78.8020096
  44.0118904   9.3989086  80.0862122  20.2258625  39.3095398  82.0630798
  20.2260818  38.3947830  82.3449554  20.9757862  39.3782768  81.4722137
   1.8399955  54.5341072  38.1419296   1.3452494  53.8508568  38.5942841
   1.2656926  55.2995834  38.1631927  79.4456482  34.3428612  21.9232922
  80.2316513  33.9563828  21.5372105  78.7665176  33.6800537  21.7979889
  14.1679487   1.9416032  47.2579689  14.8507662   1.3287015  46.9853058
  13.4754629   1.3854207  47.6148376  72.6965637   3.4416094  60.8489151
  72.5233688   3.6129603  61.7745895  71.8416138   3.2143521  60.4833488
  55.1579857  24.7714424  59.3492126  56.0023880  25.2077198  59.2357407
  55.2979050  23.8870964  59.0107040  82.4390335   3.0498352  45.3954430
  82.6488419   2.3948720  46.0612030  82.8048859   3.8653157  45.7380447
  19.4209061  44.3037720  80.2133560  19.2353554  44.3144379  81.1523438
  18.6079445  43.9967422  79.8120422  51.8389473  50.7048416  57.0094147
  52.7583466  50.7272491  56.7440109  51.8068199  51.2337265  57.8065834
  79.1582031  57.4907494  77.4206085  79.3056107  58.3322830  76.9889526
  79.0877533  57.7075195  78.3502731  68.9526901  63.2729340  25.5534992
  68.9357452  63.9001427  24.8306217  69.8835220  63.1303177  25.7250938
  17.6942196  49.9002647  49.1074867  16.8500156  49.6619339  48.7244072
  17.5592690  49.8222160  50.0519066  30.0986805  44.8392143  75.5309601
  30.5101757  45.6439743  75.2158966  30.7307949  44.4733391  76.1496658
  67.2001877   6.7840767  62.6082077  67.1408463   6.0821700  63.2563133
  66.9844055   6.3613939  61.7769394  66.4474564  50.5124359  67.1752014
  66.4296341  49.7260132  67.7205887  66.6092682  50.1863518  66.2899246
  75.8221664  54.4960594  30.0465717  75.5636139  54.0482140  29.2410793
  74.9970169  54.7895355  30.4328804  16.3029461  34.8957977  68.1894073
  16.0327969  35.4151154  68.9467468  16.7843227  35.5111885  67.6364136
  58.3597450  50.4984436  56.4983711  57.9142036  50.1425896  57.2671967
  58.6642723  49.7274361  56.0197868  36.6220398  14.3385868  33.1558990
  37.0819588  14.7277336  33.8997231  37.2073860  14.4798822  32.4118309
  82.6976700  35.9018822   3.5882969  82.7993622  36.0579948   4.5271888
  82.2364197  35.0649529   3.5332353  21.7574883  62.0844574  59.0099640
  22.4281845  61.5885506  59.4795113  21.8412552  62.9772148  59.3449287
   7.3443446  20.9070091  84.7337570   6.5549026  20.9936161  84.1994171
   7.1093087  20.2679214  85.4064789  84.8173294   6.2223568  37.0248222
  84.7337265   7.1282992  37.3223305  84.8716583   5.7094946  37.8312073
  83.5255814  28.0174351  45.2008209  83.0477829  28.8040085  44.9376831
  82.8451233  27.4090309  45.4889984  69.7777100  13.7418985  81.8460083
  70.5669022  14.1752672  81.5210495  69.2676163  14.4442663  82.2493896
  38.7668571  60.4136734  44.1359100  39.4021797  60.3756485  43.4209595
  39.2935715  60.3197212  44.9296227  28.4263058  16.9198017   5.9889617
  27.6164589  17.1798153   5.5499029  28.2940750  17.1702080   6.9033160
   4.2710848  11.1967239  72.4212265   4.3658566  12.0379972  71.9745636
   5.1506796  10.8193302  72.4103241  15.2142668  22.7347870  70.2519455
  14.4356604  22.6246147  70.7977219  15.4972801  21.8417664  70.0553589
  51.3204651   4.9199562  72.8160934  51.3384438   4.2152109  72.1686020
  50.6491547   4.6517167  73.4434891   7.0374069  13.6633930  77.5459518
   6.0870624  13.6863537  77.4339294   7.1668468  13.6633129  78.4943619
  58.7935562  18.3424778  81.7746201  59.2038078  18.8954506  82.4395599
  59.4960594  17.7643204  81.4772110  62.6897545  18.3573914  14.8960228
  62.6241455  17.6665993  14.2366800  62.3945312  17.9433022  15.7069511
  39.8094711  30.2896328  76.5169449  40.5433846  30.6063004  75.9903259
  40.1261597  29.4727097  76.9023972  79.4676971  19.6190605   7.8301206
  80.0484543  19.0762615   7.2969007  80.0589981  20.1646461   8.3487034
  31.0718689  54.5021515  28.8362446  32.0253601  54.4489937  28.7709637
  30.8832607  55.4405594  28.8291721  26.6796017  53.5253944  27.2714367
  27.1647606  54.1981354  27.7492142  25.8668671  53.4195595  27.7658978
  40.9123764  64.7647781  65.0210571  40.7082596  64.5181351  64.1189880
  41.7574921  65.2103577  64.9621429  18.1409073  17.9816990  51.6016579
  17.9943256  17.5024071  52.4171486  17.3437061  17.8367748  51.0920525
   6.6038418  44.3331642  73.5728073   6.8151588  45.2662125  73.6044006
   7.4537191  43.8939056  73.6043091   5.3729057  27.2527599  75.2533264
   6.1028380  27.3961334  74.6509399   4.7095127  27.8867607  74.9809570
  65.5674744  19.6690655   6.7680960  65.9359970  20.5004997   7.0666604
  65.6992188  19.0708141   7.5036035  25.7975941  20.0677586  26.7668571
  25.1978340  20.5046558  27.3715401  26.0081463  20.7354641  26.1141186
  42.5246468  53.0001678  60.7701073  42.9333916  53.7152367  61.2577858
  41.8146553  52.6988029  61.3369560  41.9517555   8.4402905  41.5714912
  42.4117126   8.3255568  40.7399254  42.5446243   8.0711212  42.2260551
  85.3313446  42.6706886   3.8228977  85.8469086  43.4455261   3.5991628
  85.8544846  42.2176743   4.4842100  21.3306980  46.9360466  23.8144169
  21.5087509  47.8561287  24.0093060  20.4001083  46.8256454  24.0094681
  79.9413757  38.6896706  72.8271637  79.9950409  37.7341232  72.8102798
  79.0036163  38.8761292  72.8725357  34.3831520   4.8807383  68.9741898
  34.6321259   5.6484151  68.4594955  34.8760185   4.1596718  68.5825577
  30.3296547  56.1097679  73.3642120  29.3847370  56.0583763  73.5081711
  30.7060661  55.5482979  74.0419235  81.6253586  23.7705097  31.2768955
  81.0849304  23.7708187  32.0669403  81.6504364  24.6874924  31.0035000
  12.3869944  69.6523438   3.1972711  11.6791267  70.0172348   3.7283151
  13.1511517  69.6678314   3.7735133  21.2196159  54.2740173  75.4278183
  21.3943462  54.7566566  74.6198807  20.6911392  53.5257378  75.1502914
  38.6587563  27.4570122   3.0150697  37.9910164  27.3094063   2.3453193
  39.4781189  27.1879158   2.5997794   2.4864013  20.3288345  29.4739780
   2.2108207  19.8212719  30.2373047   1.7268896  20.8705196  29.2596149
  45.7752914  50.3593559  31.0649490  45.2983513  50.5961227  30.2695255
  45.5647621  51.0559616  31.6867619  56.2367210   4.1695185  80.3375092
  55.8862839   4.9926319  79.9970551  55.9914589   4.1692729  81.2627563
  48.0365143  61.8095245  18.5115719  47.1716537  61.4277039  18.6614170
  48.5632248  61.5072975  19.2514820  48.8363724  68.8165665  43.8377724
  48.4267807  69.2078857  43.0661888  49.1960449  67.9871216  43.5233116
  72.0037842  53.9736137  45.8268509  71.6060638  54.3623466  46.6059151
  72.7628479  53.4944382  46.1591759  48.3539696  34.7792244  20.6933136
  48.0064812  35.2644844  19.9449787  48.0620651  35.2762375  21.4575119
  20.2085075  56.9281883  19.4284401  20.3996696  56.7833366  18.5017757
  20.9441109  56.5261040  19.8904438  33.3710632  65.8767319  32.0031891
  33.0059280  65.0739212  31.6311665  32.6118774  66.3495712  32.3442078
  84.1225967   4.0736561  11.4424944  83.5228806   3.3297443  11.3862238
  84.2965164   4.1708164  12.3787346  71.4112167  55.3519096  54.0019875
  71.9849167  55.8935471  54.5439529  71.8606491  55.2964134  53.1586838
  58.9518242  58.9708672  23.4631958  59.6362190  58.3450127  23.2262611
  59.2799225  59.3959923  24.2555695  41.7959633  62.7021713  39.2200737
  42.2958412  63.3625069  38.7401657  42.4611435  62.1530533  39.6350861
  48.1795578  62.0283928  11.6714993  47.3461609  61.7035446  12.0123119
  48.4050865  62.7592926  12.2469606  67.2462234   2.0264995  45.1521492
  66.9859543   1.2304356  45.6155891  67.2050095   1.7887188  44.2258720
  66.5890427  62.8216934  73.3277817  67.2293015  62.1203690  73.4479523
  66.9610748  63.5685959  73.7967758  69.4561615  49.1340904  21.0463047
  70.2855988  48.6668625  20.9464378  69.6817474  49.9182816  21.5466938
   9.3227978  56.3678741  49.7746773   8.6395750  56.8831329  49.3457870
  10.1419544  56.7774467  49.4963531  24.7221508  57.1066513  62.4739037
  24.9725723  57.5243416  63.2979507  25.1604996  57.6255264  61.7994766
  64.3837814  25.7527657  51.9097939  63.5405388  26.0967693  51.6151085
  64.4300461  24.8750305  51.5307503  81.0234680  42.5260887  71.4029617
  80.3702698  42.0719719  70.8706589  80.5117722  42.9908371  72.0650864
  58.7366257   4.8680615  73.4062881  58.3468819   4.7300353  74.2695770
  59.3244171   5.6140885  73.5253601  60.5890694  30.7421207  57.0331345
  60.3297195  30.0423012  56.4337807  59.7732315  31.2013836  57.2324257
   9.2744064  18.8756065  15.6230450   8.8494282  19.7222137  15.4856329
   8.9142618  18.5584488  16.4512596  77.2453232   3.1185732  39.8969765
  76.4894180   2.5528302  40.0543747  77.8883514   2.8468566  40.5518990
  42.4827995  53.2244949  21.3086185  43.4044724  53.3901367  21.5068989
  42.0286789  53.3747749  22.1377258  27.8408642  36.6701317  14.3756523
  28.0913296  36.6100197  13.4537611  28.6600571  36.8553696  14.8348236
  44.5256081  55.6257133  78.2976227  44.5935059  56.4738045  78.7362137
  43.6197586  55.3527184  78.4430084  15.0655031   1.2790921  79.9406586
  14.3559122   0.9888935  80.5138092  15.5284424   1.9439546  80.4504395
  25.6199799  69.9483948  29.2875481  26.4791832  69.8006287  28.8923683
  25.2296715  70.6443558  28.7588444  56.3298569  53.0223351  65.0166397
  56.3570976  52.2533340  65.5859604  57.2408600  53.3105240  64.9596252
  57.6941490  13.6429272  37.1812172  58.5386391  13.5229874  36.7468338
  57.1472168  14.0763254  36.5260353  19.1318150  55.0042839  79.0813065
  18.4690418  55.1537971  79.7555542  18.6667480  54.5360985  78.3879471
  46.4803658  21.5773716  21.2882690  46.6037674  20.9159565  20.6074352
  45.5342026  21.7198143  21.3151321  33.5998802  54.2103691  75.9384155
  33.9329147  53.9216423  76.7881012  34.3353691  54.0869331  75.3383789
  65.0640945  17.8775692  34.3934097  64.3108978  18.3738422  34.0730438
  65.7920914  18.1646538  33.8421974  81.3946381  18.9639225  84.9907990
  82.1301117  18.8375206  85.5902405  81.6923294  18.5858192  84.1633606
  10.6187477  44.5522003   3.2406654  11.0934725  43.9743614   2.6431949
  10.2558174  43.9650803   3.9038424   2.8502052  69.9423370  85.3667526
   2.3926384  69.2045135  85.7698441   2.3109083  70.1745071  84.6107864
  37.8528595  11.0535078  22.5692444  37.4695396  11.9014006  22.3447990
  37.6785812  10.5023689  21.8062878  22.1627274  51.8370743  38.2717819
  21.2417240  52.0453377  38.1149063  22.1812477  50.8840637  38.3592796
  62.4771500   9.2492990  84.7666855  63.1662216   9.0148888  85.3883514
  62.5688133  10.1952925  84.6529999  44.7305412  15.8935890  22.3950443
  44.7211456  16.8236542  22.1689434  43.8237610  15.6946259  22.6282730
  80.2717514  12.4280586  52.7921944  79.3899231  12.1466856  52.5483932
  80.5374527  13.0199356  52.0884056  19.9479904   7.2077708  82.9293289
  19.2924595   7.7594395  83.3561478  20.7847481   7.6193581  83.1453476
  31.9861469  39.0133400  81.1587906  31.8922558  39.3528976  80.2687836
  32.3543510  38.1373672  81.0433350  83.0989609  57.9282112  86.5272293
  82.7372055  58.1408005  87.3875656  83.6559906  58.6757812  86.3102417
  50.2958832  49.9890366  86.8391647  50.7665405  50.0195160  86.0062332
  50.9342651  50.2892914  87.4861221  70.6383057  66.9321976  63.7850647
  69.9286194  67.2883377  64.3196030  71.4122467  67.4271164  64.0539627
  86.1967926  31.1872730  87.7343979  85.5584869  30.8522720  87.1046600
  86.3591156  30.4518223  88.3251572  23.2726879   0.8485866  52.1381226
  22.4795341   1.1653368  52.5703354  23.1602345  -0.1011084  52.0973129
  61.6461220  37.0471840  87.9985199  60.8944817  36.6448708  87.5633011
  61.8497162  37.8147697  87.4641113  17.3628101  12.8873053  83.5126343
  16.7311344  13.5301533  83.1902008  17.7424812  13.2943296  84.2913589
  40.0436668  27.2455044  10.0925989  39.1912766  27.4799194   9.7255716
  40.6113205  27.1369286   9.3295689  64.8957901  53.3603134  35.3886490
  65.1715622  53.9675369  36.0752792  64.5079269  53.9197922  34.7157631
  14.7415676   9.6054878  71.2099304  14.0100737  10.1470537  71.5063324
  15.4622574   9.8343840  71.7968292  80.6208878  40.1640892  62.8870544
  81.2166901  39.4149513  62.8810692  80.0690308  40.0250702  63.6567039
  14.6036491  66.4565659  41.2893219  13.9311647  67.1361084  41.2422600
  15.4281168  66.9392090  41.3487930   1.3404535  24.0739651   7.0600209
   1.0452020  24.4778748   6.2439852   2.2540739  23.8409081   6.8950515
  78.1596527  10.3703661   2.3521814  77.4145660   9.9295197   2.7605064
  78.7033386  10.6527338   3.0876491  23.5787182   7.1024003  86.7195511
  24.3993187   7.5949922  86.7336884  23.3275318   7.0289984  87.6402817
  45.2066231  21.4095764  36.0880356  44.9309006  20.5120144  35.9020462
  44.7030296  21.9464855  35.4761963  72.1156769  56.9026222  38.6906204
  71.7854996  56.1580353  38.1878204  71.7684708  56.7689400  39.5725555
  42.1617432   4.6489305  77.5017090  42.9607544   4.1313753  77.4019852
  42.0049362   4.6679015  78.4457855  18.2882900  60.1828499  74.9293060
  17.5358829  59.6309052  74.7160645  17.9111938  60.9376297  75.3813400
  30.6947536  71.2187347  81.3049469  31.5800972  70.8910675  81.1467361
  30.7158451  72.1245041  80.9961319  15.4029989  62.4848404  82.5734100
  15.5822258  61.7373047  83.1437607  16.1892319  62.5683861  82.0338821
  22.8224945   2.8342302  37.1733322  22.9732971   2.4797966  36.2970505
  23.4707336   3.5326517  37.2640266  12.4783125  16.4098969  44.4870300
  12.1487980  16.9888096  45.1744232  13.3149319  16.0896358  44.8242722
  17.2497082  12.0607567  16.8742847  17.2267570  12.6519976  17.6267071
  16.4659195  12.2824030  16.3715153  62.1392593  24.7032661  48.4945602
  61.3592148  25.1287117  48.8505936  61.8198357  24.2122536  47.7375221
   6.1886454   5.9696331  56.7314072   6.0792546   6.6284280  57.4171562
   6.7362437   6.3976479  56.0732498  79.1850433  44.1404686  33.9453850
  79.4445419  45.0542564  33.8275299  78.3058167  44.1876831  34.3208389
   2.2871301  69.5100174  61.8105431   1.5567651  69.1823578  62.3353615
   2.3194830  68.9250870  61.0535431  73.1362457  30.3724651  38.8797646
  73.1725464  31.2279320  38.4518700  72.2078400  30.1395988  38.8712196
  63.3798866   1.7344357  25.3145599  63.5087318   2.6395140  25.0308971
  62.4414864   1.6703751  25.4921360  51.4788895   6.4265904  17.6662273
  51.5973549   6.9609351  18.4515133  50.6244736   6.6896596  17.3241730
  74.8268661  28.8664989  13.5364227  75.3771820  29.2190075  14.2357960
  74.0181503  29.3759480  13.5881834  50.1610756  22.8664131  10.8502846
  51.0211411  22.9016991  10.4316273  49.6821060  23.6059551  10.4762573
  62.5882683  31.5944481  42.7396164  62.6404572  31.6474648  43.6939201
  62.3423538  32.4774361  42.4637718   6.2885838  15.0298452  31.4588490
   5.5642490  14.4288759  31.2844715   5.9060745  15.9015207  31.3583469
  82.7143021  61.5717697  38.8577728  83.3967667  61.2701797  39.4573708
  83.0627670  62.3822937  38.4864807  68.0112991  47.7012329  71.7813034
  68.0778351  46.8632965  71.3234177  67.1229706  47.7095222  72.1377335
   1.1917652  48.9521828  17.5583057   0.6894541  48.6399841  16.8056793
   1.6915455  49.6955986  17.2209854  34.5253220  15.4738636  31.3657207
  35.2723808  15.1084785  31.8396683  34.5731659  15.0732288  30.4977150
  21.9150810  65.7436447  50.7878990  21.9108582  66.6816788  50.9784622
  21.0750866  65.5827866  50.3580551  17.9122105  61.4222145  40.0655479
  18.2681236  61.0277061  39.2693558  17.9209881  62.3633423  39.8910942
  24.1019783  27.9871788  23.7376575  23.5404034  28.6683464  23.3676910
  23.8680820  27.1950283  23.2538967  14.3194361  30.4317551  37.5765686
  14.3311853  30.1638660  38.4954414  13.4664078  30.1416836  37.2534065
  31.4158173  69.4533310   6.4399014  31.7368183  68.8365173   5.7820735
  32.0681992  69.4184265   7.1394801  38.8375053  -0.2979879  87.5785141
  39.2418175   0.5680462  87.5260773  38.1037865  -0.1836043  88.1825027
  80.0788879  56.5933113  40.9361191  80.4192200  56.6777191  41.8267784
  80.8419266  56.7288246  40.3743019  43.4499588  27.9135838  26.4823112
  43.2755394  27.6871071  25.5687923  43.8276939  28.7922363  26.4433212
   8.2414207  29.2769508  46.2405167   9.1580210  29.4672794  46.0408897
   8.1877565  28.3212986  46.2314186  10.9916048  61.2419815   2.9904461
  11.4894829  61.9519730   2.5851505  11.1760597  60.4779015   2.4441960
  59.5243912  24.3926468  83.1374207  59.4446259  24.9225903  82.3443069
  60.4256401  24.0706120  83.1206665  75.7651291  35.0286484  19.9338989
  76.0739212  34.2405777  20.3809147  76.4286118  35.2005081  19.2656975
  16.6442032  68.9308701  59.6187477  16.5674286  68.8145218  60.5657425
  16.7465553  69.8752670  59.5009842  22.6629868  29.9487782  81.6143188
  23.0077438  29.4410629  82.3488922  23.3991146  30.0211926  81.0067825
  57.6720200  22.9416008   3.8626580  58.2302704  23.5730343   4.3163967
  56.7800255  23.2421169   4.0366325  85.5180511  57.4975090  84.5934906
  85.9315491  56.6777534  84.3228302  84.7066269  57.5350685  84.0871201
  73.5521240  71.4326706  67.2288818  74.2727585  71.7640457  66.6930618
  73.8462601  70.5689468  67.5181808  72.0023956  20.0635986  37.3726921
  72.5593872  19.5838089  36.7596741  72.5235748  20.8263779  37.6232300
  81.8830032  68.9837723  18.2329254  81.1289673  68.4205399  18.4073658
  81.5899658  69.5660324  17.5319710  60.6545219  69.6551132  57.0438423
  61.0158501  69.3181458  56.2240067  60.5583153  68.8813705  57.5990982
   9.3147898   9.2367649  16.8840828   8.3914909   9.2415857  16.6316414
   9.3030462   9.3271646  17.8369331  22.1487503  19.8691502  24.0129757
  23.0839958  20.0061550  23.8620491  21.8512325  20.6803970  24.4247932
  54.3561554  36.9305916  85.9207001  53.7716331  37.4156342  85.3382034
  53.8303375  36.1915169  86.2265015  20.5571251  43.7291298  30.4484558
  20.0771675  44.2905807  29.8396473  20.0332851  43.7416000  31.2494984
  85.4339981  46.3104668  28.1902180  85.7617188  45.9544334  27.3643417
  85.0730743  45.5531235  28.6510811  15.0702486  66.3171997  12.9133224
  14.6786146  66.7018051  12.1291447  15.5163326  65.5313950  12.5974941
  22.4035969  46.0914078  15.0994272  22.3400574  45.2508888  15.5529966
  21.7507572  46.6448364  15.5280867  14.7294312   6.7712917  27.3356552
  13.7853346   6.8993635  27.2433949  14.9814920   7.3548393  28.0513153
  43.9928360  57.1576309  52.9547501  44.9086685  57.3334465  52.7389374
  43.9877052  56.2486992  53.2548256  83.7766647   8.1451845  75.0169754
  83.9782181   8.9767570  74.5879135  83.9997330   7.4796395  74.3661957
  62.1062508  69.6769257  60.3354340  61.1997528  69.8534775  60.0837898
  62.2068138  68.7319031  60.2212067  77.9143982  58.2370911  47.7307549
  77.8161545  58.7196808  46.9099731  77.0794983  57.7825241  47.8427391
   5.1673431   3.9248891  83.6412735   4.8701921   4.5260668  84.3242950
   6.1089025   3.8391159  83.7907410  55.1046333  45.2687798  27.4524441
  55.9235840  45.2783546  27.9478798  55.3768463  45.1542320  26.5419445
  68.9288330  47.7491913  52.6748085  68.3514862  47.2780228  53.2755585
  69.7691116  47.2962494  52.7454910  35.4453354  18.7101784  18.1739750
  35.2208824  18.4037838  19.0525970  34.6007614  18.8411350  17.7429543
  48.6887398  66.7158813  84.2374802  48.5940437  67.6641769  84.3269196
  48.6338654  66.5575180  83.2950668  70.7975769  37.4565926  73.9214630
  70.8809738  37.3393555  72.9751434  71.6725311  37.2731552  74.2635651
   8.8216753  55.4722519  80.4945984   8.1563187  54.8522835  80.7932129
   9.3439550  54.9774323  79.8632431  18.3227329  66.7191772  55.6260109
  17.3865623  66.9136429  55.6707268  18.3668785  65.7643204  55.5757523
  45.3344727  58.3638992  13.4561176  45.5482368  57.7549858  14.1630583
  44.4732170  58.0811310  13.1486864   3.1327119  11.4814625  68.6131744
   3.8008616  10.8129692  68.7645798   3.2885172  11.7769718  67.7161560
   4.6125069   1.5443012  67.2057190   4.6424727   1.7681526  66.2755432
   5.0045972   2.2982380  67.6462555  29.3971386  66.0231628  14.4767094
  29.4641171  66.1965103  15.4156971  29.7999210  66.7865524  14.0628958
  22.1820831  71.0676575  26.2140770  21.4696999  71.4388123  26.7346401
  21.7916946  70.9050522  25.3553658  53.5235329  62.6538048  20.4837189
  53.7238045  62.3835945  19.5875549  54.2524338  63.2228966  20.7308445
  68.0092697  45.2257271  79.9665298  67.6321869  44.3666382  80.1562881
  68.5338669  45.4331398  80.7398453  74.7213440  66.2230606  13.8889742
  74.3175430  66.2254639  14.7568293  75.6036377  65.8823318  14.0362644
  43.4018059  52.0776176  13.4923296  43.4389763  51.7672424  14.3970490
  43.1879921  51.2977448  12.9801645  25.7080727  64.1390915  44.4831772
  26.3899422  63.9286041  43.8452263  24.8998585  63.8151703  44.0855675
  18.3007450   6.3059840  49.7354012  18.4337635   6.7759881  50.5585861
  17.7356377   6.8812885  49.2197380  71.1388168  44.7587891  66.9157867
  70.8600693  45.3500557  66.2165451  71.9238052  45.1695938  67.2780991
  17.9321938  55.1351433  52.1543045  17.7782001  54.4030800  51.5571442
  17.2741909  55.0266151  52.8409538   2.4799366  64.7609024  27.6410503
   1.5501938  64.6151657  27.4662037   2.4981477  65.1939011  28.4945240
  65.2067490  29.5814629  48.8399544  64.5591125  28.9210320  49.0861816
  65.7827606  29.6476974  49.6015663  53.5925522  46.6797829   3.9112267
  53.0582352  45.9079514   3.7241178  54.0291862  46.8755188   3.0822089
  77.0221710  70.7266006  73.9381256  77.1184769  70.5570374  73.0010071
  76.3083572  71.3618393  73.9944687  40.7747345  48.6477051  71.2981796
  41.6557808  48.9564018  71.0867615  40.5788269  48.0003090  70.6208878
  49.6055870   7.7322922  79.0422821  50.1500893   8.5100164  78.9202423
  48.7275772   8.0775785  79.2038574   1.0812984  17.5417309  51.3277969
   0.7989327  17.7967606  52.2061272   1.9045458  17.0737267  51.4673233
   0.4333229  65.7638626  81.2062073  -0.4562342  65.4447327  81.3581085
   0.9067451  65.0027542  80.8703232   2.3756263   3.0692756  24.5521431
   1.5336487   2.6835504  24.3102303   3.0271311   2.4750946  24.1796875
  35.1474266  54.7612686   2.9906845  34.4200859  54.1552696   3.1320226
  35.8017845  54.5058594   3.6409245  27.6980915   0.5064734  53.4166489
  27.3896923   0.7689951  54.2839470  26.9591007   0.6857265  52.8352776
  49.1681786  66.7432404  35.4071503  48.3703384  66.5632095  34.9098892
  48.8892670  66.7241669  36.3226128  62.6863136  24.9284172  11.7731810
  62.5847588  24.0803967  11.3409996  63.0578766  25.4976940  11.0993156
  57.7446213   8.0596933  86.8093643  58.0238953   8.2514057  87.7046204
  58.5266037   8.2079048  86.2776031  31.8474102  64.8303223   6.1750641
  31.1843815  65.2794952   6.6993461  32.6434326  64.8768463   6.7046065
  79.8053894  29.5152092  22.8442097  79.5906601  30.2706604  23.3913994
  79.5669479  28.7573051  23.3780231  57.1718407  22.8705101  82.5719147
  56.7782784  22.3854332  83.2972031  57.8041687  23.4550533  82.9898834
  47.4772415  11.1244736   2.6477489  46.9851990  11.8657227   2.2946537
  48.3351631  11.1844883   2.2275043  67.8981400  44.1367722  82.9950027
  68.3607330  44.5321159  83.7338791  67.1514435  44.7158890  82.8423462
  53.9303818  53.0978699  69.5111313  53.4524155  53.2567444  68.6971664
  54.4705315  52.3297043  69.3256760  62.4396400   9.5352631  81.9391556
  62.4687080   9.6077690  82.8931580  63.3552704   9.4356976  81.6785049
  -0.0905118   4.6196494  70.9090805  -0.0102822   5.2603741  71.6156693
   0.7874407   4.5686841  70.5311508  73.7752991  11.6294994  87.2281418
  73.4958191  12.1053562  86.4460373  74.7245560  11.7495289  87.2550964
  16.3331451  49.3943825  85.4868546  15.9626408  48.5125580  85.5234985
  15.6688385  49.9147072  85.0349808   1.8589324  34.8920593  17.2349148
   1.5942758  35.2779198  18.0699577   1.0380285  34.6139793  16.8286858
  71.1287384  61.1452408  72.8297882  70.9063034  61.7568893  73.5316772
  71.8701630  60.6463928  73.1728287  54.9237518   5.5390148  44.7259521
  54.1286545   5.4592953  44.1989822  54.6111183   5.7929120  45.5942993
   3.3394787  62.1171379  43.3482742   2.7014863  62.8266907  43.2725868
   3.7566040  62.0772858  42.4876633  54.4652748  43.5689812  16.7286835
  54.9769707  43.9818039  17.4243679  53.9477997  44.2828789  16.3561249
  85.4424667  28.5663891  52.4466515  86.3510818  28.3567848  52.2305145
  85.1358643  27.8121128  52.9499397   9.3081913   7.8581452  20.6577473
   8.3915854   7.8290877  20.3834858   9.2708244   7.9149203  21.6125317
  48.2460670  51.8542557  86.9590149  48.8586311  51.1194458  86.9266205
  47.4503822  51.4860077  87.3430939  47.6706314  34.2087059  61.7657738
  47.8206253  35.1521225  61.8265648  48.0383530  33.9619141  60.9171829
  77.0146561  57.6643867  63.2859840  76.8297119  58.4161720  62.7230911
  77.8890533  57.3774185  63.0227203  60.3845863   0.9464888  86.0819321
  60.8772049   1.1570239  85.2886887  60.1217422   0.0334918  85.9653931
  85.8160172  51.5510292  51.4276466  85.2216415  51.2545929  52.1169014
  86.6706009  51.2030792  51.6823196   6.2538223  32.4942703  63.6857758
   6.0396619  32.5571747  62.7549629   5.7697453  33.2131920  64.0920410
  60.7850075  53.6264381  69.2011566  61.1602631  54.2448273  68.5742493
  60.1747513  53.1012306  68.6834946  76.8042679  32.6433868  30.9880733
  76.9672165  33.5856056  30.9444599  75.8909378  32.5455589  30.7188377
  16.7165184  48.5141678  65.8030396  17.3820591  49.1661644  65.5835190
  16.5407925  48.6551399  66.7333450  74.0153503   4.5275087  38.3174896
  74.3688431   3.7682345  37.8540497  74.5546494   4.5998735  39.1049843
  62.0765533  32.3415794  10.0741158  62.8379860  31.9577370   9.6392393
  61.7873077  31.6678791  10.6894999  24.4967785  12.9502277  59.0634346
  24.9253292  13.1130619  59.9037094  23.6206245  12.6434927  59.2968826
  52.8458939  49.4673080   3.6955221  53.2099342  48.9226532   4.3934169
  52.6472092  48.8515549   2.9901099  39.8996925  49.6106567  77.9242554
  40.6353416  49.9029579  77.3861008  39.1289101  49.7562141  77.3756790
  43.7164040  21.8575706  13.3612556  44.4966087  21.3041859  13.3969831
  43.5195732  21.9340744  12.4276409  63.1442986  40.5087242  14.9839230
  63.4138145  40.0174599  15.7599726  62.2381020  40.7601204  15.1623564
  46.3946686  60.6045723  75.3519592  46.2721558  59.7383575  75.7404099
  45.7391624  61.1544266  75.7811432  79.5011978  31.3583851   8.7820368
  79.0726242  30.5933495   9.1658020  79.3561478  31.2669239   7.8403220
  65.5661469  35.2213898  87.3327332  66.4288101  35.4408836  87.6846848
  65.3483963  35.9549026  86.7575989  64.8408203  38.6554832  36.9004974
  65.6569595  39.0384102  37.2222404  65.0788422  37.7642975  36.6448326
  51.3343773  67.9858093   6.9618845  51.8407745  68.5267258   7.5678601
  51.2029839  67.1610413   7.4295678  30.9730644  49.9498215   1.4565701
  30.5291443  50.7679329   1.2332770  30.5287743  49.6443825   2.2474849
  85.5708160  63.0386696  75.2689438  85.4726944  62.5933075  74.4273605
  85.3061218  62.3862953  75.9174576   1.8128914   4.1933160   4.2303538
   2.4032240   4.3632922   4.9644156   2.2676809   4.5533519   3.4689257
  15.3229599   4.1445565  14.7321768  14.4383183   4.3319530  14.4182930
  15.3077812   3.2123094  14.9487801  30.8843575  11.5402775  44.6239853
  31.3255939  11.7978792  45.4334183  30.8256893  12.3490267  44.1153450
  42.9261436  20.0387897  43.2293396  42.4192810  20.4391804  42.5229301
  43.8327293  20.0759659  42.9244614  60.3889465  33.6118469   7.7704029
  61.0304451  33.0910950   8.2536516  60.6579781  34.5188179   7.9162116
  39.6515198  26.3155651  17.8598118  40.5724373  26.2044983  18.0960445
  39.1683502  25.9670887  18.6090412  10.5674238   7.8963208  71.2075424
  11.1875477   8.2205954  70.5544586   9.9814444   8.6357079  71.3693085
  20.7354240  45.8063354  70.8522568  20.8002834  45.0717125  70.2420502
  20.9588566  45.4307556  71.7038727  24.3953133  23.0202427  84.0651016
  23.5641403  23.3660927  84.3903275  24.5208035  22.2039337  84.5489655
  71.9498596   1.4663020  82.1381989  72.3911819   1.9732257  81.4566498
  71.0974121   1.8901331  82.2378387  60.0471954  58.6998215  16.8614635
  60.3632698  58.2234764  17.6292019  59.4877815  59.3885765  17.2204971
  81.0984039  25.1024151  68.5306244  80.5653763  25.8437634  68.2433624
  80.6677856  24.3364601  68.1510010  33.3680000  44.8147316   4.2376041
  33.0182800  44.8216896   5.1286039  33.4594383  43.8862877   4.0234389
  26.4962807   7.3346419  29.0886326  26.7154713   6.8548803  29.8873920
  27.3114452   7.7701592  28.8395061  16.8992558  65.3706741  35.3389511
  16.3449078  64.6244812  35.1106339  17.7919006  65.0276947  35.2966881
  67.2586899  60.3958473  46.8002739  67.3002472  61.3494644  46.8718567
  68.0985870  60.0929375  47.1453133  20.4977741   4.3998079  85.5730515
  21.3779602   4.3931289  85.1969376  20.6134529   4.0574098  86.4594040
  22.8515434   4.5875196  56.2259979  23.5218143   4.9225359  56.8215942
  22.1724625   4.2370687  56.8024254   8.8935823  15.6390686  60.2833290
   8.0751381  15.6963749  59.7902794   8.8326950  16.3412418  60.9309998
  57.4718399  63.7733002  50.3484192  56.6454926  63.6601753  50.8180809
  58.1191673  63.9277420  51.0364227   6.2397218  24.9287357  32.2131996
   5.3675151  25.1376972  31.8787994   6.1204424  24.8480797  33.1595078
  59.9999733   4.8954654   2.6887965  59.2425079   4.3104906   2.6719718
  60.5286713   4.6243711   1.9383185  39.8613319  67.5297699  27.1032486
  39.9548645  66.9526215  27.8611317  39.8861351  68.4133453  27.4705505
  59.4535065   4.6320791  67.7373886  59.2019348   5.4969730  68.0612717
  58.6600227   4.1037693  67.8240051  63.2007866   4.0384970  51.2087364
  63.9180794   4.6675663  51.1313095  63.1903992   3.5823340  50.3672829
  23.4802952  61.0986519  23.8228664  23.8318386  60.6062317  24.5646000
  24.2508392  61.4786682  23.4008656  57.5945969  56.1722755   4.6749086
  58.1210098  56.6523170   5.3141904  57.8146629  55.2529526   4.8254008
   4.9547572  55.0538406   9.5883522   4.4372516  55.7523880   9.1877871
   4.5769777  54.9463158  10.4612513  73.1518173  55.2662163  83.0168686
  73.4965820  55.9755630  83.5592728  73.9266663  54.7744751  82.7447815
  65.0426178  40.9524498  43.3893776  65.7435303  41.5041046  43.7366943
  64.2602310  41.2314606  43.8650513  67.1481171  12.9167871  79.9468155
  66.5222168  13.1705313  79.2685165  67.4129562  13.7436676  80.3497620
   1.3812381  23.1150379  56.2056084   2.0528145  22.7978439  55.6017838
   0.7328964  23.5375500  55.6422501  56.2803040  59.2872467  50.7764587
  55.6170425  58.6763649  51.0976181  56.3210831  59.9702072  51.4458885
  76.1816254  27.5265408   5.6745510  77.1239319  27.6921329   5.6450524
  76.0678482  26.7045250   5.1975036  20.0467281  12.8553305  72.1434021
  19.1214180  12.8553467  72.3884201  20.1802711  13.6992931  71.7119751
  86.5827408  55.1178207  70.3665314  85.9002991  54.4789047  70.5721893
  86.8637466  55.4508362  71.2188034  44.1038361  70.4614487  88.2334976
  44.5494003  69.7156372  87.8316727  43.1721725  70.2633591  88.1386261
  50.4618187  34.9323540  64.8196487  49.9157333  34.2140045  64.5002823
  50.0133362  35.2427216  65.6062698  40.5584450  49.7001572   9.6013212
  41.2259483  50.2875252   9.2468233  39.7352142  50.1740150   9.4830742
  80.5695267  10.1834850  48.6866760  80.8312683   9.6384449  49.4287338
  81.3932648  10.4171467  48.2587891  56.3802605  15.5132532   9.7045965
  56.0058022  14.7219868  10.0917778  57.2667236  15.2583208   9.4488087
  86.5203629  46.5267830  74.2782822  86.5070572  45.8904877  73.5633163
  85.5974350  46.7150383  74.4485703  22.8267899  65.7798157   3.5398691
  23.6178074  65.3862991   3.1715312  22.1567745  65.1025543   3.4469535
   5.5691352  57.0124817  50.1041946   5.0729151  56.7210617  50.8690948
   5.8680634  56.2029762  49.6899796  81.1380920  23.4635029  17.3596001
  80.3495102  23.9177151  17.6563644  80.9178848  22.5342216  17.4242458
  20.7673607  41.2002373  22.3573837  21.4297543  40.5519333  22.5964832
  20.2033539  41.2619286  23.1283054  76.4726257  37.3333321  49.3701439
  76.7815933  38.2191277  49.5602608  76.9567337  37.0739174  48.5861931
  12.4748240  29.9086399  10.8708305  12.0867767  30.0340424  10.0048485
  13.2636919  29.3917713  10.7072306  48.6086807  49.6715546  10.2314777
  48.2086182  50.0343895  11.0217514  48.1458130  50.0989418   9.5108337
  24.8727055   1.1003467  23.9188080  24.6605473   1.5162148  24.7544365
  25.7074203   0.6590194  24.0760136  61.9050331  11.4058943  27.1245518
  62.4091949  11.7798824  26.4019299  61.8855782  10.4664564  26.9420433
  71.3375244  13.0229807   2.6303606  70.4916382  12.6361780   2.8564041
  71.2367401  13.3047485   1.7211405   0.4598778  14.3644218  64.0765228
   0.6856567  15.2897720  64.1713028  -0.4706714  14.3211718  64.2966156
  46.0652657  50.6758957  87.8811493  45.3023911  50.1088028  87.9936447
  45.7675171  51.5382042  88.1709900  46.4523926  65.9732971  41.8791618
  45.7209358  65.6509094  41.3526001  47.2319031  65.6330338  41.4400444
  69.3203659  39.3296394  61.1661415  69.6672821  38.4448051  61.0523682
  69.9705429  39.7736588  61.7105217  71.6849823  31.0409546   9.0143032
  70.8105164  31.0002728   9.4014473  72.2190781  30.4721222   9.5687418
  56.9520798  10.3053102  13.8143396  56.0727959   9.9576159  13.9633217
  57.3671951  10.2843628  14.6765881  10.0049696  67.3556137  41.1325874
  10.9535894  67.4834747  41.1305847   9.8878450  66.4282684  40.9263382
  51.0320206  28.1490059  68.6141281  50.1600761  27.9480724  68.2741699
  51.0556717  27.7310028  69.4749069  56.1934700  49.7894211  45.8875313
  55.9120102  49.4952736  46.7538414  56.8168259  49.1227570  45.5990562
  70.8495255  67.6732254  88.6937180  70.4267731  67.9356461  87.8760071
  71.2219772  66.8118668  88.5051041  71.0550385  64.7569427   6.1834226
  70.6890945  64.8613586   7.0617261  71.6812897  64.0380936   6.2687788
  63.6932678   0.9060259   5.5088897  63.9175491   1.1305690   6.4119458
  63.3534622   1.7199565   5.1370287  72.6829529  51.6201515   2.4268713
  71.9662247  50.9946518   2.3206787  73.1837082  51.2865028   3.1712887
  44.7416153  69.4154587   9.3275185  44.8612404  68.7857666  10.0384436
  43.8124619  69.6427536   9.3627052  28.1299248  36.1320610   6.2227192
  28.5675545  35.3411980   6.5377517  27.3217793  36.1782608   6.7336011
  65.2426376  56.9044876  63.9055138  65.1444550  55.9967880  63.6179848
  65.7119293  56.8427582  64.7374878  40.8633881   4.3543644  55.8964195
  41.5431404   4.1271820  55.2619476  40.1939049   4.8029361  55.3798828
  54.5482445  64.8464050  33.4744987  54.6212997  63.9220085  33.7119522
  55.3002090  65.2621918  33.8962936  42.5799942  68.9546204  54.5471344
  41.8343925  69.2604828  54.0306435  42.4775772  69.3870392  55.3949318
  73.8028793  22.2932301  57.1197586  74.5263901  22.6083088  57.6615143
  73.5363235  21.4709072  57.5308113  18.3178864  20.8641262  43.7579956
  18.8138714  21.5020161  43.2448387  18.8228207  20.7610054  44.5646172
  43.9694862   7.3947611  82.5835342  44.3170013   8.1895876  82.9881516
  44.2240829   6.6911311  83.1804581  73.4512939  70.6289520  25.2856121
  73.8212280  71.4526138  25.6033669  72.5247726  70.6757736  25.5213966
  18.1888847  27.9798355  77.0716324  17.4779167  28.5777645  77.3023529
  18.3899174  27.5207596  77.8871460  81.1695251  18.3819122   1.9967738
  80.5222702  18.9435825   2.4231722  81.8563461  18.2666817   2.6534579
  64.2952194   4.0489287  53.9907303  63.8790665   3.4114950  53.4104500
  64.6526413   4.7124429  53.4006233  61.9909401  53.7683487  36.5048714
  62.5210304  53.1801643  37.0427132  62.2148209  53.5358810  35.6037254
  35.1073952  63.1879120  87.7859802  34.5406265  63.6136246  88.4292297
  34.5939522  62.4448967  87.4689026  69.3605652  30.0011959  16.9588661
  70.0608597  30.4885559  16.5249405  69.5239105  30.1281700  17.8934383
  84.0243988  16.3288136  10.0608053  83.5320129  15.8000708   9.4329348
  84.9281921  16.0263615   9.9718761  13.7317858  26.7581863  75.0554276
  14.4684143  26.2442799  75.3863525  12.9766083  26.4406281  75.5504990
  79.6992035  23.0808487   2.5029948  79.7429428  23.2599564   3.4422703
  79.8750839  23.9260483   2.0895517  49.4664574  21.6678562  74.5685272
  50.4181137  21.7355862  74.6459427  49.3070488  20.7441120  74.3748322
  16.9764481  34.2689972   0.8380824  16.7096367  34.3947372   1.7487051
  16.1535797  34.1750526   0.3581930   4.9009762   4.4024763  11.3497438
   4.7769189   4.5168638  12.2919531   4.7065630   5.2621794  10.9764528
  69.4085846  11.9818172  78.5410156  70.1206360  11.8910809  79.1742477
  68.6209335  12.0714197  79.0774918  79.0986328  13.7701139  81.6604538
  79.8041687  14.3724060  81.8964386  79.5416260  13.0398026  81.2284393
  10.4038792  52.8346329  25.9064484  10.7823629  53.1714745  26.7185574
  10.4605770  51.8829880  25.9924412  47.3076515  57.2975540  17.0969353
  47.8609695  57.0646019  16.3514137  46.9783554  56.4595833  17.4218960
  46.1592445   3.6001804  33.6398621  46.0142021   3.4664497  34.5765114
  45.4818192   3.0739920  33.2150650  51.8521461  52.8245697  58.9588394
  52.1957016  52.2920265  59.6761971  50.9750366  53.0773468  59.2469673
  51.8091393  58.1425819   0.3824950  51.3747292  58.0681267   1.2321863
  51.1217155  58.4419403  -0.2125404  29.4410000  14.0885696  53.8916931
  28.5047855  14.0599260  54.0889626  29.7104378  14.9737663  54.1367683
  65.7965851  50.7541504  20.9630909  65.0996475  51.3022308  21.3238201
  66.6037140  51.2237663  21.1734104  55.2149849  69.3726959  68.3499451
  54.7842216  70.1540833  68.6965027  54.5641518  68.6775284  68.4468460
  18.7270737  60.1302338  42.3314514  18.9201164  60.3225822  41.4138641
  19.4779797  60.4783669  42.8122559  83.3614502  29.1359863  13.4505386
  83.1721420  28.4971752  14.1377926  83.1633682  28.6759911  12.6348171
  32.9626579  38.9344597  25.2844524  33.0212822  38.1798477  25.8704147
  32.0862350  39.2880974  25.4363041  61.3608437   1.4742323  10.0996161
  62.2470016   1.1321861  10.2177868  61.4216499   2.3927212  10.3621283
  35.9080276  60.5187912  39.7249489  35.2374878  60.1169014  39.1725998
  36.4791985  59.7925377  39.9750519  33.1543770  52.9401131  54.9455528
  33.5514030  52.3460922  55.5825310  33.8962746  53.3972778  54.5495453
  16.6828384  62.2002754  62.1453857  17.1961288  61.4311142  62.3926849
  17.0830498  62.9215508  62.6310005  14.8607168  22.5146351  12.8641376
  15.1159210  22.2015553  13.7319412  14.4577646  23.3676300  13.0261908
  65.0474625  67.1530838  18.1453476  64.8901596  67.9985962  17.7251205
  64.4131927  67.1198502  18.8614712  32.4385529  54.4637413  32.0207405
  32.8174210  54.1200943  31.2116680  33.1603355  54.9276657  32.4450493
  82.6745453  12.2678032  28.3350334  83.0931931  12.5120401  29.1604538
  82.1077576  11.5308561  28.5628166  31.4677029  12.2130737  80.5720291
  31.3856564  11.8377771  81.4487610  32.3957863  12.1193848  80.3572769
   5.2619667  26.6410236  86.8021851   6.0061917  26.1335258  87.1259232
   4.7133865  25.9999523  86.3501663   3.0475020  53.9445190  79.7115860
   3.1351364  54.2736778  80.6061249   3.4891250  54.5994949  79.1710205
  18.1027126  55.7645187  11.8080330  17.3588886  55.6164551  12.3920145
  18.5071220  56.5683784  12.1343679  81.0679626  32.0588074  61.2127533
  81.2149353  31.2560768  61.7130089  81.2646484  32.7644119  61.8289261
  64.1671753  54.4880676  24.5014324  63.3373489  54.9645309  24.4768429
  64.1288147  53.9819679  25.3129883  74.3446808  66.9069672  50.8235207
  74.4669647  67.3043594  49.9613380  75.2330704  66.7418060  51.1393013
  23.1138058  12.4807844  55.3165054  23.9995499  12.6487598  55.6381798
  22.6219006  12.2192135  56.0948639  50.8730049  10.0024920  85.9636765
  50.5859604  10.0033436  85.0505295  51.4864120  10.7349472  86.0226059
  36.9783821  63.7890739  26.9217510  36.6676102  64.6820145  26.7723999
  37.8955460  63.8057976  26.6483173  67.6413879  58.1233864  69.6672821
  67.1793594  57.5568657  69.0493698  68.4969940  58.2701340  69.2639999
  54.9654655   0.7118238  61.0746994  55.1698647  -0.2040489  60.8859406
  54.0504074   0.8120061  60.8122826  83.4328537  51.9466057  26.2236118
  84.3107910  51.8131638  25.8663349  83.5789871  52.3928223  27.0577393
   2.7285147  47.1304245  54.5272408   3.5490537  47.5378113  54.8047066
   2.0562005  47.7784233  54.7377739  56.0591850  18.0968437  10.6147051
  56.5325165  17.2796822  10.4583883  55.7398453  18.0204334  11.5138235
  21.2447662  26.3159294  84.3218460  21.1077976  26.7813663  85.1469727
  21.9558525  26.7923203  83.8933105  10.7134972  33.4373932  21.5658131
  11.4171343  34.0580215  21.3762207  10.0558224  33.6076355  20.8914890
  83.3183517  38.8513680  23.9762363  83.1948242  39.0313225  23.0442543
  83.2305145  37.9010963  24.0503845  85.9151840  58.9556808   8.3124065
  85.4243469  59.3906555   7.6151948  85.3240662  58.9681587   9.0651684
  71.1488647  61.1987572  63.8043251  71.8167419  60.7854919  63.2571678
  71.0659027  62.0851173  63.4525986  65.9722672  35.7047539  22.8611012
  65.2395706  36.2503281  23.1470013  65.8916779  35.6759033  21.9077358
  59.8471718   9.8421078  34.7215538  60.6240044  10.3991318  34.7714233
  60.1918373   8.9647465  34.5551987  56.2559471   2.1894743  52.4647980
  55.8466835   1.8437113  51.6715851  55.5488434   2.2101905  53.1096268
  26.0238571  24.9885693  82.9479294  25.3978138  24.4050255  83.3766251
  25.5036430  25.4633217  82.2996902  43.7156677   9.7006435   5.9881010
  44.1236420  10.4349051   5.5291362  44.4452972   9.1228981   6.2118959
  39.9937515  58.4720955   7.0401144  39.6711044  57.7403107   7.5660615
  39.2082596  58.8422127   6.6373172  67.6513672   1.8120222  69.3745041
  67.1783981   2.5217540  68.9399796  68.5753860   2.0298102  69.2520599
  75.3086395  68.7445831  18.1610870  75.8342209  68.4431839  17.4200363
  75.7993393  68.4627457  18.9331093  19.7158833  56.8546066  62.8244286
  19.1234398  56.6962547  62.0894661  20.5443363  56.4587784  62.5538445
  81.2247009  25.0251846   9.7399664  81.6411514  24.2556190  10.1279936
  80.4200211  24.6887722   9.3455696  32.2316933  20.1199188  55.7143593
  32.4892578  20.2097626  56.6318703  32.7668190  20.7643738  55.2511597
  15.7460480  52.0703926  16.2847443  15.0593119  52.5926857  15.8702106
  16.3968372  51.9397583  15.5950794  54.6254692  65.2752457  44.1910477
  54.9675674  64.9791336  45.0345612  53.9983063  64.5985718  43.9360657
  37.5383034  59.7112160  89.1836319  37.7852898  60.3119698  88.4805527
  36.6074486  59.5421104  89.0382156  45.1533546  17.0898094  55.5754852
  44.3862038  17.6615448  55.5466499  44.8615265  16.2764759  55.1637115
  11.7908278  11.4335518  46.8021088  11.7084446  10.5350037  47.1215706
  10.8906431  11.7562256  46.7599030  11.2333546  62.5445099  24.7195530
  11.2604904  63.1388817  25.4693623  10.3629875  62.1481514  24.7594872
  57.9864655  30.9514618  68.7335129  58.1533508  30.1795483  68.1926575
  58.7652931  31.0309391  69.2842789  18.9561939   5.9358301  59.4146843
  18.7295475   6.3134971  60.2645264  19.9125652   5.8961325  59.4176140
  47.7756500  65.8678589  10.9519911  47.1202049  65.2021484  10.7435350
  47.9418945  66.3093643  10.1191235  44.5741959  44.1344872  62.3580818
  45.3380814  43.7834167  61.9004135  44.9274673  44.8250504  62.9189301
  13.8222818  33.6418266  70.7113190  14.6628590  34.0596313  70.8986816
  14.0367727  32.7172813  70.5870743  74.2193756  67.5867996  81.8774948
  74.6956635  67.1022263  81.2032776  74.5100327  68.4926605  81.7718048
  63.3845558   3.1340668   2.0047143  62.6483498   2.9642968   1.4169980
  62.9766006   3.3565280   2.8415642   5.1988988  42.4754066  14.7354956
   5.3462420  43.1892815  15.3558998   5.6745100  42.7403107  13.9481888
  75.1444550  56.6934433  53.0446320  75.9247437  56.1470909  52.9503593
  75.4714890  57.5908775  52.9822693  58.9137192  17.5317307  86.4717865
  58.6203651  17.2400398  85.6086044  58.6123505  16.8485432  87.0706711
   4.6696844  12.2202005  75.8892899   4.4567876  12.7362776  76.6668243
   3.8196177  11.9932966  75.5122833  29.7726803  68.7520599  57.2448654
  29.5807362  68.0271988  56.6499138  29.0109005  69.3274231  57.1749840
  20.9572163  55.5426903  22.3954887  20.1637707  55.7077026  22.9048462
  21.6734447  55.7835121  22.9830704  69.2686234  17.0631790  17.4726753
  69.8366928  17.7478466  17.8258820  69.8586273  16.4932880  16.9793663
   4.4257207  58.6972466  36.5912437   4.0972214  58.2051888  37.3437080
   5.3776913  58.6155052  36.6487083  16.5128746   6.9083238  40.6786308
  16.3207321   6.7057400  39.7630577  17.2564869   7.5097966  40.6398926
  25.0873222  29.5500851   3.2249966  24.9731159  29.5863762   4.1746659
  24.8759270  28.6458797   2.9927158  58.6035385  65.1679840   6.9076967
  59.5444756  65.2393799   6.7471662  58.2214279  65.0404358   6.0393906
   0.6966232  34.3119125  36.0584717   0.8792031  34.2634583  35.1200981
   1.4612293  33.9114037  36.4722404  22.0962372  54.3694687  45.3194275
  22.5422211  54.7291451  44.5526390  22.4849949  54.8323212  46.0616341
  36.2518730  55.4802589  26.8738174  35.8055420  54.9344864  26.2263985
  36.2195358  56.3633003  26.5058212  49.9140244  19.1526871  20.2569752
  50.5734673  19.2326756  20.9461536  49.7539902  18.2115822  20.1866722
  77.7174911  15.0505571  34.8570900  76.9996109  14.6293831  35.3298340
  77.3249969  15.8359337  34.4758186  41.8780899  47.0019264   5.4049692
  40.9451599  46.8635330   5.5684228  42.3123245  46.6479416   6.1810932
  48.6491318  25.2931728  30.4836483  49.1152153  25.7255554  31.1992207
  47.7280235  25.3290691  30.7415314  73.3903122  46.0284157  32.7124901
  72.7787857  45.7382851  33.3893089  72.9656219  46.7891960  32.3161507
  35.8057632   3.4928305  46.3143082  35.3541183   2.7023523  46.0186844
  36.2646332   3.2231498  47.1098862  14.4042645  63.5064621  27.8411121
  14.9131088  64.2043915  28.2536678  14.0848808  62.9783440  28.5727654
  59.6310806  45.5746422  16.7489567  60.3040543  46.0659866  17.2200375
  58.8168716  46.0404015  16.9396572  43.0080757  67.3154831  85.8991623
  42.5380478  66.8605347  86.5979614  43.0471420  66.6805115  85.1839600
   8.3643293  50.9805527  21.1455631   8.4492626  50.2584343  20.5230179
   8.8008671  51.7176018  20.7184486   7.0815926  31.1099606  69.4207153
   6.5660672  31.5639381  68.7541046   7.0795584  31.7043514  70.1710052
  84.6585999   6.6328011  77.0465546  83.8385620   6.1561875  77.1754379
  84.4384460   7.3236127  76.4216232  76.5524979  29.3832569   3.6558928
  76.1491852  30.2488689   3.7213402  76.0056152  28.8220329   4.2056012
  26.0274525  43.0542412  80.0736160  26.3849449  43.9256287  79.9029846
  25.2158012  43.2181587  80.5538101  33.9833870  58.8385773  83.9991455
  33.2458382  58.8440285  84.6092453  33.5830994  58.9612579  83.1383591
  12.6284275  57.7391777  67.4329224  12.9241705  58.3617439  68.0971375
  12.7400150  56.8811607  67.8423004  30.1496353  25.7970428  81.3589172
  29.7404518  25.4096298  80.5851517  30.8180199  25.1631756  81.6191177
  49.3961220   1.7613226  22.0089512  49.3650894   2.4359870  22.6872559
  49.6247864   0.9594467  22.4789944   0.5973178   3.2442088  10.6120768
   0.5165313   2.7450063   9.7993641  -0.2277855   3.0887086  11.0717030
  42.6793594  10.1288061   3.5590031  42.8824539   9.9236860   4.4716420
  43.2999039  10.8189583   3.3248165  56.4464378  57.7835884  66.9893112
  55.6806526  57.4734459  66.5059738  56.0829124  58.3048286  67.7051239
  66.3227234  11.2423716  61.1361084  67.0830154  11.5337162  60.6328163
  65.8989868  10.5925674  60.5753670  72.5087585  58.6541557  33.6265221
  72.6216507  59.0592079  32.7666283  71.9498138  57.8947105  33.4620209
   5.5787206  53.5806808  35.5063515   5.0860868  53.8744316  36.2726784
   6.4244776  54.0225868  35.5814857   3.0075014  60.5638618  85.3678207
   2.4126742  60.2247086  86.0366898   3.1675868  59.8182297  84.7893448
  38.9922714  71.1935043  35.5968933  38.1200676  71.2190475  35.9903946
  39.4727821  70.5526276  36.1209335  70.9233398  54.1512413  75.9290237
  71.7262268  54.6237144  76.1489563  71.1967773  53.2371635  75.8520584
   4.8887234  11.5660181  44.8313179   4.0785103  12.0542545  44.9776459
   4.5981541  10.6998320  44.5457954  59.4578972  54.8605156  26.0745182
  59.2545662  55.1239090  26.9720211  58.6772575  55.0959625  25.5731220
  58.4817238  47.5513496   5.6233811  58.2471733  48.2634125   6.2185144
  59.4233398  47.6545677   5.4857635  56.3912964  67.2040558  29.0429802
  55.7575912  66.9947662  29.7291641  57.2353325  67.2228088  29.4940758
  47.9995079   5.9070745  69.2517242  47.6561089   6.6902075  68.8216019
  48.9306946   5.9009557  69.0301590  20.7747707   2.1926105  64.5013046
  21.4660797   1.8991418  65.0947723  21.2366524   2.4451921  63.7018661
  36.7393570  36.2564583  79.0371857  37.1537437  35.6035995  78.4730072
  36.5199699  35.7776604  79.8364639   8.8306732  39.6126823   0.7368468
   8.6177731  39.7409935   1.6612070   7.9840369  39.6345253   0.2907955
  80.6605072  70.1608505  53.3754272  80.1775665  70.2649384  54.1952896
  80.8820801  71.0542755  53.1128883  42.2400856  18.7635422  13.5095234
  42.2275276  19.0363503  12.5921097  43.0350037  18.2367058  13.5918770
  73.6489563  63.4247017  79.0182114  73.4851837  62.8327522  79.7523804
  72.8949280  64.0143280  79.0131454  31.9999313  63.4410286  25.0948277
  32.5268784  63.7402802  24.3538780  31.1152840  63.7503624  24.9000320
   7.6572504  59.4459724  35.2168922   7.7423801  60.3102226  34.8143311
   7.2611237  58.9024620  34.5357780  38.4685631   4.8209014  21.7536831
  38.2653046   5.6034746  22.2660275  39.0232658   5.1384935  21.0411720
   5.5700035  23.0689602  79.5896072   5.9378276  23.4536819  78.7940445
   4.7927723  23.5965099  79.7735519  71.5070190  44.4337311  55.4469681
  70.9611740  43.6840134  55.6840439  72.3707581  44.0573006  55.2781944
  77.9963531  24.2037907  77.2420578  78.6034546  24.4207573  77.9495773
  78.2542343  23.3241367  76.9664917  44.7971153  57.1620750  25.4177475
  45.6730232  57.2136993  25.8003025  44.7044029  56.2465324  25.1542835
  16.3739223  45.1447334   5.8625464  17.2443466  44.9373856   6.2025433
  16.3157692  46.0985069   5.9187884  49.5053329  33.7013245   0.2702736
  50.4468346  33.8701477   0.3064812  49.1630898  34.0781288   1.0809032
  32.4177322   4.7459650  81.8750534  32.7753181   5.2406774  82.6123581
  31.4690151   4.8388104  81.9619293   7.9534802  19.7154198  47.4879684
   7.8762040  19.0963821  46.7619820   7.8413653  19.1792088  48.2729149
  59.9270325  12.3387823  13.2013121  59.6071205  12.3123312  12.2995424
  59.4697456  11.6206675  13.6388378  35.1851768   4.8889098  28.6081867
  34.7921219   5.7349963  28.8223743  36.1168900   5.0033894  28.7953815
  18.1334553  61.5037994  59.4009933  17.4199066  61.2158394  59.9703445
  17.7578106  62.2209129  58.8902359  29.3806763  47.5107918  14.2536688
  28.4860477  47.3107529  14.5290842  29.2829247  47.8937721  13.3818874
   5.8797345  19.0840206  76.7132874   5.3957028  18.5156040  76.1142502
   5.2025394  19.5854492  77.1673889  62.1476517  26.8976135  50.6247101
  62.4102859  27.8173103  50.6623039  61.8064423  26.7820206  49.7378922
   1.8080420  64.6241226  60.1006660   2.2510858  64.6325531  60.9491196
   0.8757672  64.6398087  60.3171120  72.7438965  68.9568481  76.4679642
  72.9976425  68.0881500  76.1561813  73.5189972  69.2830811  76.9251480
  55.0524826  44.4026566  86.8408508  54.2282333  43.9856224  86.5900040
  54.9724007  45.3019409  86.5228806  35.9258614  56.7336235  83.3028641
  35.2474747  57.3517609  83.5747604  35.5056000  55.8756294  83.3617096
  75.8390656  31.3667641  73.1824951  76.2243195  32.2399368  73.2558823
  76.5490112  30.8191357  72.8473663  39.9945869  55.8347321   8.1338387
  40.3860054  55.8657913   9.0067987  40.7324677  55.6723137   7.5461431
  40.6464653  29.1353645  84.8833923  40.7213211  28.7597122  85.7606125
  39.9210281  28.6587791  84.4798584  58.0742607  42.0609741  85.8143539
  58.6615677  41.4366379  85.3883209  58.4017715  42.9194183  85.5459518
  49.8853302  52.1972618  44.0803833  49.4419746  51.5981598  44.6810036
  49.4983788  53.0527725  44.2663994  82.4646378  27.6359921   3.6827295
  82.7738342  26.8512516   3.2301705  82.3159561  27.3498154   4.5839667
  57.4126549  55.0011292  83.9787903  56.6674232  55.5513153  83.7376404
  57.8312035  54.7860184  83.1452560  19.5803146  41.7885246  75.3789749
  20.4981594  41.5617065  75.2294846  19.3496742  41.3325348  76.1883621
  49.9495506   4.2966709  75.2834091  49.9566269   4.9163351  76.0129318
  50.6945992   3.7198308  75.4518967  68.5608521  25.5340500   7.1196914
  68.7910004  26.4545231   7.2461448  69.1521454  25.0571289   7.7020555
  80.6913681  10.6999569  63.1825485  80.7489243  11.5996685  63.5041695
  81.3292923  10.2166376  63.7076149  21.8710899  39.9420166  79.6983871
  21.5299988  39.8808517  78.8061142  22.8114204  39.7885666  79.6063843
  57.8900108  70.0325012  37.4046135  58.0104523  70.5854111  36.6325912
  57.8321266  70.6493073  38.1342926  48.3379822  69.4532700   7.9361496
  49.2721024  69.6313782   7.8269219  47.9063339  70.2632294   7.6643424
  61.8940735  70.7593155  45.2821655  62.0630150  70.0884018  45.9436531
  60.9913368  71.0333328  45.4440651  25.2313366  44.0670929  31.4711380
  24.9542522  44.9711723  31.3225040  24.4796524  43.6527939  31.8948841
  32.5185738  58.5008049  63.6186180  32.9756851  58.2149048  64.4095306
  32.0162544  59.2669373  63.8960075  11.8737564  64.2128525  56.0202522
  11.3112297  64.9645996  56.2064590  12.4218845  64.1248932  56.8000259
  64.6662140   3.1980066  88.9059372  64.4024963   4.0961232  88.7057571
  64.3794937   3.0597539  89.8086624  71.4724350  67.4526672  81.5653687
  72.3402557  67.7170563  81.8706894  71.6316910  67.0469208  80.7131729
  23.5251675  59.7688103  41.1249962  23.5504780  59.4489594  42.0268173
  22.6195602  60.0508041  40.9962082   2.3350248  14.0451660  52.0798683
   2.2820725  14.6745462  52.7991066   2.6908762  13.2523165  52.4811020
  28.7775421  24.0988560  74.9732590  29.1233673  23.2639103  75.2886963
  28.0532475  23.8556061  74.3966599  61.1918221  18.4100227  24.4565105
  60.6376762  18.8310719  25.1136818  60.9265327  17.4904709  24.4731083
  61.7192497   8.5184498  22.0104332  60.9873085   8.1698208  21.5015602
  61.9092751   7.8365827  22.6547775  75.7595062  27.7083664  58.3689613
  75.7141876  28.5926113  58.7326813  75.9996719  27.1555386  59.1125603
  59.5479507  10.0162106  25.3579483  59.8163300   9.1271734  25.5899353
  58.6265221   9.9319592  25.1127968  33.0294647  70.8921432  62.3071632
  32.8388100  71.7644272  61.9622078  33.9641609  70.9147186  62.5122566
  45.2730713  65.9490967  73.4442368  45.0633202  66.6601868  72.8387756
  44.4216614  65.6329269  73.7465134  25.6059494  62.6155052  47.1208572
  24.9956932  62.5679321  47.8567657  25.0937958  63.0000343  46.4094772
  73.0322876  64.3716736  38.9085617  72.5539932  64.4351578  39.7352638
  72.5859833  63.6755066  38.4264908  81.7604370  66.1486740  31.8545456
  81.0189896  66.6947021  31.5931377  82.1220245  66.5882263  32.6241417
  16.5289440  27.1761189  70.5564041  16.2048111  27.8073025  71.1988831
  16.8719769  26.4536781  71.0823746  85.9706039  53.1768990  12.5099554
  85.9195023  53.9557419  13.0640535  85.2877121  52.5974236  12.8477402
  40.9039803  54.3083153  83.2723923  40.7389870  54.9824524  82.6131897
  40.3532829  54.5587921  84.0141678   8.8092957  60.3529015  11.1463413
   8.8160868  59.5754967  11.7047539   8.0850086  60.2047348  10.5383215
  31.9435844   7.9962139  77.4171448  31.3172474   8.5478611  76.9485092
  31.5951405   7.9409070  78.3069458  80.9805908  44.9441986  36.7508850
  80.4217758  44.2549286  37.1098633  81.6414185  45.0932541  37.4271393
  74.5989532  52.4170723  73.6014175  74.8040161  52.4628181  72.6675644
  75.2124557  53.0267258  74.0115051  35.8181801  13.7554398  37.8140831
  35.5121803  14.3066359  37.0938225  36.7453194  13.9748211  37.9063797
   3.5112946  70.8514023  46.4835281   3.4845238  71.7061386  46.0534744
   4.0879402  70.3234024  45.9313278  34.7713661  52.3432961  87.9786758
  34.5661011  51.6446114  88.5999146  34.5094566  51.9917755  87.1277542
  13.3769503  67.7041626  75.5606689  12.9423733  68.4333344  76.0030136
  13.6704311  67.1336975  76.2710724  81.5041885  60.5019913  21.6442795
  81.2139816  60.4079666  20.7369900  81.9020996  59.6578522  21.8571758
   0.4703963  29.8131123  46.5593338  -0.1234231  30.5602245  46.4856148
   0.2462158  29.2546215  45.8149796  74.6846924  62.4825974  25.0139637
  75.0768127  61.6720314  24.6892166  74.1444473  62.2073402  25.7546387
   8.9023457  25.7457333  31.8439846   8.0692663  25.2945538  31.7074280
   8.7726841  26.2502232  32.6470490   4.3552709  33.1124878  20.5133648
   4.5238891  33.2230988  21.4490814   3.8883169  32.2792435  20.4509983
  69.4921875  38.9332085  64.6314316  68.6211243  38.5434608  64.5567551
  70.0428619  38.4006805  64.0574875   6.0124993  61.6842651  66.6586380
   5.5649862  61.9391937  67.4654694   6.9410563  61.6795731  66.8909988
  35.8353615  51.4197578  26.9661160  36.6642799  51.7786942  27.2828045
  35.8270035  51.6251602  26.0312519   9.1229124  57.7843361  11.7774448
   8.5775118  57.4696617  11.0565090   9.7959518  57.1114807  11.8799744
  45.5087624   3.2515652  60.0001297  45.5303879   4.1201720  60.4017334
  46.2660942   2.7977841  60.3699493  77.4912720   5.0314412  48.7050781
  76.7547684   4.9443188  49.3102226  77.4138870   5.9209552  48.3601036
  82.9763794  54.8893166  21.2619839  83.0992126  54.1090431  20.7213154
  83.1431427  55.6210632  20.6678734  40.0288887   1.8238288  32.1978188
  39.7582779   2.7414501  32.2290344  40.1010284   1.5640185  33.1162567
  45.0462914  43.2673454   1.4412340  45.3323174  42.5846901   0.8342735
  44.7874260  42.7925110   2.2310150  29.6083851  62.0759888  26.3580990
  29.6224365  62.9264717  25.9191074  28.6947517  61.9549904  26.6166840
  47.5807762   0.7509930  20.3149300  48.3083458   1.0605919  20.8543892
  47.9990959   0.2613946  19.6067390  73.7508926  57.8853302   3.2521088
  74.1126175  57.1769333   3.7846143  73.2576141  58.4228745   3.8717527
  78.4210663   6.8996558  55.9236641  79.3385391   7.1587400  56.0094566
  78.3085098   6.2002244  56.5673714  36.3991165   8.2660151  35.6845055
  36.0005569   8.8599663  36.3205872  36.9565849   8.8291588  35.1475372
   3.2313888  62.3413010  53.1862259   3.4849532  62.8850937  52.4404221
   2.7539268  61.6086197  52.7970695  70.1128616  42.1584969  55.9208069
  69.2409973  42.2814217  56.2962685  70.0885620  41.2800522  55.5413589
  30.9503727   7.9391341  69.6059875  30.0880089   8.1876907  69.9388199
  30.9831867   8.3109179  68.7245483  68.4691162   9.5778980  80.9328156
  68.6278152   8.7806587  81.4382477  68.3008499  10.2504120  81.5928497
   1.5970733  30.0123425  78.5082474   2.0754280  29.9059105  77.6860046
   2.1591434  30.5746460  79.0412827  11.4430323  32.8762321  27.0013542
  11.6770935  32.3166275  26.2608871  11.7492990  33.7474098  26.7493954
  84.4510803  32.0911369  55.7991714  83.6317673  31.6169739  55.9410400
  84.1769867  32.9646111  55.5196190  10.9493980   4.2017717  71.5419922
  11.5832815   4.7045674  72.0534821  11.0837917   3.2952394  71.8183441
  48.9983101   2.3593109  86.7508163  48.6628494   2.2215500  85.8649750
  49.8572273   2.7616129  86.6217957  16.8383713  10.4732151  75.7101974
  16.2888985  10.7112627  76.4569550  16.8820801   9.5174789  75.7400131
  64.7509766  54.7223587  82.0992584  64.0982742  55.3219643  82.4607620
  65.5510025  55.2448654  82.0428848  76.2454376  41.1225739  63.8450317
  75.7042923  40.9754486  64.6207504  76.5902328  40.2569504  63.6258354
  25.3531551  16.0646496  57.5853844  24.7805824  15.3363085  57.3447380
  25.0685081  16.3125610  58.4650116  76.5730209  23.1752033  35.0210800
  77.2640457  23.6479454  35.4850082  76.9600220  22.3235283  34.8183174
  49.2689056  48.7662392  25.7093372  48.6624641  49.4999809  25.6089077
  50.1303482  49.1405106  25.5247669  48.2359161  26.3416729  84.2711868
  47.8796349  25.4833298  84.0419693  47.8964920  26.9298172  83.5965729
  79.7915192   8.4398079  46.3700638  80.4471130   7.8136663  46.0628624
  80.2683258   9.0086641  46.9744568  39.7033310  62.4503326  47.4304314
  40.3327675  63.1706505  47.3960724  38.9446793  62.7717514  46.9432297
  49.3633232   3.7188399  36.8537292  49.7853088   3.2651565  36.1241188
  48.4421768   3.4659240  36.7924538  12.9792833  22.4715137  72.1394653
  12.9082384  21.9847317  72.9605789  13.2870703  23.3392353  72.4013062
  32.0815887  13.2445936  84.9759369  31.3262520  12.8380175  84.5512085
  31.7152519  13.6925011  85.7384415  11.6752615  50.8818359  67.4494781
  12.4621782  50.3492546  67.3339310  11.7251997  51.5370903  66.7535095
  31.8768806   4.8206878   9.3564529  31.3009434   5.5693874   9.2016058
  31.4523659   4.0937033   8.9009171  74.9767609  40.1771011  31.1943302
  74.5985718  40.8863411  30.6745358  74.3992691  39.4302292  31.0364780
  79.4815598  12.7325783  19.6148586  79.9678574  12.0891771  19.0993195
  79.2560577  13.4203606  18.9884892  64.3722610  63.0480690  31.9897594
  63.7145615  63.6013870  32.4110680  65.1617508  63.1707726  32.5169067
  78.0144272  64.4681091  11.9420834  78.6334686  63.7947960  11.6598082
  78.3734207  64.7923813  12.7680387  25.7486515  61.9296303   5.9493356
  26.2737579  62.2854309   5.2324657  26.2098980  61.1329460   6.2115912
  47.6142921   4.6646442  44.8205414  47.8390808   4.3064580  43.9618187
  47.4012756   3.8974152  45.3517799  73.3141098  65.0712204  83.1492462
  73.3073273  66.0263596  83.2115707  73.5053024  64.8926315  82.2284927
  25.0720978  59.6818390  20.5235634  25.3227310  60.4816170  20.9859180
  24.8842010  59.0518608  21.2193012  84.8811035  15.3485279   5.7279782
  84.0765457  14.9284258   6.0320172  85.5789032  14.7487602   5.9917536
  21.5840874  70.1893616  75.7901230  21.3241863  71.0153427  75.3821640
  22.0718174  70.4509888  76.5710831  86.4653854  56.4951172   4.1308308
  86.5785751  55.8258171   3.4559546  86.9375458  57.2567596   3.7943804
  43.5930939   8.4859037  43.7371788  42.9539604   8.3614101  44.4387779
  44.3888359   8.0632782  44.0603142  54.0004845  51.5923729  17.4827557
  54.7809525  52.1288681  17.3439026  53.2758369  52.1419983  17.1843796
   9.0804701  69.3652573  26.6023445   8.6911154  68.6444931  27.0974541
  10.0211992  69.2824707  26.7585735  53.2620850  11.1969385  24.3446846
  53.7764854  11.3976307  25.1265697  53.8746643  10.7449007  23.7644787
  74.0682907  27.9910164  62.5913315  73.5818481  28.0917645  61.7731247
  73.6174011  27.2837257  63.0524979  10.0054417  44.7921410  38.1887169
   9.3363419  45.1366959  38.7801743   9.5231762  44.2282181  37.5840378
  59.7988091  12.0228968   3.7521470  58.9918098  12.0130701   4.2668161
  59.5852470  12.5495005   2.9818804  56.7755585   4.4909129  68.2149963
  56.7756920   4.8029475  67.3100815  56.3220520   5.1769304  68.7048340
  82.9438858  40.7788658  58.7322121  83.4296265  41.5484085  59.0290184
  83.0111389  40.8066177  57.7777786  66.2354736  59.9910164  70.9405670
  66.8672333  59.3580437  70.5993042  66.5978165  60.8439941  70.7010422
  29.9809341  30.0651493  83.8390884  30.0478287  29.8871727  82.9009628
  29.1592560  29.6513538  84.1033859  74.4285583  22.0259972  78.8149948
  75.0906601  21.3634472  78.6177979  74.4379044  22.0972805  79.7694855
   5.8666410  19.5058880  53.5675697   5.6685448  18.5822124  53.7218857
   6.1210532  19.5455093  52.6456490  12.9655886  33.7455139  59.6358719
  13.3235855  33.6152534  58.7577477  13.4471254  34.4969749  59.9817924
  45.3871460  14.7215996   9.3422356  45.2458496  15.0593491  10.2266521
  46.2936668  14.4142809   9.3452024  11.6099997  27.2811527  57.6382217
  10.9896193  27.0223598  58.3196793  11.2148037  26.9699612  56.8238411
  19.3180790  35.5173988  -0.1958231  18.3679638  35.5066910  -0.0800653
  19.6124325  36.2750282   0.3097342  60.2574997  66.1528625  77.7293701
  60.8892021  66.8650055  77.8295059  60.7773743  65.4143829  77.4121704
  44.8847847  12.3078766  70.9067459  44.8331032  12.1111183  69.9714127
  44.1478081  11.8340750  71.2922516  73.8702240  32.4008598   1.8975425
  74.5851593  32.3222351   2.5291455  73.7714691  33.3434944   1.7636871
   3.1171026  24.2077999  69.2897186   3.5205212  23.3425732  69.3594971
   3.2782948  24.4749527  68.3848038  37.5466576  26.5240993   7.2054691
  38.2120018  25.8480396   7.0770459  37.5420341  26.6792431   8.1500015
  62.4661369  18.1448708  68.3309174  62.5615540  17.8280334  69.2291031
  62.0904655  17.4045582  67.8544312  62.1719856  27.4012604  56.4252586
  62.6024361  27.5243359  57.2713051  62.5809364  28.0495319  55.8519096
  69.0635223  60.7078629  88.7216110  69.1890030  61.4488831  88.1288376
  69.4905319  59.9734077  88.2806168  21.3834705  55.4238396  84.5716705
  21.2946873  54.5556259  84.1785431  22.0696220  55.8502235  84.0582275
  26.5801277  46.9075165  15.1127319  26.6685429  47.6213188  14.4811468
  26.6688423  47.3308792  15.9666204  11.6781807  33.3149376  14.8758783
  11.8528252  34.1041946  15.3885269  12.4566326  33.2071571  14.3294096
  53.0845413   6.4055357  59.5111198  52.1682587   6.1288862  59.5000305
  53.4143982   6.1765618  58.6422119  52.3783302  22.2920418  89.1048813
  52.0851974  21.4730167  88.7054977  53.3290405  22.2007141  89.1684189
   1.7835556  55.3007011  59.2528267   1.4245318  55.9750252  59.8295593
   1.2823739  55.3874016  58.4419441  52.0963936  13.3296614  61.2773323
  52.5678520  14.0808611  60.9172516  52.6112251  12.5703764  61.0040779
  60.8636818  12.8224497  81.9727554  61.2231140  12.5275154  82.8094482
  60.6706581  12.0146437  81.4969177  64.9527130  57.9668732  50.9726601
  65.3596191  57.6874847  51.7927818  65.6817780  58.0420418  50.3569946
  78.0439911  70.3433762  15.5121222  78.1408463  70.4053345  14.5618534
  78.9277420  70.4824448  15.8525267  62.0185089  40.3091545  73.6371078
  61.5815697  40.3876190  72.7890778  61.7293358  41.0785637  74.1276398
  23.9712524  67.4662628  63.1984558  23.1289215  67.2753754  63.6110916
  24.1123962  66.7376709  62.5939217  39.0862083  52.4371796  86.1050568
  39.7963486  51.8909111  86.4419937  39.3005486  53.3205299  86.4050293
  17.5000744  49.5937614  23.2731457  16.8983936  50.1140747  23.8055801
  18.0338936  49.1187286  23.9100208   2.9459386  62.8631439  19.7255745
   2.1491053  63.2527046  19.3656731   3.6174564  63.0394096  19.0666161
  64.6747284  32.0942726  62.6509514  64.7909164  32.5801239  63.4674606
  65.3899078  31.4580898  62.6469574  77.0954056  27.6067028  20.4985142
  76.7283096  28.0345592  21.2720852  77.6329346  26.8968658  20.8498344
   2.9482858  17.7782536  84.4326553   2.0114734  17.8019905  84.2375870
   3.3697946  17.7131844  83.5757217  53.5791168  69.1024857  10.9887323
  54.0961800  69.3083649  10.2099552  53.4627647  68.1529922  10.9548569
  86.7339935  42.0285568  63.8011856  86.9618988  41.8362274  62.8916245
  85.7801056  41.9543686  63.8299179  79.2607651   7.4051561  66.8918610
  78.8328476   7.0920758  66.0949326  79.6209259   6.6158533  67.2962265
   3.9408247  11.2605791  18.8672066   4.1340237  10.5386677  19.4653282
   2.9930329  11.3779116  18.9316673  35.3960114  23.7293892  21.3577423
  34.6474075  23.4554577  20.8278484  35.2890739  24.6758976  21.4521732
   2.3401651  33.9031754  65.2446213   1.9922746  33.7741661  66.1269760
   1.6833472  34.4429245  64.8047409  69.6255493  66.7860947  74.5215530
  69.8104172  67.2318726  75.3481903  70.4585648  66.8002777  74.0502701
  56.1969070  18.5109692  57.9165306  55.6671219  19.0774632  57.3555984
  57.0576820  18.4969234  57.4980812  68.2988510  57.4670143  40.8270531
  68.3017197  57.3864975  41.7808571  67.9818802  58.3551140  40.6626129
  58.2727547  48.7277145  83.4388199  59.0406494  48.5016479  82.9139709
  57.8426323  47.8893814  83.6074142  49.8525848  30.2295818  15.8282938
  49.5510292  30.8405628  16.5006027  49.0736923  30.0489922  15.3020420
  59.3807678  39.4747543  21.8009224  58.9896469  38.6082764  21.9126072
  58.8767815  40.0420418  22.3843689  15.2201080  49.3819389  45.9949112
  15.9939394  48.8193512  45.9646873  14.8759928  49.3641052  45.1018867
  82.6902084  34.1499100  37.0345726  82.1553268  33.6877861  37.6800003
  83.5369873  34.2673187  37.4651794  44.7672501  67.0987244  20.5684376
  43.8415298  66.8638229  20.6323853  45.1780891  66.6581573  21.3123093
   3.3401616  14.2011623  39.5798035   3.1312280  13.6996336  40.3678665
   2.9702995  15.0688038  39.7430000  76.4753036  49.2763290  20.6566162
  76.2837219  49.6708221  21.5074425  76.0978928  49.8838882  20.0204811
  84.9401093  41.9784508  34.0723686  85.4502487  41.8391075  33.2745132
  84.2145386  41.3578568  34.0041809  73.6595230  23.5131912  14.5228367
  74.3143997  23.5526829  15.2198343  73.5823975  24.4163208  14.2151985
  21.4985008  16.6187038  74.0381317  22.3461838  16.2395821  73.8059006
  20.9931164  15.8824034  74.3826294   9.1560545  45.2067032  33.9308052
   9.7444229  44.5879288  34.3634377   8.4417934  44.6642570  33.5964203
  65.1967621  63.4745483  70.9122772  65.1415939  64.4243088  71.0178757
  65.3867416  63.1464767  71.7912064  60.7961197   3.4627500  39.7174034
  61.4183807   3.4885728  40.4442825  60.6512833   2.5299027  39.5591278
   9.9871778   0.1870551  70.4376221   9.9482126   0.9222083  69.8258514
   9.6669540  -0.5611143  69.9337082   9.5597219  56.0271759  21.5767269
   8.9965153  55.2552223  21.6325932   9.4567747  56.4605865  22.4239502
  27.4221115  70.6114502  75.9371033  26.5329151  70.2655792  75.8600769
  27.3095608  71.4753342  76.3336868  58.7718201  19.2591286  23.0941849
  57.8554764  19.1342392  23.3410702  59.2174339  19.4547062  23.9184475
  76.0434570  66.7934113   1.8300624  75.5325775  67.6002426   1.8953022
  76.8939819  67.0172577   2.2078609   4.3525748  54.4413681  65.5614929
   4.8992658  54.6511612  66.3186874   4.4351749  53.4929619  65.4618454
  44.6418457  43.5472031  27.8516388  44.9517059  43.7704544  26.9739285
  43.6913071  43.4809456  27.7604179  15.3936348   8.9118595  52.6006317
  15.1075697   8.0307941  52.3595428  14.5829506   9.4157953  52.6718445
  64.1204300  50.3986092  64.9745026  64.1149216  50.6856575  65.8876343
  63.4456444  50.9302063  64.5522461  68.5050507  51.3785172  41.2187233
  67.6871262  51.1669884  41.6687164  68.4736481  50.8656807  40.4111061
  42.9664917  21.6180515  10.7424746  42.5157433  20.7806778  10.6335630
  43.2987061  21.8265743   9.8693285   7.1875091  18.0444183  58.7231178
   7.6118455  17.5260925  58.0393715   7.9042625  18.5208054  59.1421051
  69.3190231  35.2108841   8.0952606  68.8262100  34.8806419   8.8464680
  70.2023010  34.8624725   8.2163534   1.0665822   5.2381330   1.5856103
   1.2664529   6.1742167   1.5800202   1.8867545   4.8165646   1.3290378
  63.9989929   5.4579329  82.5996857  64.3195496   6.2326417  82.1378403
  64.7688370   5.1131968  83.0521545  76.2335815  45.0493469  14.0956268
  76.0744400  45.5333786  14.9059467  77.0619583  44.5943108  14.2471962
  56.5790672  68.9243240  20.3722782  55.9779434  68.8768005  21.1156635
  56.6556206  69.8600159  20.1855965  21.5185356  48.2902260  70.9157410
  21.0650730  47.4691048  70.7250443  21.6401443  48.2817802  71.8651428
  58.7565155  61.0580101  14.9214859  57.8769302  61.0461197  15.2988682
  59.3348656  60.8504982  15.6554375  46.0478706  56.0549660  30.2790108
  46.2656517  55.1503868  30.5038128  46.8945160  56.4736214  30.1235962
  31.5854530  32.2735901  19.1302128  32.3501968  32.8206329  18.9509220
  30.8472633  32.7711906  18.7784996   4.6278467  21.4706116  40.0327950
   4.9024854  22.1837368  39.4563751   4.4475174  21.8961258  40.8710365
  34.0576630  70.6537399  48.0972404  34.3764229  70.5888367  47.1970100
  33.9145508  71.5902863  48.2337151  14.1567907  44.6854782  64.1875458
  14.8416824  45.1261253  64.6905212  13.9113369  43.9327164  64.7254410
  53.1484413  11.9491529  32.5681686  52.2730865  12.2652912  32.3444595
  53.1135941  11.7955885  33.5123253  80.6055298  44.3302002  63.5018349
  80.5370026  45.0089645  64.1732635  79.8107605  43.8073769  63.6078033
  68.9902039  71.3695908  32.5310440  69.8893509  71.0953140  32.3506355
  68.8525925  72.1278152  31.9632511  48.2125664  62.5256386   1.3885891
  47.4040642  63.0285034   1.2902119  47.9379120  61.6122818   1.3075142
  83.7766113   6.0192451  51.8715401  82.9991760   5.5745006  52.2092209
  84.3618317   6.0847116  52.6261673   3.0180404  35.3844299  61.9271164
   2.3618612  35.3838081  61.2302246   2.6596086  35.9711876  62.5930595
  60.2920876   2.5479207  71.5983047  60.9176445   2.0965295  72.1650162
  59.8177032   3.1360860  72.1858902  81.3772659   2.3452764  20.9310551
  80.4260025   2.4445560  20.9693699  81.5582504   1.5668697  21.4578934
  24.3046589  16.2142563  71.6964798  24.2885075  16.6295166  72.5587616
  24.6519547  16.8884315  71.1124344  23.0703754  37.5322876  56.1562271
  22.5267410  36.9890556  56.7268295  22.5793629  38.3487587  56.0639381
  24.3271713  39.2462997  21.6612701  24.8875904  39.7488518  21.0699978
  24.9382458  38.7699432  22.2233238  22.8869476  23.5131912  19.1530781
  22.4656525  22.9215431  19.7765293  22.5147858  24.3728809  19.3496990
  79.9982452   2.9513140  29.5226707  80.8064499   3.3722432  29.8156853
  79.6073380   2.6002526  30.3227825  30.1134853  62.5296288   1.2673246
  29.6950073  63.1963501   1.8119262  30.8857632  62.2630844   1.7660958
  47.3757935   3.4415321   7.4727573  47.5051498   3.0033762   6.6316161
  46.7692299   4.1563931   7.2796612  13.3288736  37.9150505  22.1879101
  12.7499332  38.6688881  22.3009949  14.0688324  38.0920753  22.7687340
  12.1563158  34.6512718  24.6478500  11.4903412  35.2951546  24.4067707
  12.9563112  34.9646797  24.2259331  61.6844368  47.6489639  54.0627594
  60.9929581  47.4927635  54.7059441  62.1505814  48.4166183  54.3938866
  78.6478271  32.2365952  74.3730545  78.1436462  33.0491104  74.3299637
  78.7847824  31.9908943  73.4581146  38.8581238  32.7512894  21.0757961
  38.5834084  33.6236191  21.3582859  39.2904892  32.3761902  21.8429947
  76.4099808  12.5249023  25.6826115  75.9557343  13.1858521  26.2051449
  76.4071884  12.8791304  24.7933712  44.6604919  26.7283974  33.4714203
  44.8821793  26.6043415  32.5485497  45.4691811  26.5250759  33.9414330
  66.8086014  47.5749397  11.1221390  67.6139984  47.0610466  11.1810865
  66.6868362  47.7226486  10.1842766  76.4499054   5.1003804  53.9628181
  76.7607727   5.4797912  54.7847939  77.1872711   4.5788565  53.6457596
  18.2802200  25.4122982  79.4305267  18.7051620  24.5607815  79.3276978
  17.3804073  25.2023067  79.6804733  23.7405796  42.3359718   1.7045099
  23.8462620  42.8662148   2.4943864  24.1325130  42.8628845   1.0081046
  83.4412003  63.4077950  51.5130844  82.6398163  63.8701057  51.7586250
  83.1398773  62.5528374  51.2056961  73.6120758   7.2944279  50.3008575
  73.9014740   6.9898057  51.1609077  74.4229965   7.4727120  49.8245697
   2.7479942  31.3983974  89.0821457   3.4125104  30.9595432  88.5510559
   2.5798690  30.7926712  89.8039932  21.4382019  19.7576923  88.8132019
  21.3295765  20.1142635  87.9315567  22.3472881  19.9531860  89.0402985
  49.6996231  32.9654922   9.0535879  49.2802963  33.3857040   9.8044672
  49.8126602  32.0535927   9.3217154  51.7874031  31.0156136  25.1430473
  51.6274834  30.4850445  24.3625660  52.1466370  30.3998299  25.7817917
  51.6907425  62.4181480   4.8786154  52.3453903  62.7228470   4.2502623
  51.0140457  62.0083580   4.3397441  60.7593002  69.2613983  64.4354248
  60.6447105  68.5374222  63.8198280  61.6470032  69.5786896  64.2694626
  35.5188484  24.7937775  86.9699173  36.4256630  24.5153179  86.8419418
  35.0438118  23.9841156  87.1570587  45.1904602  50.2881622  28.0922699
  45.9677353  50.8452110  28.0502567  44.6155853  50.6269875  27.4060135
  84.7157288   5.4892163  87.4067230  83.8266525   5.1886454  87.5949478
  85.1558075   5.4825330  88.2567291  18.5412865  52.8283997  77.1008682
  18.2374935  52.0110664  77.4957275  19.2530117  52.5629845  76.5184326
  69.7573853  34.3907890  26.4349022  70.1955643  33.5639153  26.6361656
  70.3269730  35.0615654  26.8115444  67.9679871  57.1086998  75.8917465
  67.9711990  56.2272987  75.5184479  67.1597443  57.5041466  75.5652466
  74.0426254  50.2913780  82.8481903  73.6005402  51.1377182  82.9152756
  74.5389481  50.3444824  82.0314407  38.6195679  14.1973133  37.7819939
  38.9453812  13.3263988  38.0091171  38.5137520  14.6404953  38.6237946
  17.9494839  -0.0242349  10.7426949  17.3945007   0.7006163  10.4549170
  18.4745083   0.3436622  11.4534922  29.7898922   5.9051037  42.8659935
  29.6056061   6.1037798  43.7840309  30.6953907   6.1873355  42.7369537
  44.8034515  71.3515320  56.7767868  45.4553947  71.4872589  57.4643745
  44.1475372  70.7812958  57.1778336  44.2753410  55.7492638  21.1148872
  43.7011452  55.5964661  20.3644333  43.7108231  56.1624947  21.7681789
  77.3850861  20.4027843  88.6235657  77.5923615  20.3101635  89.5534515
  77.9186935  21.1419106  88.3316956  39.7905960  16.9650784  85.0449982
  38.9363899  17.3440952  84.8378525  40.2196693  17.6249275  85.5897217
  81.5860138  27.3939362  20.0855465  82.5299454  27.4033298  19.9269810
  81.4880981  26.9380455  20.9214935  41.2587357  19.8708458  68.5612869
  40.5180321  20.0289860  67.9759827  41.5144882  18.9655018  68.3847198
  16.6012096  31.2357121  24.2493000  15.6484871  31.2883892  24.1732960
  16.7644501  31.1955376  25.1916218  21.3379192   4.9191213  19.2559299
  22.0002613   4.2628231  19.0395794  21.8237953   5.6106572  19.7053013
  78.0195770  67.4103165  71.0589371  77.7124023  68.3152771  71.0049591
  78.2823563  67.3006821  71.9728088  82.6213074   5.2335639  72.5861740
  83.2932816   5.1257749  71.9130707  82.3827209   6.1594195  72.5403290
  32.6424294  35.9194489  76.2693100  32.6312065  35.6390495  75.3541641
  31.7234402  36.0836945  76.4807663  29.6175976  55.1502533  42.2526245
  30.5127239  55.2150497  42.5854683  29.3867912  54.2280083  42.3640862
   5.0197744  62.8219681  55.2821465   5.1461763  63.7659340  55.3779945
   4.3170519  62.7386475  54.6375732   3.1077290  67.7704926  71.9137268
   3.6632812  67.3392029  72.5630188   3.7084477  68.3230591  71.4136810
  82.0536423  31.7972298   9.5573215  81.2546234  31.7813778   9.0304956
  82.2038803  30.8815365   9.7921944  84.8118591  29.6011868  28.0532703
  84.7822800  28.9756374  28.7771797  85.7362213  29.8385601  27.9794636
  25.3899345  46.4669266  19.1207829  25.2037277  45.6382866  18.6792946
  24.5444489  46.7466164  19.4717255  69.4546585   6.1709237  60.2899971
  69.3492966   7.0065346  59.8351479  68.6911392   5.6570692  60.0268860
  55.1574860  19.7638702  82.1454391  54.3180237  19.9711361  82.5560226
  55.8103981  19.9898586  82.8079147  73.4307938  32.5522003  44.7057457
  74.3622055  32.6869965  44.8805122  73.0571671  33.4334717  44.7054291
  58.3364029  16.8894596  36.6305847  58.4652138  17.0739269  35.7002029
  57.3867950  16.8263512  36.7330170  15.2469254  56.7496719  36.7863998
  14.6424074  57.3529968  37.2185898  16.0814266  56.8840446  37.2355995
  33.3770447  23.6703014   8.8253307  33.7568321  23.8403664   9.6873465
  32.5350914  23.2550735   9.0122404  69.4835281  62.2626038  86.4205399
  70.1903000  62.6564178  85.9090500  68.8033981  62.9356194  86.4471359
  10.4674788  13.2634420  37.1044693   9.8852854  13.9826717  36.8595390
  11.3486996  13.6213436  36.9968224  47.3222809  57.5349617  87.4402847
  48.2728310  57.6046791  87.3518066  46.9950523  58.4014359  87.1986771
   3.4224405  59.2337685  34.0725250   3.8154089  58.9555054  34.8997955
   3.8761122  60.0477219  33.8536797  50.0568275  70.2738647  51.3863602
  50.6394768  70.7597580  50.8026962  49.3901711  70.9106750  51.6437950
  76.7239914  26.4014168  69.9967422  76.6762543  27.0620136  69.3056870
  76.2767258  25.6386242  69.6302261  10.7847366  15.3502054  17.7292480
   9.8621426  15.5006495  17.9352055  10.7981577  14.4938860  17.3017330
  34.8507080  35.4265022  30.2870064  35.4241066  34.8231125  30.7596226
  34.0103760  35.3634834  30.7409897  38.1864090  10.0235891  25.0401974
  37.9614677  10.3454638  24.1672535  38.8973122  10.5951185  25.3303757
  69.3861160   7.5860739  72.2820587  68.4947510   7.3776793  72.0022888
  69.9080734   6.8359327  71.9973068  52.2800751   2.2852273  39.2313614
  53.1376457   1.8648351  39.2952080  51.6539955   1.5657228  39.3124008
  64.8470154   7.8709035  81.8413773  65.4786758   8.0252342  82.5438156
  65.2783661   8.2031498  81.0541153  64.1790161  67.6065521  86.6463089
  63.2268486  67.6988831  86.6134949  64.4982224  68.1626816  85.9356308
  57.5015984  29.0609608   2.7218018  57.4180756  28.2014008   3.1346123
  58.4105835  29.3155422   2.8804469  41.0171776  36.6937904  18.0437412
  41.6762352  36.7107925  18.7377052  40.3553658  37.3249168  18.3264408
  49.2483788   2.0465715  80.0169220  48.8362083   2.8136427  79.6194916
  49.8637161   2.4086604  80.6544800  83.1897736   1.8726922  14.7744684
  84.0073166   2.3156707  14.5472450  82.9041367   1.4633605  13.9577122
  10.9392385  32.0405121  70.0477219  11.8465328  32.3378944  69.9798050
  10.4706268  32.5479393  69.3850327  42.1735191  14.9715290   7.5618129
  42.2440948  15.1175289   6.6184492  42.5553627  14.1046143   7.6992364
  15.5668430  46.8063240   9.3564310  15.5371752  47.6455460   8.8970194
  16.3913765  46.8281708   9.8421259  70.7464752  68.9505463   5.2597008
  71.3691406  68.3467789   4.8547544  71.2513428  69.3935471   5.9416738
  32.1085548  11.2019978  34.5554695  32.7474251  11.5649338  33.9419937
  31.3053703  11.6934853  34.3835144  42.5513649  43.3020134  24.9039631
  42.0068550  44.0812874  25.0156517  42.0696220  42.6069450  25.3523331
  62.4345856  40.1718750  47.6281433  62.9155998  40.9933128  47.5276909
  61.6512833  40.4119949  48.1231346  78.7128143  15.0020323  56.9764519
  78.6577454  15.9219217  56.7176018  79.2923431  14.6046104  56.3265038
  72.5023499  27.9978313  21.8477001  71.5994949  27.6870213  21.9145966
  72.8005905  27.6852627  20.9935417  64.7661819  13.2815866  22.2775841
  65.6522675  12.9444218  22.4094753  64.2230377  12.4986477  22.1868401
  61.9718132  56.6093636  29.6370029  61.5918541  57.4874611  29.6653633
  62.6542397  56.6651688  28.9681168  13.4874878  61.2468033  34.6017456
  12.5933905  61.2422829  34.2599831  13.8531332  60.4059067  34.3271065
  83.0576706  39.5788231  12.1558161  83.9974442  39.7294312  12.2576981
  82.9676819  38.6259346  12.1442204  56.6170998   8.0342827  49.7036781
  56.9505157   8.8831520  49.9943466  56.2904015   8.1956110  48.8185387
  22.6187706   3.2608154  62.2724495  22.1529999   3.0147727  61.4732323
  23.4641685   2.8172686  62.2031708  21.6148796  58.3982048   0.7337671
  20.8798447  58.6307983   0.1664455  22.3882980  58.7092819   0.2633548
  70.8834763   1.4663482  16.4050179  70.7722702   1.0854908  17.2761173
  70.0552979   1.9139416  16.2318020  28.1507835  47.4687347   3.7871988
  28.8202305  46.8495407   3.4962153  27.8128052  47.8535919   2.9785652
   8.5180264   1.4589080  88.6603851   7.5727901   1.5148453  88.8004913
   8.7073336   0.5207410  88.6757889  77.4862747  41.8460579   6.3787513
  76.6435547  42.2107964   6.6489644  77.7348404  42.3606758   5.6108866
  31.6468506  50.5524368  83.5845032  31.5385990  51.1782532  84.3006516
  31.1220322  50.9131126  82.8698578   2.1185760  40.3210602  32.7635803
   2.3590093  39.4243584  32.9967117   2.6677823  40.5273514  32.0072403
   8.7774353  11.3114777  43.6409912   7.9597082  11.0370188  43.2259865
   9.4225569  11.2936211  42.9340744  86.1419830  21.3418102   2.7924259
  86.8992538  21.4707966   3.3635056  86.1570892  20.4081917   2.5818121
  73.3560028  12.7368927  71.9171143  73.7779236  12.1967602  72.5853043
  72.4256516  12.5235758  71.9890289  12.0132370  64.3803864  43.3208923
  12.5368443  63.8955650  43.9588699  11.5704107  65.0540619  43.8369293
  68.0767670  68.8658066   5.8588095  68.9170761  68.9175797   5.4033632
  67.4846115  69.4010315   5.3304906  35.2255898  29.7261639  25.7275028
  35.6090050  29.2854462  26.4857845  34.3042717  29.4668655  25.7403107
   0.1636422   3.8593676  30.9735336  -0.0322415   4.7959228  31.0004787
   0.9346364   3.7920377  30.4102688  74.2703018  13.2194767  53.0957336
  74.6625900  12.9210739  52.2751884  74.6923065  12.6874723  53.7703590
  51.9689751  50.1059227  63.8079567  51.8348083  49.5231743  63.0605392
  51.2269440  49.9287109  64.3860703  71.1354675  47.5389023  13.5376110
  71.6973724  47.8531876  14.2459316  70.3998642  47.1192398  13.9837027
  34.9769478   9.2157469  39.5614815  35.2133293  10.0099859  39.0823784
  34.0346870   9.2966576  39.7092400  65.5184021  40.6821785  70.3755035
  64.5700912  40.5520287  70.3742981  65.7412643  40.8282928  69.4561462
   7.3071017  67.9605179  35.6775818   7.5335603  67.1135941  36.0618515
   6.3612285  67.9149704  35.5380058  11.5539579  68.2681046  88.4703979
  12.0011530  69.1098404  88.5583344  12.2473965  67.6164932  88.5741806
  59.2888794  64.7278824  19.2172527  58.9900703  64.2316513  19.9792919
  59.4689484  65.6042023  19.5576572  70.5078735  53.6520538  68.2682953
  70.5905991  53.2601433  69.1376648  69.5678711  53.6389503  68.0881271
  56.1576042  69.5954132  65.8709106  56.7009392  70.3821182  65.8249130
  55.9458885  69.5045319  66.7999649  46.8262138  51.9214630  76.5011292
  47.6628342  51.7140007  76.0848923  46.6640396  52.8360939  76.2700882
  82.3528976  65.3485565  24.6393147  82.5291290  64.4992447  25.0440979
  83.1949463  65.6185608  24.2728558  24.1840153  37.1775551  75.9259338
  23.4543400  37.1037292  75.3108292  24.8917351  36.6776962  75.5191116
   4.2729344  55.1503563  74.7734833   4.5444965  54.8621254  73.9020386
   3.3716590  54.8393936  74.8585587  64.0816345  34.7574120   3.6038182
  64.5114212  35.5896797   3.8009219  64.7528381  34.0957565   3.7709203
  62.7813721   8.5136032  58.1608009  63.0373077   8.9341297  57.3398972
  61.8609161   8.7504139  58.2744179  43.5527229  13.5865078  15.5730486
  42.8387222  14.1462946  15.8781290  43.1375046  12.7415495  15.4002113
  74.8862915  45.7771912  38.4776077  74.2434540  45.2106705  38.0509415
  75.4753494  45.1730690  38.9295845  21.1160469  31.7903843  29.2390518
  21.1471863  32.4948769  29.8863182  22.0340805  31.5727215  29.0775928
  68.0923080  63.6271362  56.3122902  68.0722046  62.8505898  56.8715744
  68.9423981  63.5849419  55.8743401   0.7013041  43.9929123  17.4064484
   0.4977083  43.5144539  18.2101021  -0.0519552  44.5682297  17.2728634
  84.2907181  28.8160686  66.0555420  85.2134247  28.5998325  66.1900101
  84.3018265  29.7083530  65.7092209  72.6192551  58.9073792  30.7511787
  73.5183105  59.2342186  30.7179985  72.0839462  59.6910782  30.8756313
   3.4398017   5.2819285  47.9802666   3.9279418   5.0126147  47.2021790
   3.1350303   6.1663861  47.7775803  13.1299591  71.0913086  56.2261429
  14.0244961  70.9917145  56.5519028  12.9267206  72.0165634  56.3633385
  71.5340424  10.3421907  79.9326782  71.8927155   9.8697586  80.6839371
  71.0702744   9.6736374  79.4285049  85.5261917  58.4143181  26.1628628
  86.3165588  58.0544243  25.7603340  85.6577835  58.2891808  27.1026783
  39.2880096  64.6366730  10.8479633  39.3037720  63.6864700  10.9624052
  38.5615921  64.9320145  11.3968925  41.3767891  54.4768677  34.0363770
  40.8246880  53.7138329  33.8655243  41.0457649  55.1499825  33.4417572
  10.0371752  53.7938957  30.9210243  10.7976961  54.0709229  31.4320011
  10.4085388  53.4249420  30.1196537   5.1478958  37.2742233  64.4919662
   4.3520918  37.7733345  64.6758575   5.4622712  37.6233940  63.6580162
  18.1125546  42.7790680   8.6326714  17.5877533  43.1065979   9.3631096
  17.4716549  42.5621529   7.9555984  57.8923073  39.5536461  15.6424408
  58.0722237  38.9961739  16.3994656  57.1655693  40.1102600  15.9222050
   7.5972219   9.9799662  57.8101082   8.4099894   9.6008081  58.1445923
   7.0000224   9.2359543  57.7324524  72.0586777  59.6668625  83.5789413
  72.2486191  59.8366280  84.5016174  71.1086502  59.5544205  83.5467224
  71.6212311  19.7752800  47.7088776  71.5585327  20.7166939  47.5475006
  71.8783646  19.7064877  48.6283226   5.4350562   9.5855837  40.3182106
   5.2648664   9.9568701  39.4525261   4.9274473   8.7742338  40.3348541
   7.4615369   6.2715473  15.0567684   6.6778007   6.5286050  14.5710621
   8.0456772   5.9056754  14.3925772  71.1408310  69.4606705  20.8635998
  70.3022461  69.8005219  20.5513344  71.7008972  69.4548111  20.0873737
   4.9485278  46.5596046  80.5269241   5.5078702  45.9322510  80.0688858
   5.5316257  46.9868011  81.1544037  20.6519203   4.5274229  10.1929131
  19.9301414   4.8334794   9.6437340  20.7130241   3.5902834  10.0077982
  23.1500607  30.3203983  27.6699886  23.5056114  30.6460857  26.8431015
  22.5602036  29.6112309  27.4142952  70.4501114  29.3648930  45.6220131
  70.1614227  28.7128754  46.2605782  69.6467590  29.6388397  45.1795158
  40.8393097  35.9447556  37.1842575  41.6022301  35.9438210  37.7623367
  41.0924950  35.3818779  36.4526176  21.3446369   7.8221965  57.3187637
  20.5768280   8.0078764  56.7781868  22.0646915   7.7433133  56.6930389
  57.4508209  10.6420355  50.9883499  57.8465042  11.2375345  50.3519211
  56.5744247  10.9974174  51.1362267  12.7677937  23.8263512  62.1116066
  13.3483610  23.1589508  62.4773254  11.9277773  23.6769085  62.5455093
   1.4199492  15.4065285  36.5452881   1.1669343  16.2773228  36.8517723
   2.0596173  15.5728045  35.8528938   8.6079683  17.3593884  56.6002655
   7.7872243  17.3125706  56.1099396   9.2049761  16.7826862  56.1235809
  82.5585861  19.9781113  48.2103653  82.4880829  20.0221539  49.1639481
  82.9829025  19.1371517  48.0401573  49.8924561   5.0621300   8.4184227
  49.0143356   4.7552619   8.1926517  50.1364899   4.5457668   9.1865683
  69.5142899   2.4871714   2.3004777  69.8976593   1.9280672   2.9762428
  68.7537003   2.8862751   2.7229168  51.7478981   3.5426803  41.7539749
  52.1381950   2.7438834  42.1086884  51.9503746   3.5133841  40.8188934
  64.3627243  21.5176487  59.9952049  64.5871201  22.4201660  59.7686234
  63.7689590  21.5986443  60.7416077   8.6934147  44.0971031  49.7674484
   7.9496922  43.5283852  49.9666138   9.0653868  44.3132401  50.6225243
  48.5116310  16.7911949  83.9444733  48.0490150  16.3161068  84.6347733
  48.1370049  17.6717434  83.9673233   2.1552835  39.8422318  26.8889942
   1.3187040  39.5694847  26.5121975   2.6724083  39.0378647  26.9315453
  43.6860924  12.3277082  58.5925140  43.5285378  11.6790028  57.9065170
  43.9611740  13.1136045  58.1203613  63.2517052  70.2282181  73.0443878
  63.5881844  70.2454758  72.1484451  63.9311485  69.7785721  73.5467834
  24.8460922  50.8899193  24.4810677  24.1752491  50.7245979  25.1435413
  24.9961720  51.8343658  24.5226631  85.4383316  55.5443687  14.0867910
  85.7135849  56.4411201  13.8962584  84.4823914  55.5872345  14.1107998
  53.4337997  36.0835495   1.3465933  52.7561836  36.7374992   1.1750786
  53.6709938  36.2193489   2.2639418  38.8886337  62.1236458   8.0240908
  39.8302155  62.1753044   8.1883516  38.6361313  61.2589302   8.3477297
  79.3650589  25.2765961  21.5496998  79.4144135  24.5335922  22.1511478
  80.1872482  25.7481041  21.6835251  41.7191849  70.3699570  33.5164795
  40.8052902  70.1003036  33.4252853  41.6832695  71.3252029  33.5658417
  52.3353615  59.0986519  29.7451477  53.1456261  59.0226974  30.2490654
  52.5493584  58.7258339  28.8899021  29.6125259  14.0887022  38.5232697
  28.7361927  14.0087576  38.1465988  29.6444855  14.9810324  38.8681755
  69.2443771  21.4635563   6.0749922  68.4737015  21.8002548   6.5320706
  68.9593124  20.6259460   5.7097797  24.2081432  10.3651619  50.0074844
  23.9825726   9.5574608  49.5460014  24.7581615  10.0787811  50.7366600
  64.8519287  36.8239174  74.3927765  65.6327362  36.2772522  74.4806442
  65.1803513  37.6587372  74.0589371  61.5656853  43.5825844  36.2680855
  61.3257675  43.8990059  37.1390343  61.5308418  42.6288605  36.3417511
   9.4243441  16.1382179  49.5949173   9.0610285  15.2589636  49.4893494
   9.9674635  16.0801601  50.3809738  38.0387726  50.8411369  81.5273132
  37.9031525  51.1220856  82.4322510  37.9248047  49.8910599  81.5518570
  71.2376251  25.0229397  39.9431648  70.3914566  24.5971947  40.0809059
  71.7335129  24.8335571  40.7396965  68.0985413  11.8071280  82.5842896
  68.7689133  12.4321604  82.3083038  67.2836227  12.1540775  82.2212906
  73.6973801  39.9816017  15.3473558  73.4051437  40.0699883  16.2545567
  74.5136414  40.4800797  15.3090239  83.4754791  66.3134766  80.2789612
  82.7987747  65.7594299  80.6679764  83.6482925  65.9167175  79.4251785
  68.0057068  34.7753716  67.0326691  68.7023315  35.4299393  66.9828110
  68.4638138  33.9494324  67.1882172  42.4683380  52.6765900   0.4169459
  42.5921593  53.6126022   0.2595126  43.2918816  52.2759018   0.1386439
  59.5226669   1.8880622  83.4833679  59.2615204   2.7897413  83.6704712
  58.8786964   1.3514049  83.9454651   6.0819345  33.1726303   8.1464052
   5.6731434  33.0144997   8.9973545   5.7937341  32.4397125   7.6023402
  76.4169617  55.7767143   7.7355399  76.4258499  56.6737213   7.4015756
  77.2296524  55.3912086   7.4081941  40.0861282  26.6925335  29.2364445
  39.5784454  26.9564877  28.4690990  39.8416100  25.7787151  29.3826542
  79.1105423  61.8001022  42.2186241  79.5512695  61.7082748  41.3739014
  79.7323837  61.4439240  42.8531914   0.3537277  61.5871201  50.5780869
   0.7766082  61.1113853  51.2929840   0.2669017  60.9400101  49.8781281
  12.4556751  50.5083694   1.9011852  12.7067814  51.1318626   2.5826762
  12.6746340  50.9495735   1.0804374  83.6902008  60.9419594  85.1165771
  83.3270416  60.4852257  84.3577957  83.0661011  61.6457634  85.2937775
  23.5882454  56.7396164  66.5444489  22.6647263  56.4985924  66.4720078
  23.9852142  56.4123917  65.7372513  64.7341690  60.5199966  34.9536133
  64.3542023  61.3513870  35.2375946  64.0511322  60.1145134  34.4195023
  13.4413548   2.8223157  60.0556183  13.7144003   1.9515164  59.7668495
  14.1657887   3.3957288  59.8053665  17.2984848  68.4222870  35.9294662
  16.3753147  68.6742096  35.9065704  17.6657391  68.7847748  35.1232643
  15.7582703  40.7657738  76.8167419  15.4691439  41.6780319  76.8373566
  14.9473305  40.2572861  76.8238068  83.7749023  12.3720331  23.9094238
  84.6642990  12.4793911  24.2465897  83.5313339  13.2426043  23.5947647
   4.1060376   7.6006293   0.2877733   3.5685439   6.8922801  -0.0665906
   3.4768858   8.2034779   0.6839720   1.5039874  47.0094566  48.1924286
   2.2265615  47.6331863  48.1211472   0.7176016  47.5368767  48.0522270
  77.2238007  54.0785370  85.2016983  77.5280762  54.1735420  84.2991333
  76.3016891  53.8353577  85.1192474   0.1959937  69.6261520  26.3370953
   0.7775456  68.8978195  26.5551758  -0.6855863  69.2715683  26.4524860
  39.2955513  15.9492044  72.6737823  38.9463387  16.7683487  73.0249023
  38.7655411  15.2668161  73.0856934  12.1710892  36.4043312  40.7582054
  12.9227695  36.7560387  40.2812271  11.5827665  37.1520729  40.8630638
  69.1325302  40.4846725  30.3901615  70.0556259  40.3441353  30.1794872
  68.9819031  39.9539757  31.1724033  11.3869629   1.5283659  39.7169495
  11.4851875   1.8822308  38.8330040  10.7570858   2.1119466  40.1399384
  11.4855261  67.3714371   2.2994239  11.8877325  68.2251892   2.4593315
  10.5635309  67.5682755   2.1338537  65.9376984  69.6809692  76.2666245
  66.5549088  69.3283157  76.9076538  65.2719498  70.1232529  76.7933044
  58.8367119  66.2736053  55.1801033  58.6681709  65.3361969  55.2754402
  59.3019562  66.5159531  55.9807587  73.7206879  36.7698555  68.2259827
  73.0956802  37.4900055  68.1423950  74.4924469  37.0652313  67.7428894
  43.9353371  22.8015003  33.9643669  44.5750618  23.4218864  33.6149330
  43.0880432  23.1482697  33.6849403  51.7954597   1.7556161  25.1791935
  52.5202446   2.3751667  25.0950756  51.0256615   2.3057818  25.3239727
  64.2433853  61.2267761  18.1264553  64.4383926  60.6637039  17.3773537
  65.0994186  61.5356102  18.4232082   7.3569512  62.0098915  56.4032631
   7.8171153  62.7539177  56.7917328   6.5926051  62.3972206  55.9766693
  83.9357605  70.7953339   7.8723235  83.1212692  70.6321411   7.3967214
  84.0412979  70.0293045   8.4364939  70.3816452  33.2854996   3.9409220
  70.2227173  32.3658562   3.7282474  69.5100021  33.6804886   3.9622655
  67.3700867  36.8996048  40.0856705  67.6546783  36.1205177  40.5634422
  67.9794846  36.9656258  39.3504791  22.3164597  48.7721710  87.6053696
  22.2041664  49.2523422  86.7849655  21.4821949  48.3211479  87.7350311
  19.3380508  17.0046654  46.2163315  20.2151356  17.3664989  46.0897255
  19.4451942  16.3541584  46.9103012  76.0971069  32.1022453  17.9657993
  75.3269653  32.5656128  18.2950535  76.1420364  31.3060055  18.4951515
  60.7154770  61.0420074  21.8996315  61.6418076  60.8808784  22.0790234
  60.6934204  61.3178635  20.9833069  86.1053467  43.2564125  39.4887772
  86.0255051  43.5405540  40.3993378  86.7994919  42.5974846  39.5034828
   4.0189066  70.8040237  13.7342997   3.9727182  71.7566833  13.8151588
   4.1963191  70.4965286  14.6232319  27.1273212   8.1219339  81.2669601
  27.3001633   8.6298752  80.4742737  27.3821201   7.2279096  81.0388565
  20.3067417  36.5302277  33.0420799  19.9037266  37.2083817  33.5842209
  20.6305065  36.9993286  32.2730865  74.5494385  57.3564262  69.3539047
  74.8008575  58.2314606  69.6494293  74.6532516  56.8031425  70.1280746
  15.1771202   8.6442204   0.8273045  15.5128069   9.3420181   0.2646112
  14.5372486   8.1849022   0.2834081  81.0492249  17.8045082  40.4970856
  81.0748672  16.8643532  40.3190804  81.6916885  18.1798878  39.8949509
  79.8956451   0.7896938  47.6822205  79.3577423   1.5748847  47.5804100
  79.3770905   0.0907869  47.2836533  84.4861755  42.2854347   7.5734997
  84.3662109  43.1684418   7.2240148  83.6163025  42.0287476   7.8795500
  16.2023335  52.2909126  24.3845272  15.5350466  52.9736557  24.3150940
  16.6213322  52.2771225  23.5240154  60.5587196  30.9493980  70.2644348
  60.2830315  31.8372288  70.4924393  60.3303185  30.4234238  71.0308685
   7.5784702  26.6401329   2.6960738   8.2417631  26.0653210   2.3141477
   7.3612599  27.2543106   1.9947623  72.5158081  20.0938988  79.7359314
  73.0730743  20.7182713  79.2713318  71.8852081  19.8002644  79.0783920
  65.3492203  38.5737839  29.9241028  65.1263962  39.2739563  30.5375671
  64.6405182  37.9374542  30.0192337   2.0923827  62.5228729  67.1511688
   2.6063972  61.7682571  67.4385300   2.0978262  63.1163673  67.9021454
   5.9748597  38.8741722  27.5459366   5.7727151  38.3596115  28.3273430
   5.2688341  38.6672211  26.9336205  62.9109764  56.4310989  75.5233383
  62.7707329  57.1291351  76.1631088  62.1534576  56.4845352  74.9406357
  86.2865067  67.8245468  38.3725815  86.1942673  68.5590286  38.9794273
  85.9054337  68.1412125  37.5535965  35.7382011  64.3392334  78.6447296
  36.0137634  64.7447891  79.4668121  36.3091393  63.5767326  78.5506287
  20.3880844  38.6086655  86.5213318  20.4630280  39.2273865  85.7948303
  19.4641361  38.6412086  86.7693024  34.1358109  69.0545731  17.4790936
  33.8785248  68.4781036  18.1986217  34.9107933  68.6371078  17.1031208
  61.9378815   5.6531625  84.6744919  62.4399147   5.9658909  85.4270859
  62.5291901   5.0479813  84.2268906  38.5653877  64.5801926  14.5943756
  38.4477158  64.0075989  15.3523512  39.5145454  64.6519012  14.4934301
  20.5453720  32.8892517  88.6720352  21.4468517  32.7203331  88.9459610
  20.3364086  33.7436371  89.0496521  58.9475365  28.2497921  81.2543564
  59.1450195  28.2541790  82.1909561  58.6311646  27.3632870  81.0804367
  69.4279251  53.8652420  84.0240173  69.0315170  54.6822853  84.3265457
  69.8855133  54.1050339  83.2181931  18.3243904   0.7453092  76.9949570
  19.1006126   1.2924467  76.8751602  18.5103092   0.2351295  77.7832336
  -0.0415937  36.1300392  72.1892242   0.3271453  36.8487396  72.7027664
   0.7119997  35.5833893  71.9667206  76.3812027  54.4489517  48.1736488
  75.8816528  53.7697945  47.7204094  75.9397583  55.2659988  47.9417114
  60.6482925  38.9956017  59.4333115  60.5180511  39.1754608  58.5022240
  60.0579643  38.2659035  59.6211586  46.3187904  35.8756599  10.0216217
  46.3436928  36.5758057  10.6738567  45.5384560  35.3681679  10.2446823
   6.1777501  55.2044601  85.4766388   6.4965181  55.9073753  84.9104919
   5.9179993  55.6469421  86.2847061  81.9427719   1.0079846   1.7081379
  82.1506348   0.9092065   0.7790172  82.7739182   1.2530671   2.1147819
  17.5895901   9.4304047  53.7962265  16.7702541   9.3556023  53.3070183
  17.3225250   9.7240362  54.6672516  76.2927933  55.0508995  34.3723450
  75.4010239  55.3497581  34.1943893  76.6535492  54.8465347  33.5096054
  69.7157516  42.6347656  20.3255177  69.3592148  43.3004799  20.9136810
  69.8321304  41.8630600  20.8797340  55.8461800  14.4361391  56.3046227
  56.3990097  15.1332855  55.9516373  54.9628754  14.6589308  56.0107346
  12.6861143  42.4803963  59.5060616  13.3077459  41.8028717  59.2400475
  13.1892738  43.2939529  59.4716072  18.4045238   3.4736152   0.1801427
  18.4872665   3.3142383   1.1203471  17.7361183   4.1552606   0.1106725
  26.0288658   9.3799353  51.9300537  25.4245911   9.7897930  52.5490074
  26.3093395   8.5753784  52.3662376  70.2370300  42.3412476  66.8366928
  70.4616318  43.2701874  66.7832413  69.5888519  42.2915878  67.5392838
  53.5282021  27.3015537  66.7967224  54.0384140  28.0066242  67.1952057
  52.6199989  27.5967731  66.8618851  21.5163155  49.7659683  23.4543667
  21.0011787  49.5543289  22.6758575  21.4769459  50.7204056  23.5154400
  50.4035416  60.6918869  88.0598068  49.6188965  61.1799545  87.8100967
  50.6877556  61.0980225  88.8786545  13.8865185  71.8981018  59.3404198
  13.7236576  71.4439163  60.1671181  13.8240986  71.2132874  58.6745682
  79.3798599  27.8132362  83.7072067  79.2346725  27.4505234  82.8333664
  80.2873383  28.1173553  83.6925583  50.3538742   3.5671620   4.7984695
  51.3061409   3.5782492   4.7020531  50.0346794   4.1230984   4.0876389
  75.3357162  48.7376862  40.5447960  74.9850082  48.2203712  39.8197975
  76.0053406  48.1772919  40.9369545  69.9888611   9.0598097  20.4120369
  70.3772125   8.2776737  20.8040581  69.6346130   8.7578239  19.5756512
  57.0199089   6.8504205   1.7225883  57.1034012   6.1523952   1.0729564
  56.1817093   6.6790748   2.1518798   7.9050736  22.8470364  36.0698280
   7.9477258  22.1271362  36.6992416   8.6351242  23.4179878  36.3091469
  78.7715530  66.2702408  37.4166641  78.5072098  65.3869705  37.6739388
  78.1827011  66.8475800  37.9026337  78.7870331   1.3825846  21.3417606
  78.8177948   0.8728657  20.5321484  79.0007401   0.7523910  22.0298138
  29.8402081   3.9490232  34.1704903  30.7551308   3.8188314  34.4198837
  29.3530159   3.3318250  34.7163315  84.0658417  45.9279747  23.2841072
  84.6857681  46.5976601  23.5729752  83.2282028  46.1989899  23.6597958
  15.6719618  51.9352036  39.1311760  15.6944304  52.8909264  39.0830421
  14.7697515  51.7053375  38.9088936  44.4117203  42.6019440  74.2815247
  44.2252846  43.3826294  74.8030624  43.5630188  42.1698837  74.1852951
  82.2628555  40.4090004  72.7742920  81.4403610  39.9408875  72.9178391
  82.0030670  41.2227821  72.3424454  43.4040871   7.4260893  24.6616917
  44.3423576   7.3507547  24.4878807  43.0070801   7.5219836  23.7960014
  36.9338417  22.7724228   1.1075424  37.5694466  23.4744473   1.2468170
  36.2524071  22.9333286   1.7602210  81.0557022  20.0098763  37.3179550
  81.1722717  20.3132343  36.4176102  80.1100159  20.0445786  37.4618416
  29.6729698  11.3169041  39.5271683  29.5903912  12.1802788  39.1222000
  30.4887581  10.9631653  39.1727791  71.8327942  34.8368454  44.6910057
  72.3016281  35.6424675  44.9087219  71.6286087  34.9227486  43.7597923
  64.0261917  45.4172096  55.3111305  64.3091431  45.0779686  56.1602974
  64.4517441  46.2717133  55.2407227  69.3746185  40.4012070  87.0096359
  69.9571838  40.7511482  87.6837311  69.3671494  41.0726128  86.3274460
  83.3395462  54.0172005  11.6080446  84.0870438  53.8369102  11.0379753
  83.0916595  54.9180946  11.4002514  62.4920425  12.9225836  66.1814041
  62.1715889  13.3458061  65.3848953  63.4283028  12.7977762  66.0262451
   1.5717061  42.1488876  78.7172012   1.4474230  42.5098839  77.8394394
   2.3231556  42.6265717  79.0684433  36.3260994   1.7059946  48.6923332
  36.8025932   1.1353647  49.2952995  35.4328041   1.3621138  48.6926003
  43.1183357  69.0094604  70.1393738  42.7625198  69.8003387  70.5445251
  42.3847923  68.3946075  70.1295319  14.0167465  35.0103951  36.1873169
  14.0183630  35.9116325  35.8648186  13.3282185  34.9951324  36.8520927
  10.5854387  38.2124023  75.6843719   9.8928404  37.6936226  76.0935287
  11.2077217  37.5638695  75.3551254  67.8544617  68.9785767  49.6189156
  67.2808075  68.2196503  49.7246666  67.5080795  69.6277847  50.2311096
  37.4848366  55.0200005   9.9683380  37.2739716  55.7322426   9.3646154
  37.5022011  55.4344635  10.8309803  41.7930679  15.6758709   4.3530269
  41.2101479  15.1089439   3.8480227  41.6678543  16.5461197   3.9745834
  27.7152882  60.7174454  24.2200661  28.6359291  60.4556999  24.2082157
  27.4308796  60.5522919  25.1189919   1.0695337   4.5852542   7.4372396
   0.8520628   3.6777835   7.6503949   2.0237851   4.5916390   7.3624368
  10.4377613  41.8667526  40.5412712  11.1848431  42.2519264  40.0832977
   9.7203617  41.9114075  39.9091492  58.8853340  49.7424088  36.5456390
  58.4347763  49.1915359  35.9055061  59.2450981  50.4639130  36.0296593
  85.6574173  61.7587128  73.0342102  85.3762360  60.8437424  73.0326233
  85.9020309  61.9356804  72.1258774   6.0375419  22.8185806   2.0057526
   6.5920806  22.0808067   2.2595434   6.1900067  23.4770756   2.6835213
  69.6213989  27.4537830  80.8374176  69.3806305  27.6947021  79.9428635
  68.7860184  27.2841778  81.2728653  67.9660568  54.9548225  88.4421463
  67.8918457  54.2717056  89.1085358  67.0616302  55.1475906  88.1950073
  49.4865417  56.7798653  41.4691200  48.5578003  56.8623466  41.6856232
  49.9101753  56.5795937  42.3037796  73.5922928  10.8931675   1.6771954
  73.7615280   9.9913282   1.4046582  72.9519043  11.2184229   1.0444638
  32.4971771  64.1550980  73.3138962  32.0548820  64.6396942  74.0108719
  32.5861969  63.2667656  73.6591034  26.7420368  39.1040802   6.8712234
  26.5561066  38.1680069   6.9448795  26.0182896  39.4517517   6.3501220
  51.7542725  52.9554482  16.7942200  51.0738907  52.3689613  16.4635448
  51.8347626  53.6320343  16.1219215  13.0613976  37.3137283  10.6526022
  13.6738138  37.1364822  11.3665781  13.5578499  37.1197929   9.8575191
   4.9113164  14.0942011  85.3935623   5.1266165  13.1615982  85.4049072
   5.6493344  14.5157633  85.8338470  55.7182922  12.5880985  89.0946655
  55.6035576  13.3356571  88.5079575  55.3187332  11.8539648  88.6281509
  78.0786514   6.5852027  77.9196091  77.4681854   6.6329117  78.6553345
  78.5493393   7.4183073  77.9445267  13.7678795  13.5081339  47.0368423
  13.2501011  12.7753496  46.7034264  13.1329679  14.2139187  47.1592598
  82.3743744  28.1957836  67.8289642  83.1747665  28.2459297  67.3063812
  82.6483536  27.7822914  68.6476135  63.5798035  24.1818714   0.5849980
  63.5060539  24.7541523   1.3487306  63.9883385  24.7290630  -0.0857577
  54.5755463  11.0922775  54.5923691  55.3488350  11.5721817  54.8889313
  54.9269409  10.3705320  54.0709915  58.9445000  64.6067963  47.8107452
  59.3562126  65.4563904  47.9685783  58.4228516  64.4437485  48.5965767
  77.5663071  39.2267761  30.0009689  76.8409042  39.7899818  30.2708244
  77.7803726  39.5198212  29.1152306   0.5807171   2.1224451  32.9750175
   0.5340387   1.4321524  32.3135452   0.4126781   2.9305003  32.4902077
  79.7064667   9.7417898  54.1833916  80.1592102  10.5201168  53.8586426
  80.4093094   9.1539097  54.4602356  17.4944916  23.8463554  20.8384056
  17.3659172  23.6885128  21.7737064  17.3240547  22.9991093  20.4268742
  35.8553925   2.0530343  40.1838875  36.8039970   1.9468077  40.2552910
  35.6807022   2.9111035  40.5704536  82.3947372  69.9069977  57.4879532
  81.7687912  69.2453918  57.1935043  83.1582031  69.4045868  57.7724419
  11.3528452  57.6729507   1.1796008  10.5775862  58.2104645   1.3417374
  11.2435818  56.9154358   1.7544589  48.0637131  71.4201431  36.3531799
  47.2623100  71.3111954  35.8412132  48.4762878  70.5565414  36.3389473
  55.4803085  59.6882362  43.3468094  56.1683502  59.0686150  43.1041145
  55.7299690  60.5048561  42.9143372  62.7837029  22.8104992  68.3017960
  62.6428337  23.6012707  67.7811508  62.1588516  22.1769924  67.9490051
   7.4002757   4.2297535  33.3684273   7.5357399   3.3756762  32.9580231
   6.6666780   4.6129098  32.8875351  20.9534225   1.9254227  53.4777565
  20.2995014   2.3782098  52.9452133  21.5842075   2.6060684  53.7124138
  11.3787956  59.0886307  29.0976448  11.5435810  58.1836700  28.8328285
  10.8927679  59.4677582  28.3653412  67.4052353  63.1277351  61.2239647
  66.6574249  62.6766167  61.6157646  67.5132751  63.9173279  61.7541618
  33.8071442  13.1431150  24.2420845  34.3419037  12.4926500  24.6972351
  32.9047661  12.8887901  24.4351234  28.9097481   7.4931574  87.6598587
  28.5092678   7.9900045  88.3732910  28.9121647   6.5877395  87.9704132
  45.6391907  52.6697311  21.6387062  45.6400757  51.9148827  21.0501175
  46.1880684  53.3180771  21.1975555  54.3517189  68.3761368  55.6226501
  54.4167709  68.4734573  56.5726662  55.1299629  67.8747482  55.3793983
  72.1681595  37.8687248  78.6642609  72.0284119  37.0330887  78.2188187
  71.7605667  38.5172386  78.0902176  78.7602921  37.1923103  64.6088562
  79.1137085  37.4305115  65.4659348  79.4507523  36.6687851  64.2021484
  80.2397232   7.6971288  70.4605408  79.4628983   8.1557255  70.1404419
  80.2647018   6.8856220  69.9535294  55.7172203  53.6368637  79.0021591
  56.1653824  52.9059486  79.4277649  56.1856880  53.7567520  78.1760864
  32.6985550  23.1865253  20.7477951  32.0231895  22.7731667  21.2856140
  32.2432709  23.4405518  19.9450378  69.1180649   8.8080692  62.0480652
  69.4742355   8.5589447  61.1952400  68.2455368   8.4149342  62.0673332
  17.1927223  63.2079811  29.3899288  18.1383171  63.3383064  29.4613304
  17.0085945  63.2971077  28.4548435  65.4370117   1.0048746  61.1511154
  65.0168610   1.7621293  60.7433472  65.3355789   0.3008963  60.5105247
  38.3116035   5.9082541  36.4181747  38.4068451   6.8567805  36.3318138
  38.1529694   5.7674675  37.3515816  50.8405495  49.0229073  61.4731979
  50.8303185  48.1979637  60.9878159  49.9277458  49.1644745  61.7241631
  57.4620018  23.8424377  12.8866262  57.1653214  23.1683483  13.4980326
  58.2276459  23.4582081  12.4595537   3.3283558  53.0126381  41.0913849
   2.8839293  53.2299881  40.2719498   2.9084888  52.2038651  41.3843613
  80.0765457   4.7750106  49.8292465  79.1959763   4.9795113  49.5145950
  80.3812790   5.5875592  50.2331429  16.2924366  68.4536209  44.4555626
  15.5131359  68.0103302  44.7908478  15.9681931  69.2919998  44.1265945
  48.1426010  43.9481621  69.3200836  47.4027061  43.7985802  69.9086456
  47.9023514  44.7332993  68.8280792  29.4141464  23.0630932  22.5319748
  28.9400768  23.5082855  23.2343254  28.7497234  22.5307255  22.0945320
  57.0870399  43.4057922   8.8304701  56.1655884  43.6021309   8.6613121
  57.0860214  42.5000191   9.1399994  23.8199425  62.9346886   8.3712120
  23.1536236  62.8460350   7.6897511  23.3295727  63.1833000   9.1547689
  75.9823914  26.5353642  86.6829224  75.3766403  26.0730381  87.2621918
  75.9116669  26.0756779  85.8463058  69.4696960  65.4717789   1.6861534
  69.2019730  66.1038513   1.0190362  70.3657608  65.2355423   1.4463806
  18.2042141  25.1913242  71.5638428  18.7130489  24.4321804  71.2792053
  18.8526058  25.8869305  71.6731720  14.8095636  64.7512589  61.0188866
  14.8522282  63.8187180  61.2305107  14.4783058  65.1630554  61.8169594
  55.6062393  50.2409935  26.8143063  55.5548782  51.1224289  27.1839886
  55.3475418  50.3496437  25.8991547  82.9972382   0.2304590  55.4439583
  82.8351822  -0.3810537  56.1623039  82.5894699   1.0482194  55.7289543
  20.9211617  63.7619362   3.1966965  20.2033291  63.9957161   3.7851632
  20.6115170  62.9796791   2.7401607  23.7039013  26.1897755  26.0719852
  23.9192772  26.6151237  25.2419701  24.0417786  25.2989922  25.9793816
  65.6504669  70.1065979  10.5672750  65.5928345  70.7122040   9.8282537
  66.4150238  69.5642700  10.3734465  19.2270718  52.5693855  22.7437382
  18.4399109  52.5353813  22.2001820  19.9279785  52.8046150  22.1357670
  63.9281502  10.2623129   4.7961297  63.5589371  11.1132822   5.0322776
  63.2987709   9.6257601   5.1351213  73.8130875  26.4919834  81.7617416
  74.7086411  26.2053394  81.5827103  73.8773041  27.4438572  81.8394928
   2.9800537  41.7869682   3.9204006   2.2595909  42.4080963   3.8137958
   2.5584610  40.9791641   4.2135634  83.0756226  60.8594170  69.8778000
  82.2699356  61.2267952  70.2413025  83.6095276  61.6230659  69.6586838
  48.7072639  62.5911331  32.5378571  48.7491341  61.6930161  32.2094307
  49.5681000  62.9593277  32.3387909  23.2872906  49.2367058  81.9811249
  23.2304115  48.6443253  81.2314072  22.3909187  49.5468140  82.1099014
  84.7187729  38.0264587  21.1704235  84.5521317  37.1600685  21.5416775
  85.6515350  38.0196304  20.9556408  42.9786415  28.2670002  83.8556747
  43.5827446  28.9555588  84.1334839  42.1133270  28.5939026  84.1018372
  74.6932449  53.6240845  81.3050232  74.3672562  52.9879646  80.6683884
  75.6439819  53.6071129  81.1952667  27.7566433  17.1498623  51.0914307
  27.4223404  17.8278866  50.5042725  27.4001369  17.3791656  51.9496613
   7.9372892  53.6392059  63.6574402   8.1653013  53.4404793  62.7492828
   7.6792440  54.5608597  63.6434174  57.3998375  53.2896538  34.9671822
  58.0903816  53.8587227  35.3070946  57.3412933  53.5127258  34.0381813
  49.2355766  43.0387383  23.6910057  49.4145241  42.3571396  24.3387947
  50.0290337  43.5740509  23.6811581  65.0928955  28.9331112   9.4972963
  64.8397903  28.4583664   8.7055969  65.4171143  28.2549267  10.0899010
  80.1623535  41.8977966  12.3889322  81.0643311  42.1568565  12.5775023
  79.7068863  42.7223549  12.2189875  63.2454491  61.1359711  80.2909775
  62.5169449  60.5587120  80.5196381  63.1392517  61.8945389  80.8650208
  15.8722916  55.6841774  48.3942795  16.0667152  54.8938293  48.8980522
  16.2918472  56.3905411  48.8854599  79.3617554  15.3289719  29.3669777
  78.8434448  16.0960808  29.6101532  78.8605270  14.5853481  29.7016869
   6.9503813  14.9416971  13.2770271   7.9009166  14.9905376  13.1753922
   6.7391987  14.0221157  13.1157694  31.5226688  62.1343422   6.3572907
  31.6826782  63.0380402   6.0853295  30.8376503  61.8237686   5.7652416
  35.8741035  64.5437088  21.4347973  36.7767410  64.8427963  21.5444393
  35.3672981  65.3479004  21.3223228   7.4254689  59.5135803  70.5699997
   6.9658780  59.5847321  69.7333755   7.2146397  60.3266640  71.0289993
  33.5317535   5.1702328  12.5067530  32.8296814   5.7907066  12.3109474
  33.1108131   4.3115315  12.4658413  38.6593857  56.3999290  70.4720154
  37.8022804  56.3735847  70.8973465  38.4639244  56.5623055  69.5491638
  54.8216209  31.6118488  85.1186295  55.2764549  31.4688416  84.2886276
  54.1189919  30.9618225  85.1218109  31.7285614  54.7507019  45.1169510
  30.8333359  54.4685898  44.9292946  32.0863647  54.9955902  44.2635841
  61.0416069  66.4531326   8.7678795  60.2830734  67.0346832   8.7163639
  61.7953796  67.0319824   8.6538916  39.7443542  63.2541199  25.6965446
  40.0452728  64.1344452  25.4713440  40.4665833  62.6810112  25.4393196
   8.9214268   0.3071056  75.1511612   8.4811153   0.6847462  74.3897552
   8.2254753   0.1937236  75.7984848  20.2461395  47.3655319  75.8520813
  19.7637844  46.5413628  75.7863846  20.6653385  47.3298225  76.7118683
  28.3505802  34.1260185   1.9471946  28.8140907  33.3227615   2.1841915
  27.9320889  33.9231110   1.1105804  85.8742676  18.6472683  23.9071789
  85.4077835  18.3627033  24.6930847  85.2074814  18.6493416  23.2204342
  21.8090057  14.4133835   8.0913658  21.9097214  15.3595467   7.9871392
  22.6506481  14.1199255   8.4402952  62.9797707  21.2576694  65.2850189
  63.5408173  21.0083351  66.0193863  62.3808517  20.5184937  65.1794357
  63.4402199  52.6766548  19.3083458  62.5425491  52.7170563  19.6381779
  63.9098320  53.3432274  19.8097172  35.8441658  12.4965830  15.5820694
  35.3543663  12.0635777  14.8829031  36.1831703  13.2952757  15.1778431
  24.8889561  35.4865799  20.4938869  25.0205002  36.1076622  21.2102566
  23.9837799  35.1922684  20.5952301  72.6985321  68.3856964  64.6175156
  73.3980637  68.3196487  63.9674950  72.5684586  69.3267593  64.7346039
   0.4395699   5.6681237  57.9852982   1.2515330   6.1470089  58.1514816
   0.7019198   4.9400373  57.4220085  15.2346735  36.8334312  17.6218109
  15.0594902  35.9054489  17.4656334  15.4348059  36.8854141  18.5564098
  50.6772995  17.1225452  52.7702713  50.4277000  16.2910423  52.3671112
  50.4562378  17.7829933  52.1136360  58.1847382  31.7878399  40.2226486
  57.5905685  31.2418232  39.7078094  59.0553284  31.5806122  39.8829956
  14.3240461  54.4253654  24.6578407  13.7318192  53.7547798  24.9981575
  13.7458935  55.0743256  24.2568150  21.4875469   5.3561568  63.6245842
  21.5463390   4.5434484  63.1223106  20.8689327   5.1588492  64.3278732
  28.3979034  61.7739410  61.4283981  28.2151546  61.6486664  60.4971924
  27.8582687  61.1173973  61.8688240  82.2391052  25.5528526  14.6603680
  81.6599121  26.2260609  15.0175219  81.8827438  24.7291508  14.9931679
   9.2956362  42.3916702   0.5515586   9.8444967  42.0182533  -0.1380380
   9.7794018  42.2233696   1.3601857  52.9108162  18.0012722  31.3053513
  52.7309074  17.5127792  30.5020828  52.4907494  18.8504105  31.1684551
  45.2651749  11.7214289  25.1830502  44.3579674  11.4263029  25.2612095
  45.2729340  12.2659159  24.3958378  31.2225933  18.4132614   1.8009465
  31.1899796  17.4703159   1.6396353  30.5446930  18.7772465   1.2315623
   6.9261923  51.4028358  53.1611176   6.8199382  52.3446350  53.0271187
   6.6864228  51.2626877  54.0771408  62.6334076  22.4547501  71.1799088
  62.5721169  22.6053696  70.2366180  62.0339355  21.7271748  71.3457260
  49.8776207  60.1531906  10.0838547  50.0530281  60.6283264   9.2716293
  49.3054543  60.7357483  10.5833378  15.1651783  43.4965668  76.3380737
  15.6383047  44.2593231  76.0055237  14.4019022  43.8638191  76.7839050
   6.0845308   6.1534586  70.0023041   6.9596334   5.9387450  70.3252945
   5.5370703   6.1708140  70.7873001  27.0188122  54.8576851   9.0892096
  27.8091583  54.9545937   8.5579920  27.3307972  54.4970322   9.9191647
  35.5671196   2.8832953  88.4668808  35.1726532   2.6992276  89.3193741
  35.1293106   3.6800821  88.1674118  31.6429920  23.8964157  46.3744698
  31.3315964  24.6329422  46.9005814  30.8566914  23.3809032  46.1949997
   6.5646763  44.5304298  79.5655670   7.4175725  44.3158607  79.9434052
   6.3747168  43.8022385  78.9740601  13.6670017   6.0553622  64.7192612
  14.3536053   5.3885393  64.7316742  12.8507128   5.5599074  64.7858124
  37.2229843  15.9804955  40.2612190  36.9175758  16.6490421  40.8744087
  37.2761650  15.1812391  40.7852364  73.4399719  36.4731064  31.7063179
  72.7086029  37.0867882  31.6376095  73.4830399  36.2550926  32.6373634
  23.8473434   6.5014839  28.6060562  23.7498055   5.6006479  28.9146233
  24.7857857   6.6775208  28.6736374  33.2646065  10.5620413  22.6590328
  32.5801735  11.1690693  22.3774261  33.6603279  10.2525625  21.8442593
  48.0145454  24.1576996  80.7283630  48.7708092  24.5742817  81.1415863
  48.3643150  23.7664509  79.9278488  21.8998909  12.3470592  81.6264954
  21.8595734  13.2905025  81.7830887  22.5078087  12.0199757  82.2895813
  84.3097458  64.8462448  72.3680801  85.0970612  64.3369522  72.5604095
  84.5249252  65.7354050  72.6497192  65.4182358  38.0004501  15.8219948
  65.9255600  38.2515373  15.0501108  65.7716904  37.1472778  16.0737877
  86.4807281  28.2034550  29.9614124  87.3662872  27.8533840  29.8641186
  86.5303345  28.7698212  30.7314777  10.5180082  26.1089039  15.1803942
  10.9763250  25.4264088  15.6706781  10.1946640  25.6646385  14.3966150
  73.4832687  43.3820343  38.3099594  73.1716003  43.0740967  39.1609993
  72.6870499  43.5020409  37.7924004  66.1990356  33.6227074  44.1131897
  65.9708557  34.1535187  44.8763428  65.6589355  32.8369827  44.1977997
  43.1468925  14.8571968  19.2929840  42.4276581  14.6866970  18.6848164
  42.8792534  14.4294453  20.1063900  38.8960686  68.5871201  87.6847229
  38.7667580  68.3891144  86.7571945  38.8831406  69.5431824  87.7296066
  53.2932777  25.7294846  10.9558849  54.1127968  25.2368336  10.9121122
  52.6100922  25.0681572  10.8457403   0.9859204  24.8650875  61.1563416
   0.4052128  24.2332611  61.5803757   1.4484395  25.2882900  61.8796692
   9.3118229  14.0833206   4.7482228   9.5485096  13.3483334   5.3139133
   8.3817453  14.2289782   4.9213428  73.5160675  29.4317608  82.0972290
  72.7472763  29.7370739  82.5788727  73.4557495  29.8689384  81.2478333
  36.9727325  60.9656601  30.7486229  37.2727776  60.6180611  29.9087543
  36.4826698  60.2451248  31.1447277  34.9477272  11.5772877  12.7736559
  34.8263588  10.9638929  12.0489149  34.2890739  12.2559433  12.6259012
  65.3714447  12.6430550  52.1823235  65.1616364  11.7574711  52.4788933
  66.3237991  12.7018003  52.2584457  45.9793968  17.6169853  11.0557022
  46.8937950  17.3340893  11.0469894  46.0244904  18.5731220  11.0567122
   2.0471859  26.9343014  66.3365250   2.6563079  26.7993164  67.0624619
   1.4968234  27.6649799  66.6183777  10.2540464  10.4759970  62.6816368
  10.7405214   9.9670982  62.0331039   9.3348999  10.2819080  62.4979782
  74.9968033  24.6125870  74.2312927  74.8262863  25.3218365  74.8510666
  75.2452774  25.0572548  73.4208832   5.7436647   7.7053337  58.7493896
   5.8230343   7.2276845  59.5750923   5.4773364   8.5876875  59.0077553
  32.0698853  56.5337753  26.2320900  31.7188015  55.6680374  26.0236053
  31.5975494  56.8001900  27.0208588  55.5367088  50.6673851  51.7488441
  55.9030228  51.4859848  52.0834198  55.0572090  50.9238586  50.9611015
  68.7644348  65.2415466  43.6237144  68.7261353  64.9595947  42.7097855
  68.2727966  64.5733948  44.1013031  84.5984879  39.3021851  47.0180473
  85.0773849  38.4900131  47.1831589  85.2803116  39.9512939  46.8448257
   2.8493853  33.5636368   6.5493293   2.7731707  33.3397217   5.6218138
   3.5100770  34.2557755   6.5751238  80.4799957  37.1181984  54.3983650
  80.1541367  37.5317574  53.5989799  79.8572693  37.3822861  55.0756378
  32.0412598  58.6138649   5.6355090  31.6472988  58.7073479   4.7681651
  31.3025150  58.6707687   6.2415190  14.2104645  51.9473076  56.2672386
  13.8425856  51.1257248  56.5926514  15.0608835  52.0173531  56.7009583
  21.0880680  64.2667313  70.9131317  21.4932022  63.4237137  71.1166458
  20.8707867  64.6404419  71.7671585  72.4621506  42.0420837  68.5595245
  73.1206131  42.1131554  67.8684311  71.9335175  42.8349304  68.4691238
  29.4742336   3.7666731  82.4616165  29.5779018   3.1649497  81.7244568
  29.9484310   3.3487504  83.1804428  35.6059952  62.3621864  62.4871635
  35.4707184  62.2530212  61.5458794  34.8233604  62.8227692  62.7897835
   1.4244559   4.6403236  67.0954514   1.2955428   5.5438881  67.3838654
   2.1830513   4.3358459  67.5935059  50.0201683  66.5813828  43.0298691
  50.7546921  67.1948318  43.0102386  50.3859978  65.7591858  42.7036896
  40.6791267   9.1510878  14.1197910  40.5568199   9.4159927  13.2081451
  40.2799072   8.2827129  14.1724997  62.9389496  50.3856239  83.5647202
  63.8932152  50.3643875  83.4929199  62.7080154  49.5358353  83.9399033
  60.3614578  41.1964226  15.0605917  60.3097649  41.0587273  16.0064240
  59.4733696  41.0288162  14.7452612  82.3265915  56.5261879  74.3611450
  81.9378738  57.0013390  73.6267319  82.9230728  55.8992577  73.9519882
  33.3675346  30.8871574  86.4086838  32.5550766  31.2294865  86.0359116
  33.9016075  30.6570644  85.6483841  58.9868393   7.1252470  21.4409790
  58.4147072   6.7469554  22.1086559  58.4336090   7.7568893  20.9814205
  30.7300777  67.0410233  79.4647598  31.3897343  66.5237961  79.0026398
  30.2513981  67.4940109  78.7705688  86.3922424  17.9703751  73.8009796
  85.9688034  18.8216286  73.9118729  87.1861191  18.1610374  73.3013382
   8.6629400  64.4729385   1.7952377   9.2286196  64.8113098   2.4893153
   8.6606245  65.1620331   1.1308749   3.3065510  62.4808617  26.7913494
   3.0469661  63.4021721  26.7855320   2.8133297  62.0885010  26.0709209
  49.7915154  19.6910191  14.9765072  50.4151382  19.8092499  14.2600250
  50.3018761  19.8596840  15.7685385  44.9438362  57.3439980  40.8380394
  44.8130493  57.5186577  39.9060402  44.0603752  57.2188377  41.1845436
  79.6466064   6.9034233  24.0572052  79.7535629   6.4174070  23.2395382
  78.9999771   7.5786014  23.8516827  41.2664108  60.0694847  10.3015509
  41.1315804  60.9317474   9.9084110  41.6466255  59.5425835   9.5986691
   9.1125650  38.5150337  45.2919540   8.7907028  37.6317596  45.4721413
   8.3228445  39.0264015  45.1156693   1.0296851  58.8339386   3.0877368
   1.2231485  58.8772392   2.1512921   0.7402794  59.7179337   3.3136432
  61.0561218  40.5614243  20.2261295  60.4189529  40.1846085  20.8329735
  60.6409378  40.4879761  19.3667946  38.2969208  61.4817657   4.2985268
  37.8695946  62.3258896   4.4437127  39.1980362  61.6158371   4.5922112
  56.4321632   7.6504698  76.3558578  56.1511078   8.3924065  75.8203506
  56.3277550   6.8895755  75.7845688  71.8036118  25.3513069  80.2835846
  71.2435303  24.7627296  80.7896652  72.3665695  25.7667866  80.9367981
  55.4014587   8.2999458  46.0998802  55.2033463   9.1793318  46.4218521
  54.7836838   8.1630249  45.3816643  29.7735443  66.2878113  86.1925735
  29.7333908  66.5893555  85.2850037  29.6740856  65.3376007  86.1338806
  18.7301102  20.6250286  50.6728020  18.8697777  21.0051098  51.5401344
  18.5690823  19.6966267  50.8412476   7.3975992  22.9902344  39.5395432
   7.5661483  22.3990898  38.8058052   8.1454029  22.8658752  40.1239700
  84.7502975  66.7820282  82.5765152  85.1897659  67.6118469  82.3907928
  84.1770096  66.6407394  81.8231125   9.0374613   1.1055044   8.4815474
   9.7838173   1.4500976   7.9912000   8.3369322   1.0347520   7.8331003
  38.5980110  39.9284286  37.2395821  38.3786240  39.9793892  38.1699066
  38.9891014  40.7787056  37.0387993   2.6038678  57.5842552  49.3135376
   3.1996334  58.3316612  49.2617722   3.0858181  56.9282188  49.8171005
  42.9351387  53.2976913  85.0774841  43.0644226  53.7600670  84.2494049
  42.4110565  53.8980331  85.6077347  53.5421295  12.2416210  66.8421936
  52.9629593  11.5642042  67.1913300  53.8263321  11.9000978  65.9943542
  21.0930023  37.7407227   9.4068890  20.5633068  37.5174141  10.1722574
  21.6389313  38.4710007   9.6982403  30.9660034   8.1732798  28.8739471
  31.5537510   7.9595251  29.5985794  30.2222099   8.6095047  29.2895336
  14.2622957  60.4141426   4.6080689  14.6296883  60.6469269   3.7553868
  14.6068487  59.5391159   4.7865124  59.2385483  27.0308075  35.0205231
  58.7345276  27.4813786  35.6981506  60.1293106  26.9943180  35.3690071
  42.7783279  21.0453281  16.5640945  42.3772697  20.1762066  16.5677090
  42.7208290  21.3318539  15.6525965  14.0839319   6.4195094  10.0806026
  13.8930140   7.3318677   9.8629236  14.9142256   6.4552855  10.5555391
  12.3096409  39.8805275  69.7568359  13.2310009  39.6966324  69.5737762
  12.2950153  40.1357040  70.6792755  84.6156387  30.8095722  32.9957237
  84.5857315  31.7659416  32.9693260  83.7837677  30.5332260  32.6112022
  35.2217064   1.0596778  69.2666550  35.3833504   0.1865247  69.6240158
  34.3324890   1.2733078  69.5493088  63.9502678  61.3893814  47.9567757
  64.4607391  61.5387611  48.7526016  63.1109695  61.0524597  48.2702904
  84.2605286  68.6803741  58.9084549  84.5075150  69.1042252  59.7303925
  84.8872223  67.9634552  58.8109016  26.9167805  55.8706932  12.8757915
  27.3355961  55.1687050  13.3738203  27.6421947  56.3294678  12.4520769
   5.0391703   5.5681691  74.6531372   5.9404898   5.3644614  74.9028549
   4.7794065   6.2724004  75.2471237  51.3496704  34.2324638  11.2010126
  50.5230865  34.3797455  11.6606874  51.2674103  33.3511200  10.8367319
  15.7950830  11.8142300  39.4509087  15.6608629  10.8931894  39.2275238
  15.0141563  12.0562048  39.9487381  83.8538055  63.0739174  11.1949234
  83.3837433  63.4791107  10.4661636  83.1654663  62.7984695  11.8003550
  36.4598885  70.0040131  49.1268539  36.6090469  69.5392380  49.9502373
  35.5275764  69.8813248  48.9480515  60.0909386  12.3972406  41.2482185
  60.1862831  13.2890291  40.9137688  59.2237549  12.1215029  40.9512444
  73.6474838   4.9422450   6.9355154  72.7713928   5.3278527   6.9356251
  73.9324875   4.9954939   6.0232835   7.3442879  28.6472778  73.9763412
   7.0302949  29.4991837  73.6731949   7.7527328  28.8298264  74.8225555
  50.0138474  64.9549942   1.1565969  50.8045006  65.4823303   1.2706721
  49.6343040  64.8995895   2.0335863  63.8926086  16.2698956   0.3806784
  64.7340775  16.7135468   0.2741722  63.6677208  16.4008160   1.3018281
   3.4786220  59.2557182  60.3378792   3.4064507  60.0559807  60.8580780
   2.6947610  59.2556496  59.7885208  57.7682877  24.1724567  23.7276154
  57.8045006  24.4958534  24.6278019  58.0860596  24.9034061  23.1975536
  33.6269951   2.1126566  60.8992043  34.1364975   2.2109740  60.0948563
  34.2815857   1.9553561  61.5796432  45.8456383  19.5436974  72.7554016
  46.7855072  19.5102406  72.9336243  45.7857132  19.7743912  71.8283539
  63.9349174  18.5664120  46.5496178  63.5267754  18.4749584  47.4105988
  64.2951965  19.4532185  46.5483208  68.2504196  69.6687546  15.6266375
  68.2697296  69.2456207  14.7682571  68.0028381  70.5746765  15.4415855
  60.8740387  57.2012062  22.9506321  60.7033501  56.5471039  22.2729549
  61.1220551  56.6893501  23.7205181  69.7332764  58.9587555  10.8804913
  69.1491394  58.8975487  11.6363163  69.2169495  59.4133911  10.2149458
  18.4695320  48.6573830  83.0989304  17.9661179  48.3643532  82.3393631
  17.8091908  48.9660797  83.7193222   7.9371920   8.8027897  65.7930679
   7.4826174   8.7938595  66.6353912   8.2001724   9.7152224  65.6724854
  34.3652039  64.9244080  41.5081902  34.3658600  64.7129822  40.5746307
  33.8011246  65.6944962  41.5789680  75.1105499   3.9108028  31.2894268
  74.3798828   3.7884526  31.8955479  75.7894897   4.3339062  31.8150349
  55.4502144  63.7759743  52.2576256  55.4862289  63.8672791  53.2097778
  54.7192307  64.3334885  51.9910316  27.7509155  68.4059830  73.9312820
  27.5111141  68.9668198  74.6689682  27.1878510  68.6988983  73.2147675
  62.6170769  67.1941299  19.9651604  62.2459221  66.8297424  19.1616077
  62.1582794  68.0255737  20.0853462  44.6276093  26.5646133  81.7190018
  44.3665581  26.9599953  82.5507202  44.8515434  25.6613445  81.9430313
  25.3545341  21.8766422  12.9805260  26.1813946  21.4081612  13.0947886
  25.0655041  21.6408749  12.0989885  85.2791214   6.9995131  33.2408447
  85.7069473   6.1673164  33.4424477  84.4599915   6.9736981  33.7354050
   9.5566444   6.9573808  66.4237442  10.3307619   7.4850101  66.2273178
   8.8213129   7.4869003  66.1153107  16.9607983  62.0693359  18.4348488
  17.8485146  62.2015915  18.1021309  17.0130291  61.2585831  18.9409904
  78.8369827  39.7491760  14.1649275  79.0023804  40.3482475  13.4369221
  78.2229004  40.2203598  14.7280626  85.8438644  42.0651398  58.6203499
  85.9368820  42.7803421  59.2496872  86.3961411  41.3655930  58.9694252
  31.9435596  55.5778542  67.0492172  31.9159317  54.6823845  66.7121658
  32.3919945  55.5029907  67.8915558  45.2439194  12.2992144  29.0898514
  44.7632675  13.1269865  29.0887394  44.5671043  11.6291294  28.9942341
  20.9484615  49.7929382   9.9722347  20.8626251  50.7168427  10.2073183
  20.6009579  49.3200912  10.7284670  46.0310936  62.4626656  32.1650581
  46.9180641  62.3991432  32.5192909  45.4643936  62.1964645  32.8890915
  78.0042191  42.1596909  21.9989738  78.3616562  41.3340912  22.3258591
  78.1478271  42.1251030  21.0532398  52.2119484  46.4654160  11.1242294
  52.3830681  46.8855133  10.2813349  51.7204971  45.6745644  10.9022923
  42.8043938  57.9183655  88.9926453  42.1926117  58.1999359  89.6728439
  42.4750366  58.3248863  88.1910858   9.2718496  14.9501877  85.8034363
   9.9689169  15.5826645  85.6293564   8.4978895  15.4873304  85.9728394
   3.1517072  41.0023232  41.5720291   2.4008198  41.1856499  41.0074158
   3.4394283  41.8634987  41.8750496  48.0666656  58.1150360  72.2323532
  47.9091034  57.3784561  72.8229980  49.0016823  58.0666389  72.0332718
  63.5921097  32.8605881  54.6922035  62.6576767  32.6822319  54.7982750
  64.0199280  32.0311890  54.9050484  16.6965103   1.3692939  26.6570492
  16.7732697   2.2214434  27.0862122  16.7543888   1.5659292  25.7220535
  47.4805717  60.8601875  23.5086594  46.7568588  60.2450523  23.3899879
  48.0914383  60.4027328  24.0864220  62.7119293  63.8955917  63.2265205
  62.9089851  63.0854301  63.6966743  62.6783104  63.6360703  62.3057861
  84.5008545  52.8962822  28.4719677  84.8155975  51.9975586  28.5692806
  84.8987274  53.3698196  29.2025108  81.1542664  12.9464006  65.2255402
  81.7164307  13.6959343  65.4215012  80.4818802  12.9667997  65.9065018
  79.1209030  61.6305771  78.4711761  78.4059677  62.2661018  78.4364166
  79.8077011  62.0698853  78.9727173   4.1137748  24.1888714  48.1625862
   3.9899099  24.8854866  47.5179024   4.4954209  23.4663067  47.6641083
  13.0682774  11.3949604  72.5213089  12.5080347  11.0691757  73.2257462
  13.3721848  12.2478113  72.8319855  41.6000671   4.1764812  65.8363495
  41.4683266   3.9241431  64.9224548  42.3613815   4.7563701  65.8173447
  13.1333618  29.7222652  71.9737854  13.4494791  28.8198681  71.9292831
  13.1304417  29.9292126  72.9083405  82.6493149  38.4062729  19.3161221
  83.3201828  38.4420357  19.9979496  82.1568146  37.6078415  19.5063419
  15.7537670  10.7492476  82.9001465  15.0204439  10.9915190  83.4656296
  16.4190769  11.4156265  83.0719986  58.9053383   0.9458668  80.6568832
  59.0998688   1.7563879  81.1274567  58.4768982   1.2338338  79.8508072
  42.3604240   2.7593293  53.6464958  43.0851364   2.9149010  53.0408401
  42.1640549   1.8274021  53.5506744   2.8527918   6.8504343  44.1798668
   1.9402035   6.6291561  44.3654747   2.9028587   6.8785677  43.2243919
  43.5373230  62.6553040  80.4073334  43.2856789  62.3569260  81.2813339
  44.1336708  63.3869209  80.5664902  12.8062506   6.7363973  49.2685242
  12.5431356   5.8858500  49.6200523  13.7271681   6.8228564  49.5148354
  55.9594040  65.0735016  57.4419556  56.7699356  65.5824280  57.4583969
  56.0379562  64.4739532  58.1839828   3.9692633   7.2981095  40.7251396
   3.1375554   7.0629849  41.1364899   4.4844451   6.4917150  40.7485199
  62.8595009  43.2367859   5.6626463  62.0630798  43.3415565   6.1831956
  63.0267067  42.2943153   5.6677408   5.3386316  19.7214260  68.0255356
   6.1527882  19.4710636  67.5888443   5.4912782  20.6191864  68.3204193
  22.5899467  70.9395828   7.9371824  22.9506302  71.6668243   7.4299750
  22.9204884  70.1551208   7.4994678  12.2624607  49.6000748  55.1783333
  12.8426008  49.5727768  55.9392014  11.5877008  48.9482193  55.3681183
  81.3371429  32.4311028  39.0552673  80.4914551  32.7073059  39.4084778
  81.7201080  31.8903160  39.7460060  21.4977875  13.5149002  77.1080322
  20.8069668  13.1979437  77.6898727  22.2723675  13.5761786  77.6670532
   9.5032606  63.7533531  28.1326427  10.1325998  63.1453667  28.5206089
   8.6493893  63.3566246  28.3051033  23.8935032  64.9685516  15.8700943
  23.0847607  64.6429367  16.2652397  23.9806652  65.8613739  16.2040195
  85.4128876  60.5831871  42.2824211  86.0138397  60.0195770  41.7951546
  85.4066696  60.2182961  43.1673203  27.2328720   4.9100032  70.0318909
  26.8854847   5.2906547  70.8385239  27.9742279   4.3766975  70.3186111
  37.8512764  12.9522305  59.1807861  37.9650955  13.4883718  59.9655342
  38.0569191  13.5422907  58.4556808  40.2792282  31.6013489  23.0888386
  40.7956390  32.3298492  23.4335690  40.4092941  30.8950138  23.7216129
   3.9086924  64.0542526  30.9380074   3.5143366  63.5762825  31.6675682
   3.6201510  64.9586945  31.0603371  68.0444717  10.2368269   5.2732840
  68.3315659  10.0236149   6.1611738  67.2227554  10.7124300   5.3949833
   1.0358824  41.9227371  22.2847099   1.4237525  41.6373291  21.4574661
   0.8058087  42.8401337  22.1374645  50.6732521  65.2676620  21.8768349
  51.4314690  65.7686920  21.5763321  49.9182777  65.7533569  21.5446529
  71.3192978  37.3707237   5.7471809  71.3241959  36.4136124   5.7592106
  70.8526535  37.5977631   4.9428620  36.4914322  69.9844818  52.7813530
  36.8676872  70.7745438  53.1692467  35.7878304  70.3061218  52.2176819
  53.7531891   3.0202703  73.8697205  54.5717163   3.5087364  73.9571686
  53.3996811   3.2947788  73.0236053  70.7306595  49.9295425   8.0807304
  70.7394409  49.5730743   8.9690361  70.2656021  49.2720375   7.5633903
  69.9103088  28.4340286  26.4378338  69.4711227  27.6527901  26.1016521
  70.5847473  28.0950546  27.0264378  42.6442528   6.5127916  69.4769897
  41.7443314   6.1875143  69.5008163  42.7578964   6.8377714  68.5838470
  81.7942886  68.7520599  80.6648941  81.7729187  69.3144379  79.8906174
  82.3318024  68.0045166  80.4031906  80.7772064  24.6859779  85.3270111
  80.2620621  25.0850582  86.0281448  80.9775925  23.8066597  85.6477585
  85.4908600  50.6097336  29.4578075  85.8221970  50.4280014  30.3372498
  84.6409683  50.1704788  29.4265537  19.9903774  61.9731827  87.6442719
  19.2955780  61.9534721  86.9861755  19.8812237  62.8170929  88.0826035
  74.6489029  13.0401773  38.3638802  74.3811493  13.8146353  37.8691559
  74.8466797  13.3719864  39.2396774  37.5681381   6.7543001  43.5320625
  36.9676361   7.3344693  43.0640526  37.9525070   7.3063254  44.2130585
  83.8425217  59.7775078  49.3430328  83.2381668  59.0665207  49.5562973
  84.6884460  59.3454552  49.2248344   1.8850224  40.9035225  17.2795944
   0.9985268  40.5433235  17.2548332   2.1294534  40.8748436  18.2046146
  85.3246613  22.9798355  45.4792747  85.8938828  23.6432457  45.0892677
  84.4904404  23.4293785  45.6142273   7.4068751  41.6276894  73.7062302
   6.6971884  41.1259041  73.3052521   7.0016446  42.0544395  74.4611511
  70.4714050  10.4200554  36.3502274  71.3714447  10.4894276  36.6685791
  70.2594681  11.2995901  36.0376053  41.0137482  37.7824631   6.8229151
  40.1904106  38.2572403   6.9366360  41.5011063  37.9516106   7.6292052
  18.1321335   5.2178631  42.5204239  17.7400131   5.6528950  41.7633133
  18.5140133   5.9294257  43.0343094  50.7800636  57.0370941  39.0130157
  50.9706001  56.0994110  39.0390053  50.1710358  57.1779289  39.7379227
  84.6862946  51.9870110  47.1154099  84.3839874  51.3399162  47.7526741
  85.4096603  51.5555229  46.6606636  63.9531097   5.1070995  30.5095558
  64.7602768   5.6215987  30.5075722  64.2480087   4.1986070  30.4470482
  72.7879639  38.7966080   9.0967121  73.4252701  38.1982422   9.4866276
  71.9848709  38.2802086   9.0288963  84.8808594  48.8125610  25.0586700
  84.7593842  49.2222023  24.2021236  83.9995651  48.7668419  25.4294415
  67.6393433   4.5007157  76.6679993  67.8018341   5.1556320  75.9890900
  66.6902771   4.5144186  76.7917557  14.4686012  29.3711071  64.4518585
  15.0679827  29.5881062  65.1659241  14.1266699  28.5067863  64.6804733
  52.0733910  14.9348793  41.2518311  52.6755943  14.2936583  40.8744431
  51.2813377  14.8619661  40.7193184  68.2035980  23.2294598   4.2345266
  68.5617065  22.7068348   4.9520588  67.8676682  22.5840473   3.6125758
   8.6579399   7.5196533  73.1218567   8.0393972   7.6487970  73.8408508
   8.5930862   6.5874028  72.9146500  82.7334747  62.9795837  64.9928818
  82.0957565  62.5755692  64.4043884  82.9108505  62.3078957  65.6513672
  34.0101700  15.9227800  37.6388664  34.1534920  16.6772232  37.0674591
  33.6149216  15.2626839  37.0694046  11.7931204   2.3526683  20.3798161
  12.3597107   2.7376642  19.7112465  12.0382051   1.4275492  20.3976994
  35.0309067  30.7088757  28.8918991  35.4768105  30.3291492  28.1347923
  34.4309883  31.3541279  28.5177593  74.8111191  29.1142120  65.0814972
  74.5926666  28.9302483  64.1679001  74.8535385  28.2523785  65.4958420
  54.8537254  48.2123413  50.7024994  54.8294334  49.1218033  51.0000191
  53.9343643  47.9489975  50.6618538  85.3159637  52.6090317  21.5624046
  85.7479630  53.2679558  21.0188751  84.4891739  52.4327927  21.1134148
  67.3847275  44.7652359  13.8415747  68.0695343  44.3358612  13.3288240
  66.5944290  44.6744995  13.3091936  15.4413223  59.2032928  71.9648056
  16.0082321  59.1935425  71.1936035  15.9171782  58.6907959  72.6183624
  33.9179764  42.3182030   3.7813036  34.3911972  41.9743500   3.0236361
  34.5781708  42.3707123   4.4724021   6.5362458   1.1658102   3.6807804
   5.7170844   1.4887683   3.3054080   6.4585743   0.2125997   3.6409233
  15.4680033  67.3531494   6.8613458  16.1006241  67.7150650   6.2408309
  15.9488344  67.2947235   7.6869483  32.5135612  51.2823372  10.1729221
  32.2554703  52.2002640  10.0890484  33.2484283  51.2952309  10.7861395
  14.0574141   8.2624340  81.4476929  14.4746037   9.1116962  81.5923920
  13.5618162   8.3741627  80.6364365  22.7648754  64.4281235  23.8248787
  22.7047234  65.1661835  23.2183495  21.9776039  63.9116745  23.6525002
  85.8007355  53.2440643  65.5033951  86.6240311  53.0695534  65.9594269
  85.4794235  52.3788490  65.2496490  20.1744804  62.8098717  68.6238174
  20.1952744  63.3467598  69.4159927  20.4154263  61.9329376  68.9224167
  21.3966694  15.4825516  39.6107254  20.8215694  15.1457911  40.2978096
  20.8375149  15.5370312  38.8357353  80.5744171  65.4030075  57.8934364
  81.1603012  64.7555008  57.5013771  80.1111984  64.9224930  58.5795631
  21.4105663   6.6373715  69.7189560  20.8046207   6.0353465  69.2869492
  20.9040089   7.4402900  69.8412399  25.8947258  68.0578384  24.0537701
  25.9945774  67.4318695  23.3365383  25.0651207  68.4995422  23.8724213
  22.3853893  68.0883408  70.1664429  21.8679657  68.0866623  70.9717407
  21.7576618  67.8688354  69.4779663  20.8273888   2.0674198  76.5087738
  21.4338512   2.1425710  75.7720337  21.3341312   2.3586862  77.2667999
  29.2810879   2.6734009  39.8638954  30.1016750   2.2657294  39.5869942
  29.0729427   2.2508223  40.6971626  41.1028748  50.9802322  20.9909973
  40.2264557  51.2790680  20.7484818  41.6363144  51.7750053  20.9879208
   8.6457558  31.0032864  41.9087257   9.5357790  31.1688652  42.2196503
   8.7541981  30.7643967  40.9881783  24.8919773  59.2280540  54.7580833
  24.5769711  58.3913078  54.4162369  24.7275963  59.8525772  54.0515594
  61.3890610  13.1713228  31.7699261  61.3556137  14.0983553  32.0059814
  61.2505684  13.1601782  30.8228626  82.7321167  51.9493904  37.5202675
  82.4090500  51.2874641  36.9089470  82.3217468  52.7640266  37.2300873
  12.6240320  14.2385187  49.8332405  12.3757248  14.5235844  48.9538612
  11.9830408  14.6544285  50.4097672  15.1862421   6.1591687  16.4944210
  15.1653318   5.4222107  15.8839388  15.6321688   5.8161101  17.2688179
   7.0375156  66.7273560  62.0744171   6.4614887  67.3709869  61.6619110
   6.9816942  65.9579849  61.5076866  39.6782722  60.7622757  68.3962021
  38.9251480  61.2348595  68.7507401  40.2317123  60.5880013  69.1574936
  74.4118042  12.5145226   3.7413957  74.2800522  11.7241392   3.2177870
  73.6212082  13.0337429   3.5944252  51.3207436  51.6392174  37.4643555
  51.2723694  51.1579590  38.2903595  51.9761620  52.3189583  37.6212234
  51.0347786  19.3606758   5.7127047  50.1906395  19.3714600   6.1638632
  51.5999298  18.8305206   6.2746410  61.0801392  51.1546783  67.2812424
  61.9379387  51.1431198  67.7058334  61.2335968  51.5908890  66.4431458
  14.9216366  63.9445992   0.2615090  14.2973099  64.6404114   0.4671751
  15.3159361  64.2140961  -0.5680279  70.3200607  64.7536163  77.6198044
  69.4529114  64.3917923  77.8024826  70.7761993  64.0562515  77.1487885
  36.2849007  12.0053329   3.4021025  36.9048996  11.2888765   3.2660177
  36.3851280  12.5591259   2.6278284  79.2160339  49.7207756  22.7875652
  78.2600250  49.7166023  22.8351898  79.4585266  48.7952042  22.7603340
  13.8661022   7.8107600  19.6172371  12.9413395   8.0522814  19.5651493
  14.3124619   8.4511127  19.0632114   2.1049368  54.5648460  30.3769703
   2.7152085  54.2459412  29.7120647   2.5268660  55.3462219  30.7342644
  69.3436356  68.7547760  58.6892509  69.2482986  67.8916931  58.2864761
  69.3060379  68.5852737  59.6305733   2.9873166  26.6724167   1.0917213
   2.9563920  25.8587265   0.5885471   2.1464987  27.0947762   0.9160230
  84.4812698  20.2507057  60.0857239  85.3518753  20.5575962  60.3388939
  83.9012375  20.5845871  60.7700615   4.6707010  40.3229485  23.6733379
   5.2636957  40.9171753  23.2134666   3.9326751  40.8744850  23.9328728
  28.5522881  17.3948879  25.5341625  29.0555248  18.0373230  26.0344238
  29.1829720  17.0251064  24.9163189  59.2772522  44.1549683  75.6070557
  58.6196556  44.3340302  76.2791672  59.3437271  44.9722633  75.1132507
  61.8597336  46.6876335  75.9300308  61.5506706  45.8646545  76.3087387
  61.0722427  47.2262001  75.8523483  55.3481445  12.7408924  42.4242897
  55.7053604  11.8969841  42.7007790  54.5877151  12.8759384  42.9897499
  50.6030807  37.5676041  22.8756676  50.9550209  37.6039696  23.7650757
  51.3677063  37.6792603  22.3107700  83.1870651  53.0094795  66.4464493
  83.8837509  52.7395706  67.0447845  83.6362610  53.5125008  65.7671661
  45.6935921  32.8489723   2.3832657  45.9694557  32.9710846   1.4748493
  46.3812599  33.2679214   2.9007835  26.6033497  71.5451584  16.7439461
  25.8700142  71.7771149  16.1741695  26.5387535  70.5952682  16.8427486
  61.0878868   6.2977247  30.8038368  61.7918396   5.7239962  30.5013218
  60.2970161   5.7628140  30.7358017  63.0485115  56.7616539   4.6577249
  62.6749191  56.4417725   3.8365438  62.8302536  57.6935081   4.6732121
  36.0891342  58.6478615  31.9520111  36.0701332  58.0788460  31.1825333
  35.1709557  58.7351761  32.2080574  85.9065094  25.5664902  64.8124619
  86.7616501  25.7749462  64.4362793  85.9852219  24.6556854  65.0961304
   1.3062997  23.2375393  78.1371994   1.2247697  24.1323452  77.8071899
   1.3966126  22.6994915  77.3507004  82.4443359  14.6137447  35.3467484
  81.8453064  14.4753389  34.6130981  82.1461639  15.4296503  35.7487755
  72.8103104  71.3704681  61.4568138  72.3842468  70.8729782  62.1548157
  72.2473373  71.2422867  60.6933594  72.4100800  64.9745865  51.1715889
  72.6183014  64.3426361  50.4834633  73.1166840  65.6187592  51.1269836
  16.1276798  49.7216949  73.4953766  16.0157642  50.3417091  72.7747650
  17.0294456  49.8544197  73.7876740  54.8681030  39.9687729  74.2577057
  54.4926262  39.4672890  73.5339890  54.7312584  40.8836060  74.0115738
  74.2113495  36.2805939   6.1293874  73.2675095  36.2868118   5.9701309
  74.4652863  35.3632584   6.0281930  71.5191345  41.1160545  32.8154640
  70.6514206  40.7272110  32.9254608  71.5336456  41.4161797  31.9066467
  77.6457138   2.0078192  10.1050386  77.9335861   2.4765201  10.8884182
  77.5689774   2.6865659   9.4344816  13.0341663  48.2559242  39.3406944
  13.4110689  47.8890152  38.5409737  13.0271196  49.2012177  39.1903496
  81.2677841  34.3399658  81.4939270  81.3964844  35.2876472  81.5335083
  81.0467682  34.0905838  82.3912506  86.5147095  68.2346497  69.3475113
  86.5918655  68.4326401  70.2808304  87.3193512  68.5811386  68.9618607
  73.0505142  44.8659401  62.4890327  73.2530060  44.2731514  61.7652702
  72.1222076  44.7165947  62.6683960   1.4511788  43.4176254  30.9840088
   1.3817290  43.8103218  30.1138401   2.2400177  43.8077164  31.3605633
  28.0449791  14.7547541  16.0551968  28.8800526  14.3105869  16.2021732
  28.2012997  15.6570358  16.3339138  83.5043411  17.0984859  52.4040604
  83.8085175  17.8518524  51.8979454  83.3507385  16.4167500  51.7499390
  56.4041939   8.4733248  84.4146347  56.9958038   8.3925142  85.1627655
  56.5162239   9.3761911  84.1171188  50.8683014   0.5298600  10.0986862
  51.6534843   0.6416274  10.6346216  50.9767036   1.1547695   9.3817701
  42.3466835  68.3646164  23.4301872  43.1865387  68.0998917  23.8054123
  41.9652786  68.9491196  24.0852585  33.8811760  49.2432404  20.9632435
  34.8054657  49.3908920  20.7629471  33.8509941  49.1739006  21.9174519
  10.0636206  47.1643600  13.0439672   9.2097464  47.5120888  13.3012867
  10.2846756  47.6402664  12.2434196  83.7153549  45.7890167  50.4387245
  84.2762833  46.1314201  49.7427673  84.3071594  45.2847252  50.9970169
  56.7268028  71.6169281  33.0112801  55.9450073  72.1283112  32.8026733
  56.6359406  70.8179169  32.4920921  49.2481842  58.4548607  12.4398413
  49.9049263  58.1389389  11.8192673  49.6824646  59.1700172  12.9047956
  26.9391422  19.0060616  85.6672440  26.9225826  18.4353123  84.8990021
  26.5911160  19.8406048  85.3531647  51.9667892  62.1514053  41.7772026
  51.4962502  61.5655594  42.3701744  52.0000954  61.6758499  40.9471588
  11.4770346  52.5402603  28.7111549  11.3068018  51.6065407  28.8353348
  12.4072304  52.6429443  28.9122105  75.3514481  36.8485870   3.5581708
  74.8966599  36.7623177   4.3959985  75.1398087  37.7334557   3.2607653
  82.3451920  33.0697250   4.1332083  83.2178879  33.2699661   3.7947724
  82.4235840  33.1839218   5.0803328  68.8409424  22.4385643  53.0906258
  68.0950089  22.5776634  52.5071297  68.7072830  21.5594063  53.4448128
   1.1474358  40.7528305  56.7461472   0.9064145  40.6808434  57.6697044
   0.9094883  39.9055099  56.3697701   8.8510685  51.6930504   5.0377898
   8.5595207  52.1148071   5.8460913   9.8003197  51.8160286   5.0323753
  42.6195679  70.1175003  31.1479683  42.2689514  70.1047211  32.0385513
  42.9364090  69.2260513  31.0024910  12.5161419  61.9236450  77.1727448
  12.1122627  61.6169624  76.3609238  11.8344707  61.8139572  77.8357162
  71.3785706  39.1357193  30.0481205  72.2747574  39.0322762  29.7281361
  70.8374329  39.1042900  29.2591877  46.4857788  42.5714340  14.4918814
  47.3464088  42.1562080  14.5479145  46.2083626  42.4265022  13.5873003
  32.2265282  37.1482620   1.2552098  32.7256088  37.9649429   1.2686778
  32.5012360  36.7129745   0.4481844  28.1232204   5.8243980  83.9158020
  28.5865688   5.0681658  83.5557251  28.7283363   6.5560756  83.7944946
  77.2432938  59.3569489  17.4958057  77.8704987  58.8512764  16.9789505
  77.7848511  59.9515953  18.0147839  12.1571417  48.3478508  84.0100632
  11.6087332  48.2916298  84.7925720  11.7617273  47.7295952  83.3955460
  14.8578520  29.2028313  18.6307812  13.9684725  29.1318245  18.9774723
  14.9931793  30.1425762  18.5091343   9.0012760  70.9713211   2.8693221
   8.8897505  71.9166718   2.7688346   9.6794481  70.8799591   3.5386262
  54.4761581  13.3040571  14.7373934  55.3683434  13.4994926  14.4509554
  54.0849876  14.1615591  14.9044447  56.3604622  57.2867889  12.2600803
  56.2511635  58.0712700  11.7226143  57.2054138  57.4088516  12.6929703
  72.2507477   2.1106269  74.5560608  71.8095169   2.6068192  73.8666077
  71.6397095   1.4064440  74.7728348  44.6893387  15.6077080  70.3275070
  44.0680389  16.3258133  70.4480896  44.2238159  14.8328266  70.6422729
  16.9576550  58.4179764  66.5624771  17.7981186  58.6806145  66.1871490
  16.8405304  57.5118790  66.2769852  82.8370819  44.8047600  72.0476913
  82.3626785  43.9775810  71.9643555  83.1536789  44.9894409  71.1634445
  29.1341095  14.6689739  13.0245037  29.8043804  14.4984903  13.6862459
  28.5716610  15.3352594  13.4194040  11.2332268  18.4037743  49.1464424
  10.5808182  17.7103195  49.2450104  10.9244385  19.1062279  49.7186661
  45.5033569   8.6356277  18.8346386  45.5048981   8.8673458  19.7633667
  44.8169403   9.1824598  18.4524860  80.3446808  54.4146500  45.4451828
  79.8816376  53.5791283  45.3841667  81.1631851  54.2026634  45.8938942
  25.0962257  68.4472885  45.5339241  24.5310421  67.9592743  46.1327934
  24.4931717  68.9826584  45.0182381  66.4492264   4.7402678  83.7067184
  66.6688690   3.9535871  84.2058411  67.2771378   5.2146268  83.6307144
   9.7317085  18.4090195  52.1457253  10.1155825  19.2315502  51.8418922
  10.0388050  18.3202515  53.0479698  69.3414993  45.0273590  77.2329330
  68.9253540  44.7458076  78.0476608  70.1664734  45.4255867  77.5105362
  36.8989716  63.8486443  12.4662647  37.6328125  63.8273354  13.0804758
  36.6333275  62.9332275  12.3786268  56.1671524  35.7106247  19.4742622
  56.2605553  35.1771698  18.6850033  55.4296150  35.3190155  19.9421425
   1.8780702  62.2635536  83.2687378   2.4483800  62.9126320  83.6806564
   2.0617425  61.4504204  83.7391815  74.4303513  36.5209465  60.5347290
  74.6859131  37.0361557  59.7695580  74.9482498  35.7187920  60.4672089
  69.6273117   8.0758314  43.5451393  69.4626694   7.3479266  44.1445389
  69.8359299   7.6562810  42.7104607  66.6191635  25.2751350  23.7122555
  66.6419525  26.2194557  23.8670807  65.8742828  24.9658203  24.2277241
  83.9840240  30.3400307  81.0529709  83.9106827  31.2872658  81.1695786
  83.3777390  30.1388111  80.3401184  77.0011597  33.4878883  15.0581636
  76.2217484  32.9547577  15.2147703  77.2871399  33.2414436  14.1785555
  84.7543030  25.2540684  81.2226639  85.1374207  25.8522568  81.8642426
  83.8091660  25.3603401  81.3306198  36.6898346  28.3296261  45.3185692
  36.7495308  29.2360611  45.6203041  37.4460373  28.2187309  44.7422943
  59.9768372   0.8071322  46.1947441  60.3687401   1.6383055  46.4626884
  59.0338173   0.9703700  46.2120361  29.0617905  -0.2768348  17.9878807
  28.3946400  -0.0404624  17.3434677  29.1783237   0.5147093  18.5133438
  47.9727592  64.3149643  59.1697426  47.1252098  63.9210968  59.3765221
  48.0029488  64.3298645  58.2131348  13.1110287   2.3440936   5.2513247
  13.3324766   2.9141464   4.5149603  12.1601562   2.4172330   5.3333292
  68.9651031  21.0494537  59.9143257  69.0374374  21.0219631  60.8683929
  68.1471176  21.5184765  59.7495575  67.9811707  38.5545578  10.8604441
  68.7869263  39.0630951  10.7689018  67.6417923  38.4809036   9.9684639
  67.2954941   0.3481804  14.4002657  66.3695908   0.5045378  14.2145624
  67.5564804   1.0844500  14.9534588  54.6838074  54.2727623   4.4320621
  55.4884605  53.8418770   4.1437969  54.8922729  55.2067947   4.4131322
  78.0078659  19.8354244  83.3310242  78.5175781  19.0463448  83.1472473
  78.3154221  20.1245575  84.1901169   5.3590517  34.2484322  57.9697609
   5.6821647  34.8664665  57.3141212   6.0868182  34.1479149  58.5833435
  66.2200012   7.3643889  12.0154448  66.4123459   7.0481372  11.1327105
  66.7938538   6.8510337  12.5841179  15.5368633  44.1945839   9.7071428
  15.6158924  45.0494194   9.2837763  14.5935688  44.0541916   9.7891102
  71.1160660   5.8940697  33.8113556  70.5333710   6.2122922  33.1218452
  71.5445328   6.6821203  34.1454659  65.4814529  29.7071152  40.2695045
  66.1252365  29.0211983  40.4463882  66.0056229  30.4724197  40.0333099
  25.2072525  36.4633560   6.8022747  24.6288414  35.7627716   7.1036992
  24.6305885  37.2194023   6.6923475  16.3379116  41.4754105  66.3177414
  16.8548546  40.6912460  66.5023651  16.8577538  41.9593887  65.6760559
  10.3615236  24.3388748  36.1852226  10.4486265  24.4295673  35.2363167
  11.2449627  24.1286430  36.4878273   8.3288488  11.3830814  65.3424072
   8.5263605  11.5348778  64.4181900   7.9264951  12.1995525  65.6385803
  83.3516388  14.8330069  57.0589790  83.8569107  14.0933628  57.3964157
  82.6694183  14.4314384  56.5208817  59.2249451  21.7230206  11.9766397
  59.4716682  20.9549427  12.4918242  58.3831177  21.4889355  11.5857897
  83.6935349  66.4558182  55.7043800  83.7640076  67.2197189  55.1319046
  84.0750198  66.7423859  56.5341911   4.5754638  67.2625885  27.1085873
   3.9114754  66.5772324  27.1836834   4.2018962  67.8913574  26.4910717
  32.1694336  20.2657490  29.2458363  32.5651360  19.7657032  29.9597034
  32.8164597  20.9399204  29.0382729  55.4506226  68.4302673  38.8271217
  56.2357063  68.6828079  38.3412209  54.7911301  69.0737457  38.5678406
  51.4641304  63.2678452  46.7122421  51.3836708  63.0433044  47.6392479
  52.0799065  62.6239014  46.3624001  81.6514969  40.2853088  86.0660629
  80.8701172  39.9616165  85.6178436  82.1435165  40.7465057  85.3867645
  80.1400223   2.2278547  43.8371735  80.7116089   2.5683916  44.5253220
  79.9665527   1.3227806  44.0959854  63.7314034   8.6249647  24.2545147
  64.5596466   8.7034206  24.7278938  63.1769142   9.3107052  24.6267147
   1.4883235  57.1536407  44.7256241   1.8417950  57.9965973  44.4415169
   1.8984555  56.9963226  45.5760765  11.5008335  55.4711266  14.9232187
  10.7027349  55.7806511  15.3515491  12.1970282  55.6513786  15.5549250
  66.6529770  54.0527344   3.3721483  67.4292908  53.6321220   3.7418089
  66.3881836  53.4779320   2.6540105  73.1199112  30.8366280  70.2497940
  72.7939758  30.7257385  71.1429291  73.8080978  31.4975185  70.3262939
   0.1676784  67.8813477  23.7140331   0.7948247  67.2987442  23.2856808
   0.3868867  68.7529678  23.3846893  58.8483658  54.8441200  66.6792526
  59.0013657  55.7868500  66.6153641  58.1194611  54.7608948  67.2940750
  18.3317375  13.6228590  58.1162071  19.1699486  13.1610155  58.0978241
  18.0676155  13.6032925  59.0360374   8.6089354   2.3342080  24.1440163
   8.9509821   3.0633962  23.6267910   9.0920839   1.5700841  23.8295097
   1.7957093  59.8925438  44.0692978   1.0375571  60.1176186  44.6085358
   2.2846663  60.7115822  43.9897385   4.6877670  36.4978828   6.4776320
   5.3932695  35.8750610   6.6525373   4.6764112  36.5854568   5.5245142
  15.8209314   2.4240451  38.5821228  15.8903418   1.5920323  38.1139679
  16.6955128   2.5695472  38.9429131  19.8445625  59.1594124  20.7087479
  20.4418411  59.6719933  20.1639996  19.7330570  58.3363800  20.2329140
   6.0980997  28.8110123  77.4976501   6.0180588  28.0697823  76.8973083
   5.6100540  29.5166893  77.0733109  17.8514061  23.6893101  56.2278061
  18.3883266  22.9028606  56.3249817  16.9751167  23.3582458  56.0309715
  78.0931015  69.3235168  57.3776398  78.4215851  70.0085144  57.9599686
  77.2199936  69.1215744  57.7140007  73.6575317   5.3859878  10.0200396
  73.8113327   5.2362666  10.9528646  74.5113754   5.2452617   9.6109076
  53.5770531  65.3090515  84.6914444  53.4656143  65.3960342  83.7447357
  52.6857147  65.2297897  85.0312500  32.1765976   2.3328600  31.8918476
  32.9656029   2.5873077  31.4133472  32.1183434   2.9630115  32.6100006
  33.3793411  64.4595032  76.1062164  32.8269806  63.7083893  75.8895187
  32.7625885  65.1782379  76.2450180  48.1898232  43.0477524   9.6311502
  47.8108902  42.6534958   8.8455286  47.5549698  42.8611946  10.3228073
  10.4213543  41.7692146   6.4965625   9.8586340  42.4335861   6.0988326
  11.2408381  42.2283745   6.6805429  29.3291168  49.2154007  32.8335953
  29.2349663  49.6979637  33.6548729  28.9168987  48.3686295  33.0047340
   3.0583675  29.2915840  52.6285439   2.6501706  28.7953815  51.9190445
   3.3504746  28.6247253  53.2499962   0.3034072  17.5996704  16.1793423
   0.5431502  16.7572861  16.5655327  -0.6195687  17.7131557  16.4062099
  19.7382679  13.8639364  32.2220001  18.9866066  13.7395468  31.6425495
  20.4404011  13.3556328  31.8159618  62.4276581  57.3021584  36.3874054
  61.5299225  56.9926567  36.5078735  62.4433289  57.6504669  35.4959641
  26.2773323  56.4909935  55.0658302  26.3095665  55.5346375  55.0418587
  26.2245998  56.7055893  55.9971733  44.6099167  58.9375076  55.2403831
  43.7894516  58.9382706  55.7333984  44.3902130  58.5143318  54.4103928
  24.8300743   9.0018492  21.3158340  24.0733681   9.5681162  21.1642799
  25.5824337   9.5320034  21.0529213  60.9673882  47.4901199  69.5019760
  60.1115189  47.4531136  69.9290009  61.5322876  47.9323959  70.1356201
  39.5612297  52.7611771  80.6357193  40.0568962  53.0409088  81.4053268
  39.0947380  51.9764481  80.9235001  24.2071533  35.2932587  27.4728565
  24.2335567  35.9903641  28.1282825  24.9010048  34.6892929  27.7374878
  72.0754700  10.9444323  52.2508583  72.6523361  11.6179018  52.6112671
  72.6692657  10.2574768  51.9479866   9.6218748  23.0890789  74.6261520
   9.2906666  22.8137665  75.4809799  10.1520653  23.8638401  74.8129044
  32.3076553  63.2740440  33.9205360  32.1050720  63.8395996  33.1753235
  31.5209236  63.3041992  34.4649391  47.2290459  69.9570999  32.0313835
  46.6429787  70.7062073  31.9237080  46.6931267  69.2944107  32.4671211
  65.9805450  39.8844261   4.1326442  66.7479019  39.6347427   3.6178043
  65.6044617  39.0526962   4.4207759   2.7626274  44.7812653  38.7644234
   3.4958310  44.2063942  38.9838943   3.1748433  45.5825691  38.4415894
  12.0163565   6.3703856  79.2614059  11.7583275   5.8659220  78.4899292
  12.2863045   5.7103243  79.8999023  69.9211578  18.4119205  35.7770958
  70.6109238  18.9159393  36.2088509  69.3763809  19.0710526  35.3469810
  12.6086159  50.5257530  23.1990929  11.7159481  50.1886902  23.2750034
  12.5604067  51.1757164  22.4980526  79.4977341   2.8957810  32.8054008
  80.2828674   2.4349329  33.1010666  78.7727585   2.3343685  33.0800934
  79.5113602  67.0331192  68.3788147  80.2257309  67.5614471  68.0227737
  79.3932190  67.3599701  69.2706985  13.2936249  17.6229877  15.3716173
  14.0867910  17.5219498  15.8978395  12.6767502  18.0695705  15.9514971
  48.9456406   9.5672884  50.3576508  48.1087418   9.1072721  50.4225960
  49.0701561   9.7066011  49.4188652  12.8796997  68.5906372  44.4964752
  12.0555058  68.9833527  44.7840614  13.4454880  68.6295929  45.2675743
  14.3413868  19.0687656  21.7577305  13.9169550  18.9612808  22.6089268
  15.2544031  19.2643986  21.9683514  61.6557541  49.4638596  79.1698456
  62.0891724  50.3105125  79.2773590  62.2760468  48.9399033  78.6629562
  34.5371284  60.0498123  35.6796379  35.4360085  59.8461990  35.9380684
  34.6272507  60.5258446  34.8541031   9.8494644  38.9622307  19.8630295
   9.9445400  38.0682106  20.1915359   9.6334019  38.8553047  18.9366837
  47.1948509   6.8442817  37.8487053  48.0726280   6.4760218  37.9493179
  46.9462700   7.1157374  38.7323036  15.2778244  18.4017467  87.7054520
  14.9329605  17.5155678  87.5959549  14.4996862  18.9563904  87.7611542
  49.9252930  45.0199356  10.6280737  49.4001617  44.3159828  10.2473917
  49.5619545  45.8209076  10.2503691   1.1830457  43.9723778  68.8878021
   0.4410170  43.6831512  68.3567886   1.9389529  43.8942719  68.3057938
  68.3502884  58.2422829   6.4105735  68.2362442  58.1912956   5.4615607
  68.3096848  57.3326874   6.7059007   9.0150309  35.3649025  31.4630013
   9.1336517  34.7511215  30.7381344   8.4998856  34.8786278  32.1067352
  79.7081985  34.1296005  66.5776901  78.9596558  34.7190819  66.6695023
  80.2374191  34.2910538  67.3587723   1.6754928  53.8434906  74.3073807
   1.3083564  53.1679039  73.7372742   1.8334496  53.3956604  75.1384811
  81.3088455  16.0782833  81.7986679  82.0842896  16.6276226  81.9133148
  81.1795425  16.0412426  80.8509674   7.7202053  13.9057446  48.5031128
   7.9940863  13.1003666  48.9419594   7.9335017  13.7606649  47.5813293
  81.5070190  14.2947826   3.4304481  81.8683929  13.4426975   3.1863337
  81.5324707  14.8063087   2.6217921  33.6565323  61.6538963  19.7140770
  32.8014488  62.0678673  19.5970516  33.7767448  61.1253738  18.9251270
  69.6176224  31.1406956  74.7409821  69.9571915  31.2459126  75.6297150
  68.6709595  31.0562801  74.8547134  24.6989269  40.9550552   7.8218079
  24.6027184  40.0922928   7.4185457  23.9485016  41.0288734   8.4114208
  43.9895363  21.2146931  81.1532059  43.6680832  21.4735470  82.0168610
  43.3304825  21.5459461  80.5431671   2.5761726  34.1355591  87.9589310
   2.6025445  33.5694885  88.7303619   2.7122874  35.0177803  88.3044586
  46.2172394  70.0556412  54.6378593  45.6206589  70.3828049  55.3111229
  46.7696075  70.8069077  54.4217224  79.3141708  10.4194384  34.3326416
  79.9876862  10.6177435  33.6820412  79.7746124   9.9256973  35.0112000
  61.0992126   3.2576392   0.6814734  61.0719223   2.3165500   0.5087352
  60.5689507   3.6445065  -0.0152262  42.1736526  65.8037872  75.3940964
  41.5240402  65.1075439  75.4914703  42.0820770  66.0914841  74.4857635
   6.0319910  70.2278595  58.0965080   5.8946567  69.4091415  57.6199875
   5.1621041  70.6239700  58.1477661  19.8247566  22.9958515  71.1652069
  20.1039848  22.3917847  70.4771957  19.3135414  22.4542294  71.7664871
  54.1277428  22.3872738  71.9276733  54.4657173  22.8940392  72.6660385
  54.0356331  23.0261497  71.2208557  43.0144157   3.5295236  49.3230782
  43.1813850   4.0403495  50.1151733  43.5737572   2.7580118  49.4132881
  78.5020370  58.0178909  87.6420364  78.3048630  58.9084663  87.3518143
  78.6601334  57.5317459  86.8327713  82.4604111  42.3147850  63.7142944
  81.8234863  41.7263107  63.3090096  82.0432053  43.1757927  63.6854477
  77.1525650  48.8676453  87.8615494  76.5223312  48.5349464  88.5005722
  76.9319458  49.7943344  87.7676697  27.6715469   0.6820418  79.5993729
  27.1843033   1.3991734  80.0050125  28.5599365   0.7707157  79.9445267
  23.0429668  60.5444527  61.5602913  22.9124985  61.1550179  62.2858353
  23.9923687  60.5112419  61.4429741  46.7750740   7.4937515  29.7332439
  45.9853058   7.3201733  30.2454662  47.4752617   7.0552478  30.2166519
  11.1885891  50.4837646  33.9457703  12.0524254  50.0790329  33.8669662
  10.6233940  49.9532356  33.3842354  65.4435959  52.5672951  46.3761978
  65.7893219  51.8876343  45.7976112  66.0729980  52.6120415  47.0959740
  55.2737160  64.9890976  18.2957630  54.4839439  64.8368149  17.7768211
  55.2408943  65.9204636  18.5141945  43.6771126  70.4734192  81.2099075
  42.8324165  70.9213104  81.2558823  43.4703789  69.5542831  81.3792648
  43.7494812  62.7211800  22.6544991  44.2021484  62.9731941  21.8496284
  42.8228760  62.7099609  22.4146957   2.1171215  36.7801476  88.8258514
   1.6514021  36.7000809  89.6582718   1.6440856  37.4638939  88.3515549
  10.0901804  19.4217968  28.4974213   9.2869978  19.2966881  29.0028687
  10.2611265  20.3622341  28.5482597  72.9233017  25.5886192  25.5339260
  72.2036819  25.5939674  24.9027805  72.5046692  25.3958473  26.3728638
  56.4635849  10.1892138  43.0613937  56.3680077   9.2861538  42.7587738
  57.1718292  10.1526947  43.7042732  86.7538300  39.5359688   3.6690276
  86.7609406  39.7937813   2.7472286  86.0768280  38.8615112   3.7238755
  42.5037117  60.4130096  87.2891464  42.4520264  61.2730637  87.7061234
  43.1230659  60.5327034  86.5692139   2.4767642  19.6613636  11.4656544
   2.1283131  19.9659138  10.6277628   1.7693410  19.8192310  12.0908442
  57.2966423  12.5919943   4.9014773  57.0305595  12.0077057   5.6114340
  57.0695877  13.4677219   5.2141743   3.7690396  35.0915070  46.6993103
   3.2477188  34.3013916  46.8413506   3.3846829  35.7410965  47.2879829
  18.0892410  67.2766953  13.7313061  18.3650703  66.3939133  13.4846468
  17.2145672  67.1595154  14.1020451  10.0262976  63.7052574   8.9589462
   9.9111309  62.8723869   9.4164352   9.7816954  63.5166855   8.0529432
  25.4118271   4.8920465  11.9647188  24.8923588   5.6849718  11.8318501
  26.2040272   5.0351319  11.4468622  14.6649742  40.0880470  34.1974907
  14.4270754  40.5107193  35.0227089  15.5030146  39.6626930  34.3791275
  55.6685753   4.2691770  16.8257561  56.6022606   4.4516797  16.7201176
  55.2979279   5.0927639  17.1428604  68.7530670  35.3829346  53.4897385
  68.3502655  34.6681862  53.9828110  69.4359131  35.7192459  54.0701180
  16.6481781  19.4161453  82.4574203  15.8405199  18.9194946  82.5887833
  17.2000332  19.1773052  83.2021713  78.3931732   6.4336057   0.1373743
  77.7625504   6.7323494   0.7925844  79.1361389   7.0298643   0.2306910
  26.1899090   2.3491306  17.9208603  26.4955845   1.5875483  17.4281254
  26.2118645   2.0673001  18.8353653  27.6528072  54.6555290  69.7395859
  27.8726673  55.5841064  69.6644897  26.7150402  54.6154938  69.5519104
  71.0671158  46.2892532  53.1473579  72.0181351  46.1844826  53.1758690
  70.7423782  45.7195396  53.8446388  16.2098198  46.2925682  33.9097137
  15.5800238  46.7888374  34.4324989  16.2557926  45.4377670  34.3380051
  11.9129353   7.3824515  57.1040192  11.7073383   6.4602423  57.2572899
  12.8468504   7.3879805  56.8942490  75.5625153  64.8756866  10.7066631
  75.2306824  63.9994698  10.9025202  76.4052200  64.9191971  11.1585379
  75.3679886  56.1545143  74.7279663  75.9179077  56.3463860  75.4875793
  74.4769669  56.1317291  75.0769577  37.5451126  70.1765289  67.0119247
  38.0831375  69.4027328  67.1792679  37.6454201  70.7126694  67.7985153
  56.5729446  44.0983238  69.0081177  56.1751442  44.9073982  68.6865768
  57.2324333  43.8778076  68.3503342  11.4052296  25.6121235  23.9028797
  11.6484938  25.9189243  23.0294228  10.9374599  26.3498764  24.2942142
  46.2055244  61.7371407  27.6684227  45.2777977  61.6720428  27.4418812
  46.6075859  62.1632576  26.9114552  84.4154968  48.0538368  45.1915436
  85.1550140  48.0433350  44.5838928  83.7662125  48.6160316  44.7689285
  74.4690704  25.9569168  15.8110037  74.9608994  26.2324638  16.5845757
  75.1407242  25.7028275  15.1781139  83.5732803  66.9684219  62.1657524
  82.8118286  66.6222229  61.7003746  83.7650757  66.3104935  62.8340111
  72.0082397  23.9502716  37.3909035  72.6255188  23.2644043  37.6454391
  71.6079483  24.2298183  38.2142181   3.2743139  34.2511368  10.8864098
   2.4446468  33.9049034  11.2150526   3.8275754  33.4785194  10.7715569
   6.8125782  30.4181576  65.6816254   6.3252273  29.5945530  65.7015457
   6.3552713  30.9513912  65.0314178  59.0769958  51.5502930  42.8480759
  59.0765266  50.5983734  42.7476768  59.8579483  51.7357445  43.3695679
  56.3351555  60.2152405  24.0133095  56.0582352  60.5355721  23.1548615
  57.2808151  60.0929146  23.9296741   0.3420071  29.4814301  32.3271294
  -0.0480333  29.0479794  33.0862198  -0.2676796  30.1883411  32.1154938
  20.4140472  16.7875805  23.7814445  21.3564186  16.8830929  23.9194431
  20.3397427  16.3316021  22.9431152   4.3669815  56.8108292  29.9245911
   4.8115439  56.7168808  29.0821133   4.7342911  56.1138802  30.4682598
  34.7938728  15.1443567   3.8676968  35.4843445  15.7248583   4.1878490
  35.0971336  14.8651619   3.0038004  82.2440491  23.2508640  24.6758003
  81.9993515  23.1532612  25.5960350  81.6431732  23.9146347  24.3372936
  21.8753510  12.0601940  74.8060608  21.8999119  12.4339790  75.6869202
  21.3771667  12.6944532  74.2905426  59.6663475  42.6033363  67.4260254
  59.1522331  43.3585320  67.1403809  60.1003494  42.2944107  66.6307678
  70.4693527  49.1129570  75.4424286  69.8129501  48.4162979  75.4481125
  70.4087677  49.4919777  74.5655594  21.6031857  21.1887245  20.5095310
  21.4388695  21.9753456  21.0295887  21.1645870  20.4873028  20.9910641
  44.2295761   7.7527833  48.8177910  44.8984070   8.1561346  48.2644310
  43.6962318   7.2379665  48.2122002  58.7265472  58.9696770  77.6979218
  59.1811638  58.1694489  77.9609680  57.8346062  58.8575211  78.0266953
  78.4744644  22.4481945  11.6727343  77.5411835  22.4196949  11.8834953
  78.5149841  22.8889294  10.8240042  22.6407604  13.0553436   5.6321063
  22.2571774  13.5875645   6.3291264  23.1445866  13.6764708   5.1061850
  42.8551788  70.9284363  47.9818306  43.5161781  70.2373428  47.9406433
  42.1064835  70.5182800  48.4147949   4.4185233  46.2150459  67.2238312
   3.9426267  45.8434982  66.4810638   5.2632823  45.7649803  67.2163773
  55.9406433  56.7020187  40.8302078  55.1453209  56.2820663  40.5025864
  56.6547737  56.1740532  40.4731331  15.8091984  36.5244179  83.5054550
  14.8856592  36.2842941  83.5805969  15.8578672  37.0401039  82.7005157
  60.2253761  32.3378563   0.9966982  59.4396820  32.3849220   1.5414007
  60.1746140  33.1117744   0.4357112  75.4659576  10.8446865  83.0121994
  75.1956558  10.6255598  82.1204834  76.3083267  11.2865400  82.9053802
  53.8294296  69.0237808  46.2410889  53.2373581  68.5419006  45.6636162
  54.0416985  68.4032288  46.9382896  84.7538986   8.9261484  41.2293854
  85.1707840   9.7099447  41.5873032  83.8173981   9.1232548  41.2479858
  28.3646526   8.7987232  78.8749390  28.2771149   8.8661108  77.9241333
  28.9746151   8.0732279  79.0084839  76.4181671  36.0094070  10.5374622
  76.6084595  36.3018799  11.4287987  76.2175903  36.8138771  10.0591030
  46.7109566   9.9510508  26.8184776  46.4989166  10.1563368  27.7290421
  46.0835609  10.4606390  26.3057137  40.4599571  -0.0954332   8.1615782
  40.1907654   0.0748975   7.2589402  40.0767288   0.6226059   8.6653528
  16.2049294  18.6640491  72.5950546  16.3997097  18.2414150  73.4315186
  15.3449221  18.3233032  72.3490601  41.0029030  59.9660683  28.5580406
  41.7043648  60.0334053  29.2058449  41.4130211  59.5422554  27.8041039
  14.4917841  12.5102253  77.1702957  14.7306366  13.0473938  77.9256973
  14.4433241  13.1293287  76.4418716  11.7135315   6.4573884  73.2858124
  11.1237116   6.9434123  72.7095032  12.5884790   6.6435709  72.9451675
  16.5424500  38.1987000  37.5676613  17.4648190  38.0814552  37.7950859
  16.5485249  38.3781357  36.6274529  58.1043282   7.5251985  13.5620070
  58.9889336   7.4415789  13.2060442  57.8988914   8.4562063  13.4768353
  86.7271347  56.8576698  36.8768463  86.0373383  57.1146126  37.4887199
  86.3779068  57.0818939  36.0142937  50.3225250  49.5053253  75.0770264
  49.5368690  49.8282814  74.6358032  50.4375458  50.0941963  75.8228378
  19.8541260  11.1881685  63.0401421  18.9262619  11.0896292  63.2536583
  19.8653812  11.7816000  62.2891808  25.5543842  31.5016842   0.3907744
  26.3084679  30.9691486   0.1378041  25.4381676  31.3242340   1.3241754
  78.9118118  47.3698959  15.1227283  78.9355392  47.3441620  14.1661682
  79.5875092  48.0042152  15.3620987  35.0860214  12.1075296  55.5087433
  35.9567451  11.7768450  55.2880249  34.8562775  12.6829014  54.7790871
  72.4701309  65.6718903  26.1913166  72.4336700  65.5484009  25.2428169
  71.9341812  66.4484177  26.3525295  44.7603951  11.9918928  61.0006714
  44.2814445  12.1779509  60.1930733  45.6665993  11.8677254  60.7185173
  78.4473495  61.9843864  83.5014038  77.8867798  61.2126465  83.4214020
  78.4906311  62.3419609  82.6145554  24.3918037  13.0515881  50.6108131
  25.0604725  13.7036591  50.4012527  24.6555672  12.2722912  50.1215706
  80.3853912  59.2687836  89.2691193  79.9040604  59.2853203  88.4419098
  80.7226639  58.3751945  89.3321533  41.6202087   2.5077677  18.9647675
  41.3894463   3.1927724  19.5922604  42.5627327   2.6108999  18.8334408
  56.3416672  61.2707825  82.3741074  56.9919548  60.5801468  82.5020828
  55.5188065  60.8020973  82.2345810  29.6768360  16.7064915  39.4508629
  30.6233807  16.5852699  39.3760757  29.5426788  17.6423874  39.3014221
  20.3328876  58.1905556  53.6604538  20.4115353  59.1144867  53.8979454
  21.0263786  57.7558174  54.1567459  77.5993576  46.9693108  40.9518929
  77.9182816  46.5222549  41.7358971  77.0648193  46.3141251  40.5033112
   3.2956579  49.4318619  70.1240845   3.7628789  48.5985184  70.0651550
   3.7748203  49.9287224  70.7872314  34.6827736  68.5235901  84.9508209
  34.0169983  67.8514175  85.0962753  35.0032539  68.7368698  85.8272018
  32.5198631   9.0954618  66.6479797  31.8767395   8.4500885  66.3545227
  32.6959229   9.6279631  65.8722992  86.5132599  14.2350101  61.1786041
  87.2212067  14.2884769  61.8206177  85.8295975  14.8067884  61.5277596
  75.8699265  34.4708290  61.0251045  76.4409332  35.1671677  61.3495979
  76.1067734  33.7041740  61.5470009   9.7899170  49.1914520  22.8813076
   9.3374109  49.7720718  22.2694645   9.0877705  48.7827072  23.3874207
  40.8528976  11.0355310  22.3533783  39.9363480  11.0931511  22.0834694
  41.0954971  10.1250954  22.1846046  52.0368271   3.4582033  28.7918205
  51.6762848   2.5945287  28.9925861  52.2974396   3.8124869  29.6419945
   5.8460727  10.6724205  59.9990730   5.1492705  10.6194019  59.3449440
   6.6558123  10.6374207  59.4898300   0.8835934  23.9471741  70.8663177
   1.5720313  23.9931393  70.2028656   0.6894744  24.8612385  71.0737686
  44.4631958  24.3004436  17.8220520  44.9094353  25.1329308  17.9771996
  44.2406731  24.3178024  16.8912392  22.8199234   9.9835482   0.6429642
  23.0906639  10.4003391   1.4610206  23.1683178  10.5532265  -0.0428347
  83.3452835  49.1063156  12.7378206  83.3542938  48.4598236  13.4436550
  84.2065430  49.0255318  12.3280239  27.3323402  65.1841583  65.3144531
  27.1919041  66.1268463  65.2258377  26.4512863  64.8100433  65.3180618
  55.1659737  33.7520866  13.4771347  55.7638359  34.3992729  13.1030455
  54.2942352  34.1210442  13.3350983  59.2200584  14.4474478  21.8642693
  58.4331932  13.9487267  22.0841560  59.7008743  13.8820305  21.2598228
  12.9366436  60.9553986   8.6310978  12.2515478  60.8852348   9.2958927
  13.4373236  61.7310028   8.8840675  72.5680161  31.9052963  54.6728477
  73.1218643  31.1484795  54.8644524  73.0784988  32.4245033  54.0515137
   4.3970218  56.4613190  33.2933807   4.0755901  57.3563004  33.4025650
   3.9032540  55.9496498  33.9341736  70.1152573  43.3800659   2.8239648
  70.7430496  42.8154106   3.2748237  69.3169327  43.3171997   3.3483384
  49.4626656  12.6083527  26.1085472  48.5957298  12.9593182  26.3122063
  49.7973289  12.2943439  26.9485645  73.4200668  37.2140579  75.2518158
  73.1829605  36.6448708  75.9839630  73.8039703  36.6233711  74.6037903
   3.4007585  24.3807869  39.1474075   3.3330238  24.7998466  40.0053291
   2.5959785  23.8688831  39.0666847  36.6585236  67.1276398  65.0363541
  36.9630394  66.7333374  65.8536911  35.7891312  67.4696350  65.2447510
  69.7364273  31.3317394  54.3839340  70.4854507  31.9087009  54.2345428
  69.6467361  31.2974110  55.3363037  82.2510986  60.2599068  56.1228409
  82.1387711  60.0092278  55.2059059  82.5158234  61.1791573  56.0891266
  76.8632889  63.5811539  85.1606903  77.4151764  63.0014839  84.6356735
  77.1907806  64.4603348  84.9709091  52.9384689  17.1567535  54.2337837
  52.2291069  16.9480114  53.6259499  52.5073700  17.2446823  55.0838737
  56.9262314  68.3516312  87.4372177  57.2982826  69.1823502  87.1410522
  56.3481255  68.0803604  86.7241669  43.2257538   6.6846066  21.8984222
  44.0405807   6.2896624  21.5880871  42.7459373   5.9599676  22.2995529
  46.1562157  56.6071701  66.3515625  45.9127693  56.6963272  67.2729797
  47.0703545  56.8889236  66.3170090  52.4189606  15.2805271  12.9386139
  51.5860023  15.6658258  12.6666651  52.1747360  14.6011057  13.5670815
  46.2586937  17.7034512  25.3336544  47.0987434  17.2674541  25.4766598
  46.4860573  18.6236706  25.2004852  73.4699173  50.9265671  68.9226761
  72.9358749  51.4626541  68.3364716  74.0012817  50.3875275  68.3367386
  74.3117447  35.0638008   1.4361466  74.3607407  35.5886803   0.6371895
  74.6785965  35.6283951   2.1165056  84.0447235  25.7893391  88.5725861
  84.2486343  25.3897038  87.7270432  84.8975220  26.0241489  88.9384079
   1.5677820  63.3794937  79.9321060   0.9671555  62.7082787  80.2560654
   1.6911687  63.1644249  79.0075836  33.9604034  22.4522934  87.0816345
  33.1017570  22.3707752  87.4967422  33.7729378  22.4595394  86.1429977
  44.9087372  63.4796562  20.4667683  45.8143959  63.4426117  20.7744141
  44.8684769  62.8329620  19.7622128  11.7929277  45.6120949  54.6428413
  12.5331326  45.9595451  55.1404457  11.9649754  44.6724319  54.5822983
  16.9251652  39.7129021  58.3942108  17.3156586  39.0791016  57.7925148
  17.6531696  39.9997711  58.9455261  85.3725204  26.0530415  10.8638382
  85.9445267  25.9209480  10.1078033  85.2996216  25.1862717  11.2633705
  29.9535294   4.3617520   6.0826526  29.7261791   3.6886063   6.7240710
  29.2841206   5.0364828   6.1960588  41.6176682  26.4486179   7.9022350
  41.8438110  26.9288464   7.1056981  40.8864746  25.8874035   7.6441107
  61.4570885  51.8919144  76.8209457  61.9204407  51.4449387  76.1126022
  62.0483780  51.8290596  77.5710449  77.4108429   3.6434665  21.0147095
  77.3605957   3.6595352  20.0589638  77.8440781   2.8144565  21.2178726
  67.6700897  53.5562859  25.2923756  67.7855835  52.6579590  24.9826889
  67.3456802  53.4610710  26.1878777  55.5068970  43.8843079   4.8976212
  56.1775322  43.8611183   4.2150230  54.9489326  43.1292801   4.7109480
  70.2220993  59.3774796  16.4355183  69.5889206  60.0890160  16.3405151
  69.8098907  58.7705421  17.0502872  15.8386869  33.8113976  77.0063553
  15.0845299  33.3401451  77.3604660  16.2830544  33.1700821  76.4518433
  63.8098183  60.5105934  31.2041111  64.0643005  61.4117088  31.4027615
  64.4465485  60.2203369  30.5509949  83.4828262  68.4475021  76.4540176
  84.3634567  68.1182480  76.2742767  83.1695786  68.7677612  75.6081238
  14.0143423  37.8471947  38.4592438  13.6300793  37.7030067  37.5944977
  14.9458342  37.9851685  38.2874336   9.6272545  23.7772255  46.4852409
   9.0847816  24.1625862  47.1733170   9.1556320  23.9666805  45.6741219
  62.2690582  49.4196091  51.5630608  61.4676743  49.9135094  51.7364807
  62.2153397  48.6631775  52.1471443  51.2494469  34.6712494  20.0968990
  50.4457970  35.1101608  20.3757153  51.1309280  34.5284233  19.1578655
  58.1894112  24.0042343  27.4145832  58.3796616  23.0791893  27.5705566
  59.0313950  24.4446850  27.5299129  62.5524979   4.6887803  73.9062500
  62.8348083   5.2457767  74.6317062  63.1487045   3.9404073  73.9328079
  74.5978470   5.6635947  71.1119614  75.3170624   5.1637149  71.4980774
  74.3043671   6.2430477  71.8150482  23.6156940  34.3702087   4.1898217
  23.2598057  35.1955681   4.5190010  24.5482521  34.5450134   4.0632977
  60.1908455   4.2882142  10.1177444  60.1266327   5.2052207   9.8508968
  59.2823219   4.0023508  10.2131586  33.0627136  28.2747993  86.5657349
  33.0931931  29.2299938  86.5118408  32.3524094  28.0241203  85.9750900
   5.2020950   5.1273847  45.8100357   4.9227138   4.9284139  44.9163971
   6.0354705   5.5861354  45.7038994  83.2219086  26.4747486  61.7532082
  83.2122040  27.1164665  62.4633751  82.3073425  26.4071808  61.4789352
   6.4365840  12.2924910  12.3952398   7.2405796  12.3517942  11.8791914
   6.7375274  12.1369925  13.2904968  73.9445190  38.7426262  35.7477989
  74.2295456  38.7950172  34.8355217  74.7269516  38.9568634  36.2558670
  58.6974030  68.8106918  53.6978531  58.6233101  69.5579071  54.2914925
  58.8469276  68.0610199  54.2739296  30.2734108  62.7533951  78.1977158
  31.1162796  63.1010017  78.4892197  30.4823818  61.8938675  77.8319626
  62.1796989  47.1007690  37.8542976  62.4434967  46.2639389  38.2368660
  62.1244164  46.9276657  36.9145050  14.0436678  47.7261543  35.2862816
  14.2031689  47.3128586  36.1347961  13.4134207  47.1499138  34.8538895
  62.4239197  34.5005493  88.9559631  62.3822975  35.3799782  88.5803299
  62.0719986  34.6009903  89.8404388  38.6950073  66.4811478  77.8699875
  38.7369843  66.9432983  77.0327988  38.3794174  67.1380005  78.4906158
  33.1163979  31.9222622  27.2360649  32.5538101  31.3990402  27.8069992
  32.7039108  32.7858658  27.2194824  19.8193626  29.2518272  81.5542145
  19.9990273  28.9056206  80.6800919  20.6715584  29.2557907  81.9900742
  15.1024199  56.9350853  11.8338356  14.4968033  57.6746941  11.8831949
  14.7750158  56.4055405  11.1067715  42.6645164  31.4152107  28.6506519
  42.6687012  30.4841232  28.8726692  42.3325462  31.4459972  27.7533894
  19.9849854  58.7819519  30.0840874  20.1490536  59.5894127  29.5969353
  19.0358753  58.7651024  30.2071247  23.7376442  59.0332794   3.3603816
  23.5472889  58.7925034   4.2670364  23.7419167  59.9904671   3.3626113
  84.7100220  27.3088512  22.0492496  85.5780106  26.9077396  22.0932980
  84.7023544  27.9426003  22.7665615  61.2423248  60.8208733  67.1777420
  61.1613235  59.8697586  67.2488403  61.5377274  61.1015015  68.0438919
  71.5600967  44.3038292  44.9760666  72.4070587  44.3993225  44.5404358
  70.9813385  44.9066086  44.5092354  66.5577698  70.1190338  32.8970184
  66.3308640  69.8320465  32.0124931  67.4482269  70.4609299  32.8168564
  85.8971558  28.3111725  48.5788803  86.1348953  29.1795769  48.2539406
  85.1997604  28.4755859  49.2135811   9.7110481  33.4413795  29.5687943
   9.5861635  32.5427437  29.8739071  10.3616400  33.3689690  28.8704262
  72.0772934  48.9998322  41.5104103  72.7244110  49.5797424  41.1089478
  72.0164642  48.2567749  40.9100838   7.4885964  54.0843773  21.8412151
   6.7647362  53.4617920  21.7730694   7.1865468  54.8562088  21.3623886
  40.6740685  10.8678455  32.5745277  39.9644928  10.5727406  32.0038719
  41.4469414  10.4011259  32.2566147  52.7050400  50.1939163  67.8097000
  52.1748581  50.9688873  67.6238174  52.1166191  49.4565926  67.6473846
  28.2052631  21.9695187  13.2092094  28.4758835  21.7583733  14.1027498
  28.8649712  22.5900631  12.8994684  70.1946716  68.1894226  44.4739914
  69.6658020  67.4028397  44.3405037  70.0163651  68.4472961  45.3783913
  11.0950260  62.8561516  22.0135136  10.1781530  62.8300781  21.7398415
  11.0607510  62.8207092  22.9694424  28.3042717  62.8226471  80.5288544
  28.7502823  62.3290024  81.2170563  28.6166019  62.4316826  79.7128754
  13.6634722  38.0238152  29.5994339  13.5610199  38.6945190  28.9242344
  12.8478279  37.5239639  29.5662193  52.1859894  15.0680761  77.6523972
  52.1419716  16.0235462  77.6894455  51.3659668  14.7749453  78.0497208
  60.4861984  25.9951668  18.9394169  60.8172226  25.2151966  18.4941063
  59.7059937  26.2415981  18.4426441   3.3696759  61.0990448  46.5919075
   2.6668043  61.5794754  46.1544266   4.1692657  61.5591507  46.3365860
  10.8150492  15.4355230  28.4329853   9.8665066  15.4262199  28.3048744
  11.1283484  16.1291237  27.8524742   5.4456773  38.1341591  45.7856598
   5.6920600  38.7531242  45.0983391   4.6654234  38.5183220  46.1854744
  60.2409019  69.9923859  67.1431427  60.2392349  69.9353867  66.1876373
  59.6832809  69.2681198  67.4272614  24.4725895  23.1760254   6.6184940
  24.8739071  23.8213444   6.0364795  25.0203247  23.1880341   7.4033976
   1.6300998   9.4699087  52.4095154   1.8440915   8.5528631  52.2378540
   0.8468062   9.4343586  52.9585304  53.8643188  13.0697155  46.1669998
  53.2833099  12.3435545  45.9403915  53.4402313  13.4915485  46.9142876
  80.4205933  59.3107567  73.5271454  79.5724869  59.0558586  73.1638718
  80.3050766  60.2248764  73.7865143  16.8685722  58.0823479  69.4838409
  16.9642677  58.3195419  68.5614471  17.6628895  58.4163208  69.9006805
  62.3601379  29.4054165  83.1272812  61.5081940  29.0290890  83.3481827
  62.2237015  30.3516293  83.1752243  49.2115555  65.4256668  81.9278412
  49.8195229  65.7188263  81.2491226  48.6123962  64.8336029  81.4731903
  62.9565773   6.1689334  59.6284599  63.1130219   7.0874896  59.4093475
  62.9125366   5.7248478  58.7816544   4.6821289   3.3348861  43.3097038
   5.1491494   2.5550437  43.0097542   5.1880107   4.0672464  42.9576187
  16.6293621  51.1118088  36.5443687  16.4296303  51.6525536  37.3085251
  15.7923670  51.0227814  36.0885811  54.6181335  51.0378494  24.2958317
  55.1030922  50.6933136  23.5459366  53.7413559  51.2130241  23.9540558
  20.0605125  61.0828590  57.1868477  20.7246704  61.6238251  57.6140289
  19.5693226  60.6916313  57.9092751  51.0322952  17.4571705  60.5364227
  51.5592232  17.9666367  59.9207764  51.0486412  17.9681549  61.3456573
  79.5129471  50.9344406  37.2712440  79.6484070  50.0246773  37.5362244
  79.1152878  51.3500671  38.0363235  22.1570644  22.8126144   5.1613412
  22.9447880  22.9807358   5.6785045  22.3238297  23.2445908   4.3235960
  52.1029472  23.5106754  23.3649178  52.8957253  23.0282173  23.1304607
  52.3261795  24.4283619  23.2091885  26.3996773  61.1665115  36.1588249
  26.8517494  60.3261681  36.0834312  26.1366081  61.2153549  37.0778694
  32.4272614  29.2403240  25.2920513  32.2698669  29.9228477  24.6396561
  32.0906792  29.6079254  26.1092472  48.0995483  61.3306732  59.0362587
  48.0222054  60.6718636  59.7263451  47.2094688  61.6638680  58.9223747
  77.0837631  43.3483810  59.2027054  76.9610367  42.3993683  59.1793098
  78.0214233  43.4649200  59.3558235  24.2401657  27.8957920  88.4221191
  23.9060764  27.1943588  88.9812317  24.8073616  28.4102688  88.9964294
  79.3902817  27.1320343  67.9471283  79.4046555  27.9545116  67.4576797
  78.4606857  26.9205341  68.0328217  36.7383347   5.1069937  25.4857101
  36.4664917   5.6254673  24.7284012  37.1101761   5.7467155  26.0929356
   9.1789780   4.6304827  16.7407360   8.5025845   4.2225027  16.2001095
   9.2443619   4.0646400  17.5100079  59.2932205  53.1035690  64.7379074
  59.3332443  53.7706833  64.0526428  59.1191750  53.5949783  65.5406876
  73.8071594  29.2146320  57.2691956  74.3099442  28.5298805  57.7102737
  73.9503250  29.0537949  56.3365288   2.7126696  48.2231331  58.0167847
   2.0366569  47.5666885  57.8484955   3.5379322  47.7525978  57.8994331
  39.7835045  35.9716606  81.3245773  40.2053185  36.2512550  80.5120926
  40.5016136  35.6469574  81.8678284  30.8329430  29.8404732   5.2354207
  31.0239086  28.9365826   5.4859109  29.8944798  29.8436184   5.0469775
  86.1076202   4.3239756  22.1564102  85.6592484   4.8296061  21.4785233
  85.4764099   3.6504540  22.4097347  70.3933563  19.5382023  71.3422623
  71.0049973  19.0820293  71.9202118  70.8821793  20.2991772  71.0288925
  31.2511520  10.5725613  51.3645172  31.2614517  11.4354782  50.9503899
  30.3455353  10.2753782  51.2763519  52.8621216  58.7004318  37.8111191
  52.0687027  58.2311974  38.0690613  52.9537163  58.5198669  36.8755760
  15.4886818  46.8066330  88.0377579  14.8727741  46.9453506  88.7572327
  14.9341631  46.6163483  87.2810974  64.7992935  23.1596050  51.4309654
  65.1702576  22.9798489  52.2948532  64.0561829  22.5604496  51.3600082
  77.5948868  39.7842293  49.5821075  77.9095001  40.6128502  49.9435425
  77.0963593  40.0359230  48.8047104  46.7735023  69.0974503  42.0339470
  45.9370422  69.4952316  41.7924080  46.6005020  68.1560211  42.0318222
  50.1567116  58.0653572  77.1930084  49.2082939  58.0931168  77.0666580
  50.5049553  57.8127174  76.3379440  52.8579559  40.9187202   9.1394682
  52.1413422  40.3372192   8.8853970  53.6035194  40.3342743   9.2765636
  47.1315193   5.9359088  74.0612946  47.6944084   5.9969897  73.2895050
  46.2893181   5.6348491  73.7202759  75.5753479  68.4888687  55.7589111
  75.2440338  67.9676514  56.4902039  76.4456329  68.7707901  56.0406303
  48.7803879  67.4048538  20.8616180  49.6066322  67.8714371  20.7357254
  48.1234932  68.0970078  20.9367332   2.5836248  69.6170044  78.1611710
   2.4032385  69.5438690  79.0983734   1.7292112  69.7892990  77.7655411
  30.2372589   0.4544116  31.0535431  30.7898121   1.1815850  31.3401375
  29.3464699   0.8032289  31.0859852  43.7619324  35.4701271  28.1645222
  42.9114532  35.8353386  27.9205246  43.5500412  34.6687889  28.6432610
  32.6108818  64.6057129  20.3975182  32.3702431  64.3928452  21.2991886
  31.9742966  64.1325760  19.8616657  36.0910454  52.6408768  10.0325518
  35.5614319  52.6919441  10.8282499  36.3974571  53.5365753   9.8908892
  21.9250641  55.4750061  62.1366348  22.5240097  55.8828621  61.5112152
  21.9370556  54.5454674  61.9085083   4.3275008   1.9283065  64.3580704
   4.3997121   1.0099225  64.0980911   3.4003167   2.0466394  64.5643616
  47.6933441  51.8925018  17.7701950  46.7589874  51.7406693  17.6282387
  47.8362083  51.6644554  18.6887894  77.9513016  34.0293541  58.5796013
  78.3343735  33.4693375  59.2547798  77.5028229  33.4222450  57.9909401
   1.6249526  13.8807058  58.6678200   1.7604363  13.0379581  59.1010094
   2.0804052  13.7954397  57.8302498  54.9560280  55.9195595  56.6810684
  54.4957619  56.5757523  56.1578102  55.8799667  56.0462723  56.4654007
   6.6295023  43.8445702  12.2058945   6.7729263  44.5462189  11.5707979
   6.8663425  43.0446320  11.7365990  65.7983704  22.9331913  41.9766769
  66.1319275  22.0965080  41.6527405  65.8122101  23.5087795  41.2119942
  64.5872650  63.6156654  78.1494675  65.3732376  63.8841743  78.6252747
  64.3946762  64.3526764  77.5698547   6.2929602   8.3443727  29.6079273
   6.1480303   8.1323967  30.5300407   7.2376866   8.4823675  29.5395088
  34.1266632  49.2453384  83.2108536  33.2494888  49.5343666  83.4623566
  34.3742447  48.6149292  83.8872528  41.2360382  44.0192528   3.6026096
  40.8631477  44.8832741   3.4275212  41.3293533  43.6190033   2.7381310
  50.6605797  -0.1551362   5.5863609  51.0875053   0.5867156   6.0148749
  49.7956009   0.1744251   5.3425732  72.5633163  46.1602821  71.3798523
  72.1285477  46.6114197  70.6561966  73.4824066  46.4168282  71.3044052
  30.2582607  37.1324463  15.0740948  30.5844517  37.5295410  15.8816509
  31.0479012  36.8884697  14.5912142  85.8582916  34.9582481  39.5765228
  86.2117386  34.2731361  39.0091362  86.2704697  35.7638702  39.2645721
  40.2249489  65.9804077  83.0994110  40.8062210  66.6326904  82.7084198
  40.2351799  65.2494354  82.4814987  81.5899124  52.9235229   0.8869511
  81.6642532  52.0181198   1.1885288  81.2382965  52.8522797  -0.0004725
  29.0667667  20.3822632   9.2478752  28.5214043  20.6668148   8.5144978
  29.5608501  19.6379223   8.9042635  56.3272896  59.7839508  18.0806732
  56.1752777  59.2252693  17.3184433  57.2795715  59.8067245  18.1748486
  72.8794632   5.0003586  43.8194313  73.0308838   5.9449849  43.8507919
  72.6114655   4.7710757  44.7092857  40.7487450  69.1287918  46.3933754
  41.4645844  69.0166702  45.7678909  40.7295494  68.3077850  46.8851166
   1.1911207  71.2551270  47.8439369   0.6709946  70.9901810  47.0853157
   2.0978234  71.2088394  47.5406532  64.0462799  60.8223686  21.8449440
  64.2605896  61.0261421  20.9345703  64.2347565  59.8879509  21.9319859
  69.4177094  32.3762512  67.3738022  70.1995926  31.9135323  67.6750946
  68.7295532  31.7109203  67.3769150  39.1618195  53.7270088  29.7908840
  39.0104675  53.0017586  30.3969688  39.2940826  54.4879951  30.3562508
  13.1830053  30.8432465  76.9388199  12.4496021  30.4710426  77.4285355
  13.3990526  31.6496315  77.4071198  41.4397583   1.7286688  60.8877144
  40.6646538   1.2130135  60.6651306  42.0844078   1.4921150  60.2208595
  54.7568550  43.1602440  20.8172874  54.2698364  43.2616615  21.6350651
  54.3369331  42.4203339  20.3786221  43.0576630  15.3882532  45.2686729
  42.9238777  15.9560947  44.5097961  42.4110527  14.6904821  45.1626549
  57.8533478   6.7049332  25.9905186  57.6519661   6.1428709  26.7386913
  57.4542999   7.5470300  26.2093029  39.9692764  29.4598045  12.2070065
  40.3849869  29.1394882  13.0075159  40.0211449  28.7225895  11.5986862
  85.8008575  30.1935501   8.5802994  86.5120087  30.2955723   9.2128239
  85.4733887  31.0823975   8.4426517  20.0425510  35.3505745  61.3804932
  19.4059219  35.8045273  60.8283539  19.7442970  34.4410973  61.3918648
  80.6753159  24.9757481  75.3289108  80.9473495  24.0580235  75.3256302
  79.7257080  24.9444923  75.2127228  58.0980568   7.1979117  82.7285080
  57.8067207   7.8535023  83.3621979  58.6605110   7.6823106  82.1241684
  68.8078766   8.3466597  56.6528473  68.8088226   9.2829647  56.4539452
  68.7797928   7.9199119  55.7965012  60.2961235  41.3654633  84.5156784
  59.7961082  41.3098068  83.7013626  61.2114067  41.3601685  84.2355652
  61.9553680  16.5218582   7.3827405  62.7580643  16.0075607   7.4688139
  62.0800743  17.2617397   7.9770932  20.7090626  69.2127609  24.1831799
  20.0233364  69.1173172  24.8441658  20.3481102  69.8350296  23.5517273
  61.6380005  57.5415573   0.2059454  60.9560585  57.8308907  -0.4002518
  62.1452522  58.3319817   0.3907644  66.0549011  21.8739643  19.5840607
  66.7425842  21.2622681  19.3211021  65.8567352  21.6365585  20.4899311
  17.8473473  52.7230339  67.8498383  18.3751736  51.9961319  68.1803589
  18.2841606  53.5069923  68.1827621  34.1618729  68.4412842  56.7412109
  33.6828957  67.6630173  56.4564133  34.9957008  68.3938293  56.2735405
  47.0398254  22.4835720  74.4635544  47.8821487  22.1438408  74.7657318
  47.0938377  22.4430714  73.5087433  65.0117569  49.2245407  36.2644119
  64.3412170  49.3962631  35.6032639  65.5644150  50.0060081  36.2536392
  15.8738718   9.8522787  56.3377800  16.7494164   9.7076921  56.6965904
  15.3049469   9.8994961  57.1061058  86.7146683   4.2785163  64.7734985
  87.3561478   4.4989533  65.4488831  85.9173813   4.0686202  65.2598190
  56.2558250  15.6633081  73.5590973  55.2998009  15.6784515  73.5141373
  56.5329552  16.3991127  73.0131836  58.7859268  11.0671272  81.0331650
  59.3598747  10.3010931  81.0358353  57.9049568  10.7067003  81.1342468
   3.8027508  57.2770920   8.0610132   2.9449215  57.6117859   8.3224335
   4.3087111  58.0596733   7.8423696  71.7729797   2.3588777  45.1487541
  71.0809402   2.6374862  45.7485046  71.4175339   1.5818666  44.7173119
  56.0822334  10.8921194   7.3097878  55.6010208  10.1215363   7.0083466
  56.4527740  10.6287260   8.1521397   6.4445200  18.7374020  34.7644997
   6.9847918  18.7002449  35.5537758   5.8447504  17.9962864  34.8496895
   5.4369764  38.8275452  85.7302246   4.5534849  38.6241150  86.0372925
   5.3018599  39.3119659  84.9157867  68.7429886  33.5363083  88.9900131
  68.7924805  33.0515709  88.1661148  69.6464615  33.5665627  89.3047485
  77.3849335  51.3681297   6.4712310  77.1895828  50.5028458   6.8308849
  76.9007950  51.9750900   7.0310888  71.4244385  17.9203033  39.5631218
  71.1065369  18.7002907  39.1083794  70.6839523  17.3140182  39.5450211
  66.9774323  64.9320755  63.6478233  66.8054428  65.7250214  64.1556473
  67.6324539  64.4573364  64.1594925  58.4148865  61.7047997  43.5366592
  58.7451630  61.8516235  44.4229965  59.1721458  61.3798027  43.0496597
  44.7117081  30.2904243  25.1275101  45.0864410  29.5232105  24.6948528
  44.7431717  30.9790974  24.4634533  25.4897900  47.0438728  31.5134010
  25.7334137  47.0411072  30.5877285  25.1275444  47.9171371  31.6631222
  65.5103760  20.0864925   3.7973316  64.8997116  20.6212177   3.2899995
  65.1100540  20.0233078   4.6644983  84.0216827  50.8038902  49.6353874
  83.2565994  51.3668289  49.7535782  84.6100693  51.0461731  50.3504639
   5.0620942  66.3895493  18.0932331   5.7040787  67.0847549  17.9491100
   5.5521474  65.5788193  17.9561348  77.5789490  51.5842056  70.1752396
  77.8711624  52.3005333  69.6115723  76.8279190  51.9426727  70.6481857
  74.3783264  20.3619652  13.6602116  74.1735153  19.5236683  13.2460337
  73.5277863  20.7848949  13.7783203   8.3008728   1.6886969  40.7960625
   8.2698641   0.7354806  40.8776054   7.9193392   1.8681084  39.9367142
  83.6497345   9.4951439  25.8392391  83.1153488   9.4419308  25.0468807
  84.2273941   8.7334814  25.7901440  67.5050354  42.5476913  80.9808426
  67.7995987  43.0805550  81.7194366  66.5927963  42.3405609  81.1836929
   5.5277338  11.8915606  52.4026947   5.0569668  11.1720982  51.9819984
   6.3007398  11.4790564  52.7880936  18.7720242  69.9119797  65.5141830
  18.5067749  70.4261627  66.2767410  18.4391079  70.4057541  64.7647934
  73.0058746  46.4052429  67.6199036  72.5259476  46.6954765  68.3955765
  73.0838470  47.1908493  67.0786362   7.6416869  48.6478195  54.9087982
   8.4368773  48.2923393  55.3057098   7.9030018  48.8833313  54.0185852
  15.8749065  67.0167160  33.5468788  15.8644953  67.8734970  33.9735565
  16.2311020  66.4239044  34.2086372  29.1753445  46.0559616  85.5016174
  29.0115242  46.1260529  84.5611496  28.9703350  46.9252625  85.8458862
  18.8074512  66.8145599  59.1954994  18.9119282  66.4280472  60.0649376
  17.8706970  66.7425537  59.0123672  69.6681366  15.3324461  32.6707268
  69.7925644  16.0883694  32.0968552  70.5189285  15.2085457  33.0914841
  17.5437565  52.6034584  31.8517399  18.1834488  52.3743324  31.1775551
  17.7659187  52.0410385  32.5937347  17.7933598  60.0123596  27.4832783
  18.5596313  60.5312767  27.7277927  17.4821358  59.6411247  28.3088417
  72.6892395  59.4520683  11.0398388  71.8120728  59.4734879  11.4223976
  73.2210159  58.9872246  11.6858807  72.0688095  27.3699684  15.6252117
  72.3151321  28.1389236  16.1392784  72.8376007  26.8008995  15.6620893
  40.8586044   8.5819263  48.1414032  41.0657196   8.5141220  49.0734634
  39.9531479   8.2787552  48.0745773  31.7057667  66.3790054  10.7473879
  32.0949783  65.5616455  11.0583086  32.3195610  67.0581665  11.0270834
  61.2817879  57.4497261  39.2026863  60.8284264  56.7211418  39.6267853
  62.0942039  57.0664291  38.8720894  39.7418022  32.4517365  82.5946732
  40.3665962  32.7176552  81.9200287  39.0092773  32.0745850  82.1074448
  61.2397308  32.6766167  65.3768692  61.6751480  32.3371468  66.1587906
  61.8421097  33.3373413  65.0350876   6.7604332  50.5516777  62.6383705
   6.6503487  51.0052299  63.4740791   6.2368622  51.0601997  62.0190887
  62.5671959  64.9472885  74.7864609  62.1506615  64.5221863  75.5361404
  63.1199913  65.6264725  75.1729279  12.6566610  69.2093430  64.1301193
  12.2797079  68.3594894  64.3579102  12.9623489  69.5669556  64.9637222
  67.9628983  47.8359184  79.0432968  67.9237213  46.9187737  79.3144913
  68.1277924  47.8002434  78.1010818   0.6647294  29.9854336  75.4760590
   0.2227243  29.3297558  74.9366608   0.1278613  30.0470448  76.2661285
  47.1584129  39.2446175  61.3605652  46.8863945  39.4244728  60.4606285
  48.0424652  39.6066971  61.4204597  41.3974609  47.9512634  82.3862305
  41.1895027  48.5810509  81.6960526  41.0571022  48.3516273  83.1862869
  43.4817619   7.6688638  74.0243607  44.3137703   7.7120681  74.4956665
  43.7297249   7.4970422  73.1159439  75.0968170   7.6048956  34.7009277
  75.5129395   8.4116154  35.0046921  75.5057220   7.4288526  33.8535576
  75.5326462   1.8526927   6.9498692  76.3878937   2.2760949   6.8756099
  75.1210938   2.2747869   7.7039886  55.4007645  48.1253891  58.5690155
  56.2577019  47.7460175  58.3741493  55.5962372  48.9016953  59.0937729
  33.9920235  60.9848518  50.9472961  34.5790138  61.6410294  50.5716591
  33.1672401  61.4511681  51.0833626   5.6196785  11.4114828  84.7207718
   5.8123298  11.0704231  85.5941544   5.5353646  10.6315441  84.1723022
  45.6695976  45.3600235  72.0176544  45.0249596  45.8124733  72.5616837
  46.5143661  45.5962029  72.4008179  67.4719849  33.0626068  28.5191479
  67.3665314  33.2791138  27.5927372  67.2427063  32.1350098  28.5759335
  24.5271740  54.0985031  57.1026001  24.9123592  53.9008369  56.2489052
  23.9530735  54.8467216  56.9388733  48.4201546  57.1990852  30.3027821
  48.8429718  56.6137390  30.9311352  48.5788498  58.0771980  30.6491470
  63.1430473  39.7851028  76.7015839  62.4096489  39.1857529  76.8399200
  62.8880119  40.5855713  77.1603165  57.8184433  33.8144608  74.6684647
  58.0732689  34.7365189  74.6351776  56.9553528  33.7894363  74.2553253
   6.7655458  31.1656761  58.4124641   7.5100427  31.0069828  57.8321419
   6.7985110  32.1051331  58.5929146  85.3590469  15.4183264  73.5466156
  84.4980316  15.4478827  73.9637527  85.6677094  16.3240948  73.5699539
   5.7892838  24.0635281  13.3516026   5.4817700  23.1622219  13.4481096
   6.5206995  24.0025520  12.7371559  68.3372803  20.0100288  33.9561424
  69.2373047  20.3248158  34.0404472  67.8823013  20.7085667  33.4857521
  80.0268936  17.3335629  75.3991394  79.0795822  17.3007832  75.5323715
  80.1873093  18.2032833  75.0329666  10.8136606  33.4688530   4.5477505
  10.5914297  33.9202271   5.3620639  11.0278807  34.1721725   3.9348223
   3.7255991   2.0276437  84.9908829   4.4392014   1.6621879  85.5138016
   4.1077824   2.7969296  84.5685501  55.8566818  69.2710876  26.6722813
  56.1153603  68.6672287  27.3684635  54.9656563  69.0060272  26.4441414
  61.2684631  46.5541840  28.7937603  61.9813309  46.2078819  28.2569828
  61.0455284  47.3906021  28.3851814  14.0307426  48.0242500   1.0955530
  13.3050089  47.7128639   1.6364620  14.1870794  48.9192886   1.3967128
  15.0600290  16.6716194  45.7022095  15.3135138  16.7968330  46.6167030
  15.3712912  17.4599113  45.2573051  24.9455814  13.5557337  89.4333115
  25.0046635  14.2065878  88.7339325  24.5774479  12.7807913  89.0088425
  80.1865005  26.8597736  60.7758255  79.6888351  27.6693001  60.6607780
  80.2854004  26.5114460  59.8897552  12.3048878   5.1875644  51.5743065
  12.0218668   4.6368051  52.3042374  13.2055140   5.4285026  51.7912254
  82.2960663  11.3340435  87.1192703  82.1950531  12.1565762  86.6402435
  83.2205505  11.1085548  87.0157394  11.4444504  54.8786621  17.9054718
  12.1237097  54.2445412  18.1350994  11.4129992  55.4768677  18.6520596
   6.5861058  67.8783188   9.7174788   6.4519029  67.5906677   8.8144407
   5.7149863  68.1367035  10.0185099  68.6125793  60.7697105  73.2302094
  69.5295868  60.8699646  72.9747238  68.2097473  60.3024673  72.4983368
  45.6449203   5.3326554   6.2118626  45.6955261   5.7839942   5.3692684
  45.4516258   6.0254564   6.8434448  55.5981026  55.8567085  18.6321049
  56.4518394  56.2893944  18.6198711  55.2041740  56.0802803  17.7888565
  34.5283089  26.7611542  88.5283890  34.9080162  25.9895020  88.1081467
  34.2464066  27.3157272  87.8009262  60.7836456  15.5465565  36.4618454
  61.2095680  16.1657104  35.8689957  59.9562836  15.9680433  36.6943436
  67.3753586  42.1564064  55.9580994  66.8057632  42.4261742  55.2376709
  66.8954697  41.4506111  56.3914528  42.4488831  69.0314484  78.6927643
  42.5787621  68.3029938  78.0855484  41.6787758  68.7827530  79.2039566
  35.5028648  62.9259415   6.8566551  35.3028870  61.9898643   6.8575263
  35.3456726  63.2052803   7.7585936  36.3407135  19.5452709  77.4188995
  37.2679100  19.6099377  77.1900864  35.9925346  20.4222279  77.2578049
  31.1197720  62.5236359  12.4283247  30.3982868  63.1499100  12.4872255
  30.7189713  61.6772194  12.6262398  57.3140640  51.4063911  13.6067362
  57.4729767  50.4723244  13.7427559  56.4038925  51.4543991  13.3143091
  27.4979305  57.6150284   7.7999825  27.4647160  57.3035126   6.8955021
  26.7121601  57.2509460   8.2077074  57.1409149  71.6427460  83.9728012
  56.6934128  71.6118851  83.1272125  56.5667496  71.1576920  84.5654907
  15.8656607  44.9545288  68.3304672  16.1218700  44.0499992  68.5105209
  16.2253189  45.1370659  67.4623947  31.8000031  47.9300156   7.4012260
  32.2123222  48.1401367   8.2391233  30.9019318  47.6902046   7.6296821
   3.8079355  33.0686607  30.1678772   3.2941725  32.4269600  30.6582832
   4.4487109  32.5451469  29.6866570  22.4591560  15.1572895  31.0767937
  23.3256092  14.8928242  30.7676830  21.8720551  14.9506788  30.3495674
   3.2790232  60.5401039  80.9420090   2.9981167  60.1555214  80.1116943
   2.5338640  61.0702744  81.2246552  77.1493225   4.7395883   6.4374728
  76.4964905   4.9866266   5.7824793  77.7777481   4.2000742   5.9576507
  62.9506226  15.3797445  62.7695389  63.7744141  15.0432129  63.1221657
  63.2056503  16.1444778  62.2534256  63.7072678   1.7624243  13.5484228
  62.8629265   2.0022569  13.9302635  64.3517914   2.0373588  14.2005224
  55.7748222  16.3999615  59.6011543  56.4589767  16.2750607  60.2588501
  55.9065514  17.2938976  59.2853127  30.3079433  70.8396072  63.5925789
  31.1178818  70.6847610  63.1065140  30.5705433  71.3988876  64.3236542
  11.6503811  20.9204178   2.3621283  11.7970362  20.0748119   2.7860100
  10.7378664  21.1319962   2.5590639  39.0707397   0.7231845  84.8927917
  39.4193535   0.8012039  85.7808304  39.6258125   1.2983533  84.3661880
  64.9149246  16.4476357  51.1744919  65.4929047  16.7802048  50.4877853
  65.3632507  16.6661167  51.9915009   5.6481042  19.3040066  86.5026855
   5.6818585  19.6983528  87.3742294   4.7482562  19.4474831  86.2095642
  45.0047264   4.6799717  72.9870682  45.0857811   4.3609633  72.0882339
  44.1958961   4.2829051  73.3101196  26.2341499  67.4392090  41.6282806
  26.5212593  67.8941498  40.8365555  26.8909035  67.6663589  42.2865410
   3.4750371  55.8256073  51.6134834   3.5652466  55.4151039  52.4734726
   2.8684511  55.2570343  51.1391296  11.8434200  15.4578676  47.5184975
  12.2233839  16.0868263  46.9050865  11.0914536  15.9149532  47.8951263
  64.5509338  14.9585409   7.2054591  64.3757172  14.4006863   6.4476128
  64.9788513  14.3789454   7.8356843  12.7611122  21.9698734  33.7124176
  12.6842976  22.4853134  32.9095154  11.9348841  21.4898815  33.7688637
  61.9568634  12.0092564   9.3442802  62.0082283  11.4551468  10.1230984
  61.6384659  11.4256039   8.6556549  46.1472588   4.7748876  55.1898994
  47.0565147   4.6689167  54.9101601  46.0522766   4.1735229  55.9285278
  55.4601898  35.2857056  30.0352859  55.1060028  34.8021927  29.2889633
  55.8021202  36.0951958  29.6557636  36.5782318  34.9465446  17.5331573
  35.8711662  35.5627785  17.3419971  36.7634468  35.0755806  18.4633598
  66.8367844  41.2869377  63.7295494  67.0816574  40.4652557  64.1551132
  67.5683823  41.8773003  63.9097328  43.2927437   2.1810410  36.0106659
  43.7120171   2.5124991  36.8047523  42.6306381   2.8384941  35.7971191
  31.1593304  16.3533173  82.4693069  31.9867058  16.1512928  82.9061966
  31.0748463  15.6807117  81.7935181  17.3987732  46.3728333  77.7181320
  17.4034328  47.3074722  77.9246674  17.0990829  46.3296928  76.8100815
  26.6536827  42.6196404  16.9651165  26.0253048  43.1606369  17.4433346
  27.1508198  43.2422523  16.4346046  39.4758797  11.6205893  38.1510468
  39.8822632  11.2419205  38.9305954  40.0807648  11.4104834  37.4395676
  47.9480400  13.3336573  61.0429115  48.2292786  12.4192915  61.0101700
  48.6376534  13.8129444  60.5836182  14.6422987  66.8443069   3.2874792
  14.0635700  67.5275726   3.6257882  14.9550838  67.1880417   2.4506705
  16.7602825  53.9807243   7.4062176  16.1115494  54.5047379   6.9363379
  17.6024933  54.3579521   7.1520257  70.1654587  27.9005089  56.1640816
  69.7927628  27.0821266  56.4920769  69.4874039  28.2602291  55.5921822
  36.2164955  26.4610653  25.4741745  35.7148056  25.8575001  24.9262257
  35.9062004  27.3300285  25.2195072  18.7885628  53.8842278  10.1512222
  18.5706120  54.4826279  10.8658180  18.2485847  54.1797752   9.4182110
  74.8470001  43.9524994  83.1090851  74.6991043  44.3446693  83.9696503
  75.6344833  44.3861465  82.7803879  13.0030966  63.9145660  73.6048050
  13.1904469  63.4393425  74.4143143  13.4561825  63.4165878  72.9243927
  16.5197811  60.6281548  84.2367020  16.7615013  61.2170982  84.9515076
  17.1631832  59.9208450  84.2811661  68.6425858  18.8421288  84.8635406
  67.9378738  19.4614773  84.6737366  69.1882553  18.8518486  84.0771713
  25.0598488  67.0036850  29.9891338  25.2152653  67.8250275  29.5227852
  25.8003616  66.4473114  29.7476368  78.8010025  56.6856003  54.3558502
  78.2854233  56.4244766  53.5928192  79.6681442  56.3121948  54.1981659
  72.8115158  56.9082108  75.3944168  72.4225769  56.5529480  74.5951920
  72.0624619  57.1770859  75.9262695  58.6487656  29.7037792  11.7764502
  58.1900215  29.7317524  12.6160965  58.1063805  29.1390400  11.2258873
  75.3168259  16.8364830  19.5024548  75.0107651  17.5199184  20.0986710
  76.2011337  16.6318970  19.8063946  48.9794044   4.5836105  33.1957664
  48.0676727   4.3268118  33.0578003  49.4698639   3.7632952  33.1432076
  22.3138714  71.0548248  85.6643829  22.5294418  71.2954865  86.5654068
  21.3692760  70.9005280  85.6771469   6.2672987  43.0337715  50.7275658
   6.4505157  42.4121094  51.4319801   5.3300781  43.2127533  50.8038254
  21.3680000  64.2125092  55.4763298  21.6353016  65.0986862  55.7201920
  22.0714397  63.6516685  55.8032227  60.5939407  26.6661816  40.0367088
  61.4200630  26.1902180  40.1216469  60.5434113  26.8945122  39.1085129
  49.8759880  57.3629227   4.7479053  49.0815468  56.9176178   4.4532909
  50.2190819  56.8042526   5.4453306  10.8680830  54.1741982  58.3044014
  11.5011902  53.4787483  58.4826012  10.0146427  53.7574234  58.4234390
  15.9109726  35.4551964  79.5074158  15.9235268  35.2386398  78.5751190
  16.5621090  34.8720589  79.8975449  29.8258705  57.6447372  16.9667091
  29.9932137  58.0794334  17.8029289  29.1704998  58.1948929  16.5377045
  21.8193054  40.1271248  55.4135780  21.5700302  40.3453560  56.3116150
  21.4547997  40.8367767  54.8846550  55.4913673  29.5983562  66.6873703
  55.7070770  30.5304031  66.6559448  55.5550880  29.3688869  67.6144714
  84.4384995  15.6168041  13.7813625  85.3206711  15.7771406  13.4462624
  84.5255966  14.8288374  14.3177891  24.1202812  11.4922886  87.7211533
  24.4797726  10.8931122  87.0669479  23.8002186  12.2376747  87.2130280
  67.8321609  44.7763596  57.1730576  67.4757004  43.9539108  56.8372803
  67.6509705  44.7500687  58.1125832  20.2848034  49.7556686  28.7308064
  20.6460056  50.4456863  29.2872562  19.3363686  49.8671265  28.7962360
  12.0057850  46.6426201  18.1363945  11.9586926  45.7091904  18.3430805
  11.1001892  46.9469948  18.1954346  45.6702614  61.4698830  34.6338615
  46.2781334  61.0712013  35.2565804  44.8041840  61.1961784  34.9358978
  77.2086029  14.1667309  50.7332191  77.5686035  14.6988592  51.4427795
  77.4093781  13.2651548  50.9843826  60.4647942  10.6831970  37.8889389
  59.9307671  11.1468897  37.2439270  60.2601089  11.1101980  38.7208061
  79.5439835  70.2090378  89.1732941  79.9583588  71.0520706  89.3572159
  78.7038193  70.4368973  88.7752457  54.5476761  44.6896858  35.7927818
  54.2088661  44.6908112  36.6880112  55.2603989  45.3285065  35.8056259
  62.5943909  61.8869095   3.4910235  62.1823120  62.6959457   3.7941458
  61.9159889  61.4513245   2.9750149  21.5942097  62.6348267   6.0137420
  21.2292290  61.7692604   6.1976357  21.8683472  62.5894928   5.0977588
  63.5537109  10.0509558  55.9783096  63.3435364  10.9010592  56.3648109
  62.8944664   9.9288855  55.2951355  63.2762604  56.4714699  61.4396248
  62.7723961  57.2536697  61.2148552  64.1789932  56.6946754  61.2127151
  84.8113708  64.1684723  78.2426453  84.5026703  63.4524536  78.7978516
  84.6312408  63.8740349  77.3498459  74.0953217  63.7298088  74.5024948
  73.4285965  64.0567627  73.8984985  73.6139145  63.1667786  75.1086960
  28.7910843  50.8052635  86.5456390  29.6135979  50.5710754  86.9755936
  28.3321362  51.3485298  87.1863098  13.3024435  35.0225639  80.1417618
  14.2057581  35.0325317  79.8252945  13.3828888  35.0139961  81.0955353
  84.0206604  39.6905327  74.9210129  83.5227890  39.9345627  74.1407547
  83.3715134  39.3022957  75.5076294  16.7822285  51.7534294   0.7203460
  16.8483067  50.9228897   0.2491019  17.2751503  51.6102638   1.5282836
  76.0564194   2.6181269  88.5579224  75.7312698   3.5161784  88.4945679
  75.3843918   2.0891943  88.1279984  73.1095200  26.5795593  84.7789688
  73.8746719  26.0274105  84.6180267  72.6641541  26.6242332  83.9328690
  82.9365158  68.5839005  44.9391747  82.0835495  68.7084808  45.3553047
  82.7327499  68.2057724  44.0837669  14.5059395  67.0714493  85.4128036
  14.8429127  66.2736969  85.0050507  14.1086035  67.5596008  84.6916504
  40.1163445  22.7724438  13.8471966  39.1785164  22.5825653  13.8728971
  40.5364075  21.9163685  13.9303360  19.7390423  63.8590889  28.9686337
  20.4127121  64.0658264  29.6164436  20.0852737  64.2026596  28.1450348
  73.4104004   0.0249678  77.5298615  73.9079208   0.7854683  77.2292862
  73.9800797  -0.7219118  77.3458328  48.4432755  68.4511642  71.6117783
  48.0245972  68.7194977  70.7938919  48.8183784  69.2579651  71.9647675
  74.6185760  65.8335342  41.6890297  74.3868866  66.2737427  42.5068130
  74.1526947  64.9981842  41.7263603  54.6339569   3.5739775  59.4591331
  55.5101662   3.4890139  59.8349953  54.2096481   4.2475872  59.9905891
  32.7439308   4.4133348  63.6875343  32.3156815   4.4987044  62.8357430
  33.6613693   4.6263633  63.5167847  67.5958481  29.2287369  46.8872681
  66.7912216  29.5107441  47.3223305  68.2928543  29.4537373  47.5035400
  19.2137833  37.4274101   3.5294857  18.5636864  38.1291924   3.5627823
  19.5856647  37.4869728   2.6494927  77.2873764  19.7992897   5.6913075
  77.7591019  19.2164268   5.0963464  77.7515640  19.7178612   6.5244541
  48.4043541  10.5433731  22.1573944  48.9967957  10.3149681  22.8736877
  48.8760185  11.2117329  21.6603413  11.7608757  35.4313774   2.8266051
  11.1428013  35.4787560   2.0972419  11.9172106  36.3444138   3.0677638
  24.2952538   7.5364227  78.0539017  23.8224678   7.4805374  77.2234955
  23.6152954   7.7071557  78.7056274  84.9687653  20.8881016  38.5685997
  84.5582199  21.5312309  39.1465836  85.8069000  20.6908493  38.9867592
  33.7779541  65.1764679  45.9132538  33.0388718  65.7783127  45.8251076
  33.5751076  64.4585953  45.3134575  79.5408783  35.3099823  86.4108124
  78.7954941  34.7118034  86.4638824  79.8725052  35.3595505  87.3073578
  78.9710007  67.4266968   1.4516289  78.7183380  66.9215012   0.6788578
  78.8477325  68.3396606   1.1917679  60.9642677  23.7353573  62.6710739
  60.8803673  24.5674801  63.1366539  60.2584648  23.7503548  62.0246620
  28.5332088  36.9702263   0.5357466  27.6735725  37.0244217   0.9532612
  28.3410530  36.8886604  -0.3984134  53.4513893  19.6291332  60.6826782
  54.1737671  19.7444382  60.0653381  53.8783989  19.4448318  61.5192909
  16.8323040  25.7796154  13.7191267  16.9951553  26.2569523  12.9055777
  17.6183319  25.2484493  13.8466187  17.1746216  17.8412266  68.2431030
  16.4922619  17.8659821  67.5722809  17.9904709  17.7466640  67.7514954
   0.5889261  65.1774750  34.1673546   1.2797207  65.7186737  34.5496368
   0.8821135  64.2777634  34.3115616  12.1232376   0.3544870  25.9479408
  13.0398417   0.3462775  25.6722565  11.9446754  -0.5478626  26.2127285
  55.1065445   4.7804461  54.7874527  54.3211555   4.7242546  54.2431793
  55.8250732   4.8747149  54.1621056  37.2869301  57.4607391  19.1785946
  37.0435524  58.3663445  18.9865513  37.0281754  56.9723206  18.3971062
  68.5017319  49.4470482  55.1225052  68.5766602  49.9615974  55.9261589
  67.5972214  49.5777512  54.8378792  11.4178276  31.1472549   2.6126504
  12.0551395  31.3734856   1.9352393  11.4903088  31.8531780   3.2550294
  17.3875484  18.5655270  22.1520348  18.3024807  18.4920120  21.8805065
  17.4043999  18.4074726  23.0959435   4.2519803  44.3542099  71.7007599
   4.9818692  44.4650269  72.3100357   3.6752663  43.7224236  72.1302719
  10.9175920  29.7575798  44.8506660  11.2779474  30.4382820  44.2823181
  11.6657896  29.4538364  45.3646431  51.8819199  62.3936729  12.9439678
  51.3191414  63.0767632  13.3085165  51.4633560  61.5735664  13.2056293
  11.5897589  52.9992447  21.6646519  10.7563467  53.1649094  21.2239571
  11.5770512  53.5784302  22.4266338   3.6066971  43.5153503  79.6515961
   3.6867306  43.4526749  80.6033783   4.2280884  44.1998749  79.4035492
  85.0920715  34.3551407  68.9925079  85.1592255  35.0969048  69.5937653
  84.8253784  33.6213455  69.5462723  79.7541962  35.3613129  26.9368076
  79.4694901  35.2406197  26.0309334  79.8182297  34.4732056  27.2880859
  60.7541237  18.1407337  29.4529324  60.0687256  18.5140228  28.8987484
  60.7411308  18.6783257  30.2448025  29.0963802  41.5909462  87.3183899
  28.5375137  42.3446693  87.1291809  28.7686634  41.2530022  88.1518326
  45.5881538  63.7880287   1.1786368  44.7192497  63.6901169   0.7892186
  46.0198326  64.4494247   0.6378612  23.3499565  34.3833046  23.0284901
  23.6377010  35.1320839  23.5507565  23.3779526  33.6433220  23.6350155
  38.2091370  22.0773754  53.6761932  38.3754349  22.8485661  54.2182655
  39.0310555  21.9322624  53.2075577  73.9728622   0.9222524   1.4310664
  73.7506561   1.0881852   2.3472104  73.1300507   0.7679914   1.0043354
   8.0820446  54.9357262  36.2210274   8.4714298  55.5710640  36.8218269
   8.3472319  54.0840416  36.5682106  86.6045380  18.3006668  53.4552460
  86.2767487  19.1834717  53.6268311  85.9059601  17.8788128  52.9549904
  27.6261120  66.6031265  82.3920135  27.8716679  67.5280457  82.4135971
  28.0117130  66.2718124  81.5809784  50.2224884  45.7079773  30.0085087
  50.7927094  46.2014275  30.5980740  49.8622932  46.3677025  29.4158440
  70.6242065  57.4164162  78.1683426  70.8599625  57.1029892  79.0415115
  69.7216110  57.1229439  78.0441437  72.0581207  23.0322475  67.7401123
  71.9611359  23.3684368  68.6310654  71.6268311  23.6855812  67.1893158
   3.1515923  59.4912491  78.4050674   3.8137596  58.8018112  78.3556366
   3.6216037  60.2919044  78.1721039  22.9045372  62.3105545  72.2690735
  23.0705967  61.8403168  73.0861053  23.7674160  62.3998413  71.8644791
  33.3516197  59.9326477  27.6564541  34.0894089  59.6449089  28.1941414
  33.7574043  60.3514595  26.8973961   7.8857446  63.4583511  43.8436394
   7.3975663  62.7248764  43.4695702   7.4812460  64.2361221  43.4593506
  65.0113068  33.4893341  27.1682911  65.6172638  33.5872421  26.4338074
  65.4137192  33.9885674  27.8789692  44.5312881   9.1474018  68.5662537
  44.0899734   9.3359947  69.3944473  43.8230057   8.9205732  67.9636612
  13.1650314  53.7061958  62.4408875  12.5900316  54.4714470  62.4402428
  12.9748869  53.2644310  63.2684860   7.5261536  26.7126770  36.2866058
   7.7312121  26.4801750  37.1922150   8.3476725  26.5804329  35.8134766
  15.9357042  70.2737732  19.7381287  15.2618074  69.6047440  19.6177235
  16.6603203  69.8108673  20.1587029  61.0785446  67.7833633  87.1842041
  60.7100296  66.9054413  87.0858459  60.4356232  68.2550507  87.7137299
   2.3211286  49.1759109  44.6185608   2.8237550  48.3936806  44.3911438
   2.4490025  49.2769432  45.5617828  63.2084923  56.0245361  70.1632614
  63.7881432  56.5864143  70.6775894  62.5697250  55.6962395  70.7960587
  87.0872650  17.4695339  56.3385086  86.3170242  17.2573166  56.8656960
  86.7449722  17.5927639  55.4531364  61.4608727  23.9387569  35.8476639
  62.2254829  24.3300781  36.2701225  60.7253113  24.1843414  36.4087982
  53.3605881   1.4857545  57.8648491  53.7061043   2.2980063  58.2351189
  52.4192429   1.6400659  57.7855835  24.2583961  43.3136978  27.3311100
  24.5900116  42.9495049  28.1518593  24.5683994  44.2193031  27.3283691
  59.3921242   8.3455248  32.2158394  60.0578194   7.8236461  31.7678185
  59.8717880   9.0963993  32.5656128  59.5606270  16.5316162  71.3001633
  58.6471634  16.5226879  71.5860443  59.9543991  17.2607975  71.7791901
  70.3165741  58.8760490  54.2953072  70.5274353  59.7759399  54.0463791
  69.5200806  58.6723137  53.8050804  12.3087330  31.7874546  81.0310669
  11.9462519  31.5452194  80.1789169  11.7417431  32.4938698  81.3404770
  75.3927231  25.3097439  42.9768753  75.6147232  25.4004993  42.0502090
  75.8288345  26.0486965  43.4011269  41.2619019  38.7556458  73.8955078
  40.9010353  38.2478256  74.6222305  42.0450134  38.2727051  73.6314392
  86.2227783   3.7481873  80.0068359  87.0648346   3.2974124  80.0699081
  86.0105362   3.9865837  80.9092484   8.5594492  20.5829964   3.0520244
   8.4529009  20.8167706   3.9741032   8.0627747  19.7708874   2.9518909
  58.1574097  26.6611691  17.5142155  57.8090782  27.5527363  17.5115032
  58.1521606  26.3991737  16.5935822  80.7242737  36.0767174  72.6225739
  80.2696457  35.3431129  72.2086029  81.2070847  36.4929543  71.9085236
  37.7141113  63.1430817  59.2567444  38.6530151  63.1261024  59.0712624
  37.6047668  63.8673325  59.8729744  16.7361374   9.8771610  80.4092407
  16.5618572  10.0675459  81.3309860  16.9981003  10.7188530  80.0362015
   7.3906741   1.9072908  84.0878601   8.1565132   2.4778907  84.0235291
   7.1616726   1.9176359  85.0172043  26.5194283  33.8540497  88.7794571
  25.7524529  34.4255676  88.8161926  26.1720123  32.9764442  88.9386444
   8.5124540   3.8232594  26.6744823   9.4293032   3.5695000  26.7804317
   8.2036362   3.3016398  25.9336891  68.9418564  64.1958618  82.4446945
  68.0373840  63.9631119  82.6544418  68.8737259  65.0347443  81.9887619
   7.7048035  63.8572731  68.6341019   7.7364845  63.0303001  68.1531219
   8.4798880  63.8377151  69.1954346  19.1939335  23.8149090  25.8621597
  19.0715160  24.1835518  26.7370014  19.1851120  24.5739288  25.2790279
  17.8835011  24.0980148   9.7613468  18.3502712  24.8964081  10.0081749
  17.0113697  24.3994217   9.5068426  76.6058884  58.7508507  20.9347534
  76.4174042  58.8313293  19.9997520  77.1793442  57.9871140  20.9986153
  12.9059153  60.6764946  49.3022385  11.9669628  60.7555084  49.4706345
  13.2802124  60.4240685  50.1462860  16.9162350  66.6018677  38.3452797
  17.0501938  66.8139114  37.4215240  15.9775724  66.7259369  38.4858208
  61.6948891  31.8424988  51.1283455  60.8150558  31.7509651  51.4940567
  61.5685463  32.3443642  50.3231087  31.0079212  14.4293098  87.0315475
  31.1428490  14.1631317  87.9410400  30.1302948  14.8112793  87.0214615
  12.6390553  13.4849358  61.3758621  13.4115953  13.2825766  61.9035606
  11.9619207  13.7029486  62.0163231  70.2457962  61.0420570  33.0864830
  69.5626678  61.6775169  33.3003845  69.7798233  60.2108727  32.9957848
   3.2826738  61.2463531  24.2303753   3.4059505  60.4776726  23.6734486
   3.5514829  61.9842300  23.6830997  20.2840786  26.6885090  19.4156590
  19.7594509  26.0410576  19.8866196  21.1865177  26.4971027  19.6710033
   9.5688400  43.7531281  42.8586998  10.0630751  43.2553329  42.2074203
  10.0590267  43.6357307  43.6724358  84.3511276  58.3689690  54.9334946
  84.0451813  59.0435562  55.5397644  85.2649155  58.2233620  55.1784897
  85.2990646  71.1973114  36.4411049  86.1527176  71.5369492  36.1724892
  85.1363754  71.6042404  37.2920876  51.3585014  18.5151653  62.8557205
  51.4477081  17.7413177  63.4119911  52.2037468  18.9589424  62.9253845
   0.9931586  52.6394081  67.7652435   1.5853642  51.9414711  67.4852371
   1.5390393  53.4255753  67.7789536   4.4342003  58.4185905  75.5866241
   3.7090986  57.7954903  75.5396729   5.0086021  58.0668449  76.2667465
  63.9128761  28.5174847  81.2205429  63.5177994  28.9925423  80.4894714
  63.5472412  28.9328003  82.0016022  54.9059525  48.9199715  39.8912086
  55.7712250  49.2045288  40.1854248  55.0066109  47.9832535  39.7219124
   8.3496132  59.3372612   0.6134686   8.4637699  60.2854652   0.5493848
   7.6310673  59.2240334   1.2356445  27.4984875  14.6992083  27.3793201
  28.3124866  14.9633694  26.9505348  27.2519779  13.8834372  26.9434490
  23.6134396  32.1082573  25.2830143  24.3921776  32.6648064  25.2757626
  22.9690113  32.6046028  25.7875786   1.1583800  54.4470253  51.0728416
   0.7807337  54.8443108  51.8575592   0.4310229  53.9716873  50.6712952
  62.5314102  47.4413071  41.6818390  62.4152946  46.8724213  42.4428368
  61.7677650  47.2650452  41.1322861  53.3746414  60.7937431   9.0954599
  54.2400398  60.3871422   9.1401758  52.8266563  60.2539177   9.6651363
  38.8820801  39.4497566  40.1599464  38.7845383  38.5280762  39.9207344
  39.7747116  39.6725922  39.8957748  19.7887936  51.7890129  74.7258148
  19.4371986  52.2041016  73.9382172  19.5807438  50.8606491  74.6204987
  67.6550980  12.4562273   7.7915235  67.5905380  13.1911116   7.1815982
  66.7735825  12.0837421   7.8119154  45.4781151  70.9229813  11.6649685
  45.2659912  70.4856873  10.8403387  46.1746674  70.3890076  12.0469627
  79.5822906  11.6645193   4.2217960  80.4827652  11.5166512   4.5107932
  79.0498047  11.4881220   4.9974046  58.2314110  53.1393051   3.2623806
  59.1749153  53.2033653   3.4104633  58.0063972  52.2491379   3.5329418
  62.5974998  37.8807411  34.1142464  63.4923401  37.6037216  34.3110924
  62.0499496  37.3521233  34.6947517  72.1869965  14.9977617  81.4992218
  72.2110367  15.2067823  82.4330063  72.6238251  15.7373943  81.0768967
  26.7807026  47.8263206  79.8648682  26.4066849  48.5694351  80.3382874
  26.6455021  48.0381737  78.9412537   9.2975607  42.2793465  23.4292812
  10.1775103  42.4078407  23.0751514   9.3669167  42.5463104  24.3458786
  38.1928101  13.9161043   1.3074682  38.5712585  13.2945004   0.6856822
  38.9438400  14.2545385   1.7949592  65.3446503  52.2994766   7.8002629
  65.9193039  52.9335022   8.2292414  64.5635910  52.8022079   7.5690918
  55.5776405  59.0992393   8.9376144  54.8539658  58.5243340   8.6885939
  56.1811256  58.5310135   9.4163218  23.3706627  60.5383034  84.9696884
  23.0436153  59.8036194  84.4505463  22.9231358  61.3040085  84.6096191
  44.3300285  23.5791759  85.5478439  44.7132607  23.4375572  86.4134674
  43.8721809  24.4164371  85.6226730  70.0018692  61.4159088  60.6520576
  70.5783997  62.0844536  61.0220490  69.1192474  61.7082062  60.8795891
  63.0297089  32.7202721  60.6882172  63.4498978  32.5507660  61.5313911
  62.9611855  33.6739044  60.6421776  40.3868179  62.4985428  35.1300850
  39.8506889  62.5056992  34.3371468  40.0015755  61.8111305  35.6734810
  31.9590569  44.6803780  13.2491255  32.4534187  44.3220558  12.5119381
  32.4542923  44.4115562  14.0228891   1.1239126  18.0852184  37.6291962
   0.6118158  18.3349895  38.3983536   1.0493522  18.8344688  37.0381813
  74.5520096  28.1976109   0.7800018  74.0336838  28.8677807   0.3345322
  75.4600372  28.4704895   0.6486393  36.8362579  30.0003414   5.4753709
  36.0414772  29.5675297   5.1635547  37.3298988  30.1971264   4.6792393
   0.4323326  70.0279160  13.3112526   0.6134934  69.8187408  14.2275820
  -0.3717793  69.5489426  13.1106968  30.6035213  16.3776436  32.2429733
  30.5779896  16.9126472  31.4496574  30.3095341  16.9661388  32.9383011
   5.4417844  10.6552353  22.0059185   5.5803895  11.5815516  22.2032967
   4.7871609  10.3698759  22.6433125   2.5317261  47.6322937  19.7563534
   2.3637450  46.6998711  19.6199646   2.3383775  48.0367165  18.9106045
  24.4667816  60.1313133   8.1727362  23.6631451  60.0577469   8.6875057
  24.5217705  61.0596161   7.9458847  59.5474739  47.1927109  89.0119553
  59.5477028  48.0536728  89.4302597  58.7118187  47.1526108  88.5468674
  24.7049904  45.9953117  81.1968460  25.3527603  46.5918884  80.8217239
  25.2225494  45.3606377  81.6923828  40.7792702  48.0422363  14.9127817
  40.3667259  48.5536461  14.2167215  41.6785774  47.9106941  14.6125011
  51.2062988  66.2675934  45.8877029  51.8080330  66.5395279  45.1947365
  51.1405296  65.3178024  45.7887192  66.0109711  12.6736088  37.7999649
  66.6093903  12.1985292  38.3765221  66.2748795  13.5899143  37.8834419
  38.4041786  56.2002487  84.3866425  37.6393929  56.3934364  83.8444138
  38.0808029  55.5877762  85.0473480  63.7964401   6.8506427  28.2399673
  63.9428444   6.8394008  29.1858368  63.0275726   6.2955046  28.1099949
   7.9922967  21.2068768  25.9658737   7.5535960  21.5590935  26.7402878
   8.5858917  21.9047623  25.6886883  41.4618797  65.7172318  60.2535057
  41.2326813  65.4865417  59.3532372  41.1087341  65.0012054  60.7815514
  23.9108887  58.3987465  58.3989029  23.9373665  59.2593460  58.8171082
  23.0069275  58.3063965  58.0979729  70.4966202  34.0869637  19.6822376
  71.1396408  33.4757538  19.3228168  70.9934464  34.6194572  20.3034058
  15.8941050   3.9749384   2.3352714  15.4696131   3.8633640   1.4846309
  15.2188005   4.3644266   2.8906944  55.0728836  16.0106792  81.4639511
  54.9650841  16.8631287  81.8857803  55.1888962  16.2155247  80.5361481
   3.5145636  43.8102684   0.9505964   3.7256808  44.2392044   1.7798593
   2.6372769  44.1260834   0.7341222  51.3056755  65.1364822  37.7763252
  52.1296959  65.3019409  37.3182373  51.5629616  64.9894333  38.6865005
  34.7309189  57.5264702  74.0814590  35.1508179  58.0375824  73.3895874
  34.3843269  56.7552605  73.6327438  76.8292313  68.4064102   7.5985465
  76.9052887  69.1904144   8.1424046  76.2710190  67.8166199   8.1052837
  65.5917511  45.9671135  34.2975502  66.3324585  46.0624084  33.6988029
  65.7893143  46.5634422  35.0197639   2.4485199  39.3543777  36.8803711
   1.9612851  40.0922852  36.5138626   1.8374429  38.6188698  36.8374329
  69.5551605  35.8104439  36.8064384  69.3361053  36.7080193  37.0566483
  69.0127487  35.6371193  36.0370407  63.4073677  29.6777077  64.3798752
  63.3098907  30.4763393  63.8613052  62.5235710  29.3130722  64.4265518
  73.5063858  40.7124367  57.3911400  73.6082687  41.6621399  57.4536819
  73.0183563  40.5768738  56.5789337  70.0487442  12.5936661  48.4471130
  70.1075134  12.1104631  47.6229210  69.9000778  11.9193516  49.1100082
  59.8443375  28.0955982  55.0783310  60.1514778  27.6009941  54.3185501
  60.4970627  27.9223881  55.7566986  65.7601166  13.7235575  32.5372391
  66.0581436  13.0519056  33.1506691  65.2416000  13.2444553  31.8908424
  74.4567947   6.3132076  61.6847000  74.7509384   5.5295453  61.2203903
  73.7245178   6.6404290  61.1622696  28.7374420  59.2231674  36.0226021
  29.3442535  59.8498993  36.4165840  29.0926189  59.0631104  35.1482658
  82.8203125  41.2095261  43.5715027  83.7651443  41.0583153  43.5460129
  82.5305099  40.7792778  44.3759537  80.6152573  29.8208027  48.0290604
  80.2577209  29.6779995  48.9054222  80.7797012  30.7628803  47.9880562
  36.8199997  49.9195900   6.7222576  36.5794411  49.9656792   5.7969251
  36.0964661  50.3481865   7.1794620  73.9946518  19.3454590  20.1812401
  73.5878448  20.2112083  20.2161484  74.8135147  19.4458466  20.6666431
  58.2649918  29.8013992  24.1511803  57.8863144  29.6750069  23.2812042
  57.5245209  29.7082024  24.7505550  62.8638420  60.2165451  26.7618275
  63.6229630  60.7962799  26.8241024  63.0960922  59.5906601  26.0758533
  85.3021698  54.4586296  19.6941223  85.2557526  55.3702965  19.9821110
  84.8667145  54.4542465  18.8417206  44.9017105   4.4479136  52.7195244
  45.2710304   4.9067907  51.9650269  45.3433266   4.8353915  53.4752121
  44.6078758  66.2798615  56.9664955  45.3624382  66.5234528  57.5027122
  44.8360252  66.5735321  56.0844879  49.3996658  38.7245636  35.5602455
  49.7426224  39.2742767  34.8556709  50.0187225  37.9968796  35.6192207
  76.7092285  23.6345711  22.3281078  76.2570496  23.2998219  23.1025181
  76.7563705  24.5802631  22.4683781  20.0223217  37.9246330   0.9678384
  19.3259487  38.3352432   0.4552994  20.8226566  38.1107750   0.4768724
  36.3445702  64.1439896  74.9708557  35.6148872  64.4815826  75.4903030
  36.8640404  63.6328278  75.5914230  81.2237473  10.5797281  22.3262520
  81.0601349  11.3549404  22.8633804  80.3794632  10.1300774  22.2912025
  76.8888779  39.8273277   3.4864523  77.5240860  39.3597603   2.9441233
  76.9995041  39.4538002   4.3607926  61.3063354  49.8027916  37.5412865
  61.8446808  49.0356178  37.7358627  60.5767860  49.4589348  37.0257759
  61.5527153  16.9991760  16.7431717  60.7894707  17.3005085  17.2360058
  61.7126617  16.1129379  17.0675640  82.1124878  24.5564060  36.8436928
  81.6957245  23.9125538  37.4163971  82.9872742  24.2028599  36.6825104
  15.4369001  59.1513634   8.0206451  16.0874138  59.0200653   8.7104454
  15.5136738  60.0777321   7.7922144  54.3682518   1.1938701  32.6051178
  53.6375504   0.7982067  32.1299820  53.9589310   1.8451587  33.1747742
  83.6965714  67.0987396  14.1162701  83.0156021  66.7845230  13.5214710
  84.3486023  67.5012207  13.5426035  44.0898819  11.0576830  12.2197943
  44.1205254  10.8402548  11.2881193  44.1002922  12.0145473  12.2429037
  13.9997883  62.5568542  37.1524124  14.2554655  62.0699196  36.3689880
  13.1392937  62.9181328  36.9396706  70.9232178  67.8036957  16.7963028
  70.7291870  67.9588776  15.8719091  70.8979111  66.8514099  16.8897629
  11.5658941  26.6530628  21.3061829  12.3583508  27.1896305  21.3245945
  11.1990547  26.7975044  20.4339447   5.7326465  60.9218864  13.0994549
   4.8484430  60.7267723  12.7890577   6.2344913  60.1300163  12.9062634
  15.9519053  65.5633392  49.5649872  15.6500101  66.3347778  50.0445404
  15.8264179  64.8372498  50.1759453  70.3048859   0.2525674  75.4311600
  69.6058426   0.8516557  75.6932068  70.3125610  -0.4193328  76.1128693
  78.5289917  62.5908966  19.0158920  79.0428009  63.3572121  19.2708263
  77.9674301  62.9041367  18.3068371  83.9746094  51.8205643  14.2838116
  84.2013855  50.8918381  14.2361565  84.4451599  52.1428757  15.0525322
  55.2157784  31.2706184  25.0177231  55.2988129  30.4560223  24.5219688
  54.3132820  31.2659721  25.3366451  51.1991692   6.4118414  84.6567917
  50.3796234   6.8696260  84.4696808  51.8825264   7.0145712  84.3635788
  79.7947693   5.8550377  36.1554337  79.2535782   5.1047673  36.4012794
  80.5664368   5.7882738  36.7178421   7.0739732  56.6738129  23.1505852
   6.9916973  56.5521393  22.2047215   6.3072710  56.2327042  23.5164013
  82.6697922  18.8952866   4.3051119  82.5232315  19.7967243   4.0184793
  83.6010132  18.7416306   4.1455460   9.1860628  12.2058678  46.0912170
   8.6037865  11.5057392  46.3861847   9.2599535  12.0736732  45.1460724
  82.8284836   9.9557858  64.7193680  82.1358948   9.8546772  65.3723068
  83.2476349   9.0961494  64.6797256  18.8372040  41.4089279   4.9764843
  19.3310852  41.9798889   4.3879972  19.4741707  41.1377335   5.6375122
  55.4246101  64.6173096  21.3577042  55.6483727  64.7049561  20.4311619
  56.2036667  64.2297974  21.7566261  82.0905533   0.3202302  22.4800491
  81.8534775   0.3375531  23.4072628  81.6910400  -0.4827593  22.1456432
   6.1230283  18.9575710  38.6185913   6.3314753  18.2585850  39.2384338
   6.0729041  19.7476883  39.1565819  56.5311317  58.2783813  15.7667980
  56.1507874  58.8516426  15.1012602  57.3509140  57.9721222  15.3789835
  76.3231049  40.4742928  47.3153610  75.3933716  40.2478905  47.3392868
  76.3360062  41.4309998  47.2874527  56.7962151  54.1325798  20.7957554
  57.5687256  54.6975594  20.7796078  56.0624580  54.7254410  20.6334534
  63.2180557  44.0251541  68.1234436  62.9279480  43.3584595  67.5008774
  63.3429756  44.8112106  67.5917130  36.6554756  70.7628937  80.2817993
  36.4414749  71.2217941  79.4694901  35.8134308  70.6521683  80.7233124
  28.9080086  62.7785339  39.3437538  27.9846497  63.0286064  39.3770065
  29.3823185  63.5876389  39.5350914  78.7142181  17.1129704  84.5493164
  79.1577301  16.6731358  83.8240051  78.9600830  16.6060505  85.3231430
  15.0012989  29.9312401  57.4027481  14.7226963  29.9844284  56.4885368
  14.3650389  29.3457432  57.8133583  52.6493073   3.7872972   2.2344959
  52.9772911   3.4410625   3.0644231  53.3955498   3.7267818   1.6380953
  29.7822266   5.3156686  51.4663696  30.5151501   5.6571326  50.9540634
  29.9704552   4.3819213  51.5608025  81.6677399  58.3101234   8.6331482
  82.3212204  57.8703423   8.0892839  81.0531158  58.6925964   8.0069056
  33.9046402  24.6862431  24.0265675  34.0595055  24.6780319  23.0820141
  33.1657639  25.2835255  24.1429501  60.2425079  42.2909584  51.6213112
  60.1458969  41.7403870  50.8442841  61.1537094  42.5830269  51.5961227
  33.8110924  60.8219337  73.4978256  34.1892967  60.0945129  73.0038071
  33.0269661  61.0640335  73.0051117  46.4442749   7.7364450  23.6459732
  47.0381813   7.6117492  24.3862152  46.7605286   8.5312376  23.2164154
   6.9576659  42.8999252  25.2800255   6.5765176  43.7769661  25.2380981
   6.3904557  42.3654518  24.7242870  13.1835346  46.1696129  52.3876381
  14.0651884  46.4494972  52.6337738  12.7191362  46.0813980  53.2199745
   3.0506754  30.5993404  20.2286720   2.2945244  30.0273418  20.0972023
   3.4686656  30.2651749  21.0223026  11.6928186  60.4438515  62.7462044
  10.7636871  60.6660461  62.6863976  11.8110189  59.7358627  62.1129494
   1.3566852  62.6572914  45.5231438   1.4213172  63.6113281  45.4799194
   0.4352477  62.4883156  45.7196960  20.8759480  35.8171844  57.0325661
  21.0074787  36.2068329  57.8969193  20.0368252  36.1696472  56.7361259
  34.2483902  16.0994473  41.6631279  33.9279938  15.9029942  42.5434608
  35.0391121  16.6194687  41.8065300  18.9172325  47.3800125   8.0134029
  18.2689934  47.6904793   8.6455641  19.5598488  48.0875778   7.9621959
  31.8078480  27.0793571  23.6245747  32.0378456  27.8386402  24.1601315
  32.0417900  27.3357582  22.7325191  31.7218513  69.3178787  -0.1635060
  30.7854023  69.3056412   0.0343464  32.1473541  69.1838989   0.6833888
  52.8699455  39.8285294  65.7350845  51.9567947  39.8591461  66.0204697
  53.2626648  40.6199341  66.1034317  51.2926979  62.6154900  21.9061699
  51.9621429  62.5017509  21.2315292  51.0081711  63.5243950  21.8104267
  27.4086647  27.7970181   1.3092673  27.6169701  28.4346752   0.6264542
  27.6826630  28.2196045   2.1232555  28.8882656   3.0717456  55.2097435
  27.9671555   2.9855127  55.4554138  29.0557613   4.0138326  55.2352257
   5.7043791  34.1090240  73.4870300   5.3192763  34.1697731  74.3612366
   6.4376493  34.7240219  73.5050583  60.4254036  44.2910995  49.1803551
  60.3650208  44.4253922  50.1261635  59.7941513  43.5954552  48.9964294
  39.1611786  27.5735054  81.3480453  39.5883904  28.1365719  80.7025375
  39.4016991  26.6845589  81.0869751  14.5593033  56.4179535  54.3188515
  15.1791897  55.8459320  54.7713585  15.0081100  57.2616272  54.2638931
   1.6798427   8.0295973   1.7312936   1.0088857   8.6861315   1.9184070
   2.3757706   8.2116394   2.3627813  76.2681503  71.4777603  17.1076469
  76.7440567  70.7822647  16.6537380  75.7792130  71.0245590  17.7945080
  55.0706482  69.1728210  82.8398895  54.5443497  68.3835602  82.7122040
  55.8232155  69.0552444  82.2601929   8.8098030  13.7363262  81.7385178
   8.0301132  13.2520695  82.0102005   9.1973677  13.1984043  81.0481110
  82.5890732  30.1312618   6.3687358  82.1028061  30.9543495   6.3208027
  83.2790604  30.2977600   7.0109410  56.5393372  17.4281139   3.9900978
  56.4691620  18.3692989   4.1497135  57.4551201  17.2942276   3.7458653
  24.6374512  56.2004776  11.5974417  25.3958988  56.0733871  12.1673880
  24.7925911  57.0464859  11.1773958  57.6760941  22.1687775  69.7680054
  56.8184929  22.2644043  69.3537445  58.2061005  22.8681545  69.3856430
  18.7452812  49.2220650  74.7463608  19.2798328  48.7930603  75.4145279
  18.4178543  48.5042763  74.2043304  86.8934021  54.7740288   2.0275428
  86.8325882  55.3995018   1.3055197  86.5953217  53.9454041   1.6523535
  29.2842541  24.0562153  79.5148773  28.9879684  24.5745258  78.7666779
  28.4934731  23.6202679  79.8324432  31.4305458  34.0644379  27.8931103
  32.1656799  34.4600143  28.3614407  30.7454967  33.9737816  28.5554695
  15.2620802  24.7146511  72.6033783  15.4277124  24.0536861  73.2756271
  15.8758888  24.5006924  71.9007416   7.7319493  58.0399933  29.8339233
   6.9180574  58.4110641  30.1746826   7.4972281  57.1506462  29.5689640
  77.2813110  36.4279823  71.9104691  76.4333878  36.5708580  71.4899445
  77.1953812  36.8415527  72.7694244  22.6100731  64.5896301  47.4979401
  22.6831093  63.6379318  47.5698357  21.9721203  64.7286911  46.7980042
  81.6279907  54.5596313  37.3716850  81.5097961  55.4952049  37.2074738
  81.0319138  54.3662834  38.0952492  63.3045197   4.6188116  57.3306923
  63.7483826   4.4958158  56.4915924  62.3739853   4.6449637  57.1078529
  57.5348625  26.1495438  59.5887527  57.0645561  26.6783657  60.2332611
  57.9435043  26.7896194  59.0060463  21.3866062  18.4363060  53.1028519
  20.7410641  17.7681732  52.8724022  20.9939289  19.2592659  52.8116951
   1.3487124  64.9992218   6.8242445   0.9838905  64.1406937   6.6096325
   2.1757045  64.8046112   7.2652016   6.2640305  56.2897110  76.5120850
   7.0719309  55.7847176  76.6043320   5.7294779  55.7776566  75.9052277
  28.2051754  10.7534351  72.3833618  27.9165478  11.5509701  72.8270569
  27.6295547  10.6812286  71.6219940  53.7462082  19.8543854  86.3896637
  53.1992493  19.7231979  87.1641617  54.6433754  19.8218365  86.7217255
  30.9253254  66.4603653  52.1259079  29.9972191  66.6043091  52.3106461
  30.9321404  65.9543304  51.3134346  24.7056351  71.3077850  35.8842354
  25.4943447  70.8615341  36.1924934  25.0172634  71.8988571  35.1988487
  55.9551506  33.8969574  32.2442474  55.9693336  34.6763115  32.7998009
  55.7333488  34.2273827  31.3736992  29.2805462   4.8627267  20.2035408
  28.8591614   4.8422108  21.0627537  28.8059292   5.5389271  19.7200928
  57.5696068  13.8652105  59.2195511  56.8103867  14.2363434  58.7700195
  57.9545403  14.6046715  59.6899261  41.0948181  13.5952997  32.6845474
  40.9086380  12.6838694  32.4590225  40.5001564  13.7890091  33.4091759
  69.2773132   9.2878304  78.3603897  69.0729294   9.0980501  79.2760620
  69.1393661  10.2311573  78.2747421  69.4290009  51.3092918  16.4560127
  70.2291107  50.9307709  16.8204079  69.2148666  50.7462273  15.7121477
  27.2326221   9.4763708  64.1610565  27.3782501   8.6910124  64.6885376
  27.2581768  10.1963387  64.7913132  85.5455170   6.3188906  17.2727146
  85.1965179   7.1524787  16.9571819  86.4956589   6.4203677  17.2164593
  76.5750351   4.6890755  23.8586464  76.5809937   3.7683499  23.5969963
  76.8129501   5.1656270  23.0633297  68.1390762   4.7100844  28.7061062
  68.6793823   4.9387155  29.4624329  68.7608109   4.6315365  27.9825687
   1.1216072  65.9286880  10.6698380   1.3701174  65.1310806  10.2026062
   1.7015867  65.9509430  11.4309950  83.4000931  14.3759975  53.8084106
  83.0541611  14.6322250  52.9534760  82.6964722  13.8646727  54.2080307
  57.4179802   1.0150470  30.3847580  57.9292526   0.2875497  30.0303860
  57.1559830   0.7210774  31.2572079  14.5266075  38.7318611  64.5234756
  13.6536016  39.1131668  64.6167297  14.6072903  38.1336479  65.2663498
  29.6094532  14.3031044  47.0598831  30.2975311  13.6456661  46.9571381
  29.9983368  14.9704781  47.6252289  57.2163658  10.3361139  34.8942566
  58.1357841  10.0795946  34.8228111  56.9493980  10.5236053  33.9943619
  25.9905663  30.5811195  20.3579884  25.7703438  31.4593391  20.6685791
  26.6257591  30.7272644  19.6569862  66.3405914  46.6148682  15.8310061
  65.8880463  47.0214996  15.0920248  66.7487564  45.8322678  15.4606533
  51.3702164  12.4545059  64.2149887  52.2845459  12.2216854  64.3763123
  51.3509483  12.7281084  63.2979279  30.4298439  34.1368752  13.9699240
  29.7930183  33.4778862  13.6934872  30.2737923  34.8800316  13.3871708
  72.6610184  65.2393570  33.3581886  72.8071899  66.0343475  33.8708916
  73.5121384  64.8015289  33.3472633  77.6444931  39.7990303  27.3048840
  76.7146378  39.6002274  27.1949577  77.7459641  40.6786575  26.9413013
   8.8888798  58.0512695  69.0551529   8.5400343  58.6127472  69.7474594
   8.3170300  58.2129021  68.3047562  33.5634232   7.3828425  36.9826851
  34.0790634   8.1413393  37.2565994  33.3434296   7.5603976  36.0681839
  43.9499435  62.6219025  68.6257172  43.2324600  63.2237778  68.4277496
  44.0880661  62.1378479  67.8115692  29.3053532  43.6425629  18.4582863
  29.4414482  43.3673820  17.5516529  28.3545341  43.6419220  18.5686245
  26.5876312  21.4435425  79.0029678  26.6029339  21.3191147  78.0540161
  25.6869984  21.2415504  79.2565231  59.3859673  21.4514122  88.2948532
  59.5781021  21.3184204  87.3666153  59.7542572  20.6815681  88.7283707
  55.5566711   7.6284661  39.6518173  54.8320351   7.5206976  39.0357628
  56.3097458   7.2407207  39.2059860   3.6812727  51.2951202  17.1548195
   3.5856488  51.2946815  16.2024078   4.4143519  50.7028313  17.3222084
  50.0454445  26.5945683  21.4467239  50.1185417  25.7750549  20.9575577
  50.1235580  27.2783699  20.7814827  37.2818718   8.3684502   9.8749208
  37.7687492   7.7046237   9.3865433  36.3943481   8.0157108   9.9390125
  25.4352818  58.8469887  64.5193405  25.2017517  59.4137650  65.2544937
  26.2004757  58.3603401  64.8257446  49.3222656  67.5973053  32.5710068
  48.6400719  67.0139313  32.9034538  48.9829483  68.4780121  32.7305412
  63.8707657   2.3758633  18.8400860  64.4769516   1.6790338  18.5886803
  63.4012260   2.0236187  19.5961857   6.7718024   6.1422353  65.5774231
   6.2498107   5.7022061  64.9065094   6.6675620   7.0748172  65.3885956
  62.2020035  55.5082321  11.3312836  62.0186310  54.5688057  11.3405647
  63.0522003  55.5820351  10.8977480  13.7609396  26.3685589  17.9728699
  14.2460251  26.2151489  18.7836647  14.3318720  26.0281353  17.2841167
  49.7008438  66.2672119  76.3372040  49.4870338  65.5948792  76.9841080
  50.6535301  66.2254486  76.2542725   3.1141505  70.3159714  11.1399736
   3.1553676  70.3226547  12.0962629   3.2374146  71.2312927  10.8885221
  58.6665192  34.7573128  64.4613266  58.4720306  34.0425644  65.0675812
  59.2654572  35.3257446  64.9454651  86.8034668  64.9161606  88.2389450
  86.7755432  64.1393890  88.7975845  86.2089920  64.7132416  87.5166855
  48.2765236  59.5232544  56.6215706  47.7890167  60.2536240  57.0025215
  48.0042572  59.5061798  55.7040672  11.9148979   4.1759906  65.0505829
  11.1379652   3.9939356  64.5219421  12.4220428   3.3648231  65.0182800
  47.7974701  50.9884377  24.5228653  47.7576866  50.7556496  23.5952568
  48.5886497  51.5213089  24.6023598  78.8527832   5.1081629   9.8479662
  79.2797928   4.7677269  10.6340933  79.5575867   5.5292463   9.3558502
  78.0733261  27.8831673  65.6461487  77.3053741  27.4370651  65.2891083
  78.4146881  28.3958569  64.9134445  69.8441544  19.1989975  22.0124130
  68.9890137  19.1653137  22.4411793  70.4546204  19.4279480  22.7132282
   7.2426362  12.8773499  20.7606754   6.7268858  12.3946753  20.1147213
   6.6315002  13.0454111  21.4779625  76.7135773  26.2967205  23.2796898
  75.9271088  26.3042431  23.8252563  76.8717117  27.2182484  23.0747223
   8.9162970  49.0739861  18.7321358   9.1536427  48.1792870  18.4883804
   9.5236454  49.6256561  18.2391644  75.2203674  45.1499443  68.1563187
  74.5266342  45.7512856  67.8854675  74.9425888  44.2973747  67.8213654
  28.1600266  44.8254814  16.1957169  28.7010517  45.4003067  16.7371025
  27.4392262  45.3822899  15.9013653  20.3648663  43.1742363  86.9160156
  21.0109577  43.7165565  87.3684387  20.5677948  43.2846565  85.9871140
   5.6870017  22.9578304  42.2766304   6.0887332  23.1778336  41.4361305
   5.0310059  23.6410866  42.4146957  77.9712753  40.3945198   9.9747190
  78.6723557  40.5020523   9.3319502  78.4088135  40.0420074  10.7496557
   5.6898713  42.1551170   4.2281928   4.8743758  42.0070877   3.7493548
   5.4584341  42.0108757   5.1457238  81.6509171  56.4762726  76.9609299
  80.7873230  56.8234367  77.1843491  81.6331100  56.3846664  76.0082932
  13.8969135   8.4206619   7.3182168  14.7335129   7.9570875   7.2803760
  14.0210695   9.1851826   6.7557888  70.2234421  36.9853325   3.2748654
  70.4922791  37.1449547   2.3701682  69.5528107  36.3055153   3.2090454
  73.1614990  25.1635532  64.0697632  72.3396912  24.8038101  64.4036102
  73.1013870  25.0571194  63.1204033  31.6294079  13.8318377  43.0756989
  32.4520187  14.2243748  43.3680344  30.9608688  14.4767618  43.3066978
   7.5637093   3.4530847  52.8980827   7.1570201   3.4075179  53.7633896
   8.2351074   2.7709992  52.9127693  58.3349380  64.5284500  75.3588791
  59.0260811  65.1652985  75.1772690  58.1622009  64.1147461  74.5131607
  39.3451157  56.0591316  27.6018677  39.7544212  55.1967354  27.5313606
  39.4398651  56.2944832  28.5248318  28.7313347   9.9980917  29.3088112
  27.9646378  10.0809278  29.8758621  29.0620956  10.8920383  29.2211342
  15.4449434  24.5936089  79.6535645  15.5422068  23.8411102  80.2370987
  15.1240969  25.2957096  80.2195511  34.3545876   5.0884953  87.1824570
  33.8751030   5.8085284  87.5921860  34.9924126   5.5188432  86.6130600
  14.2459822  11.8539324  65.7775574  14.6645784  12.1556396  66.5837708
  13.3330097  11.7043505  66.0231934  46.9535904  52.7609444  47.8382759
  46.2734222  53.0375671  48.4523468  47.4194679  53.5674858  47.6176300
  51.4910316  38.1464386  16.2271919  52.3240242  37.6978455  16.3725243
  51.2155418  38.4285240  17.0994110  19.0294895  56.1434517  41.1446114
  19.1973858  55.4560356  40.5000153  18.4526291  55.7323723  41.7884102
   6.2832046  31.8821735  84.5591278   7.2137909  31.9278755  84.3396912
   6.0148454  31.0057392  84.2833023  10.3264275  58.6283073  80.1500473
  10.2745085  59.4603195  80.6204681   9.9336586  57.9909935  80.7465286
  84.3415298  25.0233498  49.0528336  83.7714005  25.7292862  48.7481346
  83.7545547  24.2771320  49.1746941   4.4452291  21.4326515  65.5108566
   4.5481405  20.8793755  66.2851486   3.9215055  22.1742020  65.8142548
  66.5965652  66.7073059   9.9956837  66.6513672  67.0294647   9.0959940
  67.3407669  67.1124802  10.4409208  80.9048157   5.1953826  39.0259018
  80.2853088   5.2695661  39.7518120  80.7721786   4.3099256  38.6873703
  79.2633286  63.4998245   0.2726682  78.8012390  62.7686920   0.6827338
  78.5675583  64.0623398  -0.0675046  40.9297600  66.3740387  33.3098793
  41.0722351  65.5960541  32.7707329  40.0218086  66.6226120  33.1364899
  76.5797653  59.8237038  49.7068520  75.7957153  60.3421249  49.5259171
  76.7827148  59.3977432  48.8740234  76.1420746  11.2017260  45.1970291
  75.3916092  11.7174759  45.4920464  75.7934494  10.3183279  45.0774460
  74.1766357  53.5720634  15.4100590  73.4786530  53.9264832  15.9609127
  74.8576889  54.2445183  15.4241648  41.1923943   2.6203933  27.9351692
  40.5993195   2.8612807  27.2235012  40.8748245   1.7681043  28.2334747
  10.0524397  21.6984997  12.5578985  10.7577467  21.5416203  13.1857233
  10.4991293  21.9955368  11.7651377  53.0300827  45.5680161  33.4883728
  53.2423286  44.7498474  33.9375763  53.4666100  45.4954681  32.6396027
   1.2981924  13.0807867  13.5600967   0.8110906  12.5988588  14.2284603
   0.6504197  13.2696428  12.8811598  33.4927940  60.7720718  87.3752823
  32.9475441  60.5423088  88.1277008  34.1351585  60.0645752  87.3200378
  21.3729839  21.5632801   1.5435412  20.9966221  20.8183823   1.0748090
  22.0884342  21.1870041   2.0561585  76.8425751  44.2707901  52.3381767
  76.9892044  44.5381126  53.2455177  77.1539612  45.0109062  51.8171272
  47.2008896  44.7957306  24.1079922  47.4789047  45.1443520  24.9549866
  47.7257690  44.0038757  23.9909554  50.9813690   3.8599219  18.2644272
  51.5963173   3.6338811  18.9622650  51.2042885   4.7611580  18.0313797
  81.3805618  21.5175858  75.1702652  82.0742264  21.4799919  75.8287811
  81.7643890  21.1088734  74.3944626  49.4318466  40.9919662  88.3240814
  49.2552223  40.4424629  89.0876846  49.4962730  41.8792839  88.6772842
  22.7935715  68.7117844  51.6392632  22.2654285  68.9443588  52.4029427
  23.6581554  69.0779114  51.8254814   0.2734991  17.7532406  83.5522308
   0.1151435  17.8790836  82.6166534  -0.3124167  18.3774204  83.9804077
  21.5645447  25.6169853  27.6640377  22.2439137  25.7837296  27.0106697
  21.6327534  24.6798515  27.8466873  47.8982735  43.6754074  17.8566322
  47.9656982  42.9462090  17.2402248  47.6357040  44.4213829  17.3173656
  79.4353104  42.9362907   8.2480936  79.4586792  43.7589569   8.7368755
  78.5037842  42.7695007   8.1043158  67.4393387   1.5867339  10.5977802
  68.2746277   1.2290521  10.8987503  67.1289139   2.1190727  11.3302298
  59.2550278   3.0672739  63.9072495  59.6323357   2.7014632  64.7072830
  59.2048340   2.3250074  63.3049622  45.4558525  59.2925224  49.4179192
  46.2554321  59.5466309  49.8787155  45.7413712  59.1182327  48.5210724
  62.6546631  39.0642395  12.4205780  63.1411629  39.6271210  13.0228367
  61.7804680  39.0008850  12.8052912  57.0236893  38.1587067  25.2817764
  56.9656372  38.6660690  24.4721832  57.2099838  37.2656670  24.9919415
  11.5070047   7.9756236  41.7755203  12.2949648   8.5146255  41.7060318
  11.5319729   7.6287513  42.6673088  19.8590412  35.8771019  17.7167587
  20.4932232  35.1760483  17.8669853  19.3270988  35.5659752  16.9843197
  19.9317818  19.2769566  31.7947540  20.5205536  18.8813667  32.4374733
  20.3991776  19.2006474  30.9629192  44.4456711   6.7389145  85.4948120
  44.9741821   5.9662790  85.2949600  43.6616707   6.3897219  85.9186478
  76.0286179   8.0591326   1.6234848  75.1328049   8.1063137   1.2895205
  75.9789276   7.4456749   2.3565831  11.4114141  49.7680168  11.3507843
  11.7276154  50.6019974  11.0033264  10.4662552  49.8892288  11.4414120
  62.2095261  13.2699146  38.5008240  61.5104218  13.8210421  38.8526001
  61.8481102  12.9134417  37.6893234  33.1136894  13.7506704  57.0567398
  33.3221664  13.5248327  57.9632530  33.5797653  13.0981140  56.5340767
   4.7139268  63.3859329  17.8163395   4.6430254  64.0597305  17.1401749
   5.6329145  63.1191788  17.7932148  16.3366680  10.1858263  32.6424675
  16.8123951   9.6484547  33.2758293  15.4138031  10.0436058  32.8530045
   4.5887270   0.2535660  83.0259933   4.8167939  -0.5035212  83.5654678
   4.4986467   0.9738525  83.6499329  61.5304337  10.5331507  31.0302582
  60.9495850  10.6901817  30.2858200  61.4212799  11.3047142  31.5861435
  62.6971092  57.1373634  49.3457489  63.4703560  57.2681274  49.8945885
  62.8520889  56.2996979  48.9092560  54.9710922  64.5787354  87.1605606
  55.1780853  63.6496620  87.2615967  54.7923813  64.6840668  86.2261124
  50.7987900  54.4480133  25.3717861  51.5460548  54.8502350  24.9290199
  50.8199234  54.8126984  26.2565384  27.2623787  48.1474686  21.4272461
  26.8502045  47.7994690  20.6365242  27.1702728  47.4472656  22.0733585
  14.7713432  59.4332771  24.4078541  13.8821754  59.6853828  24.1587467
  14.6519356  58.8155327  25.1292171  64.4769516  58.8478928  37.1328430
  64.4636307  59.1273499  36.2174416  63.6802673  58.3274269  37.2359924
  67.2313232  56.9328117  44.7433815  67.3556213  56.3005676  44.0355339
  67.9433517  57.5624046  44.6299477  70.6060181  71.6345367  43.8785286
  69.8296738  71.2080078  43.5157700  70.9200363  71.0291977  44.5502357
  23.4633465  67.3561172  19.4922924  22.6297455  67.1666794  19.0616512
  23.3107510  67.1443253  20.4132118  79.2689743  21.9514370  76.8828278
  79.9018936  21.9427528  76.1647949  79.8018723  21.8620262  77.6729279
  32.5396729  16.5971508  51.8926277  32.5582466  17.5257282  52.1242065
  32.2246857  16.1593437  52.6834106  68.2822495  34.3540993  75.8497772
  67.5876999  33.7987595  75.4956131  68.3937607  34.0524864  76.7513504
  40.4619484  31.0693474   8.6984816  41.2253647  30.8567238   9.2353420
  40.7981682  31.0926743   7.8025775  51.9886475  34.4036102  -0.0712017
  52.4666748  35.0044785   0.5003561  52.5371475  33.6199760  -0.1072412
  80.6142044  16.5843296  25.0846272  79.8187790  16.1237736  24.8173962
  80.8519211  16.1857948  25.9218197   9.6792307  56.1674995   6.2996702
   9.3926849  55.3187828   6.6370177   9.1334734  56.3148537   5.5272279
  37.8645210  49.1672554  71.1076508  37.3875847  49.4933357  70.3444824
  38.7412529  48.9720917  70.7767639  44.7474365  57.3081245  81.5788422
  44.3758583  56.5678940  82.0586548  45.4748154  56.9316139  81.0834732
  76.7532349  50.0428200  62.0771065  76.7715225  49.7278252  62.9808083
  77.1009674  49.3144684  61.5625038  30.9143429  43.4454155  84.2504654
  30.3296852  44.1749954  84.4556961  30.9861298  43.4571877  83.2960281
  24.0648994  16.2611580  82.7387772  24.7807827  15.8953943  83.2583542
  24.3595009  17.1433849  82.5126801  32.2328835  21.3466892  32.6207809
  31.9930439  20.5377655  33.0728340  32.6067696  21.9017105  33.3051720
  46.8523750  52.2040520  27.2103996  47.1081200  51.8501511  26.3585873
  47.4409714  52.9462624  27.3478985  55.8712921  68.7073135  32.4000244
  55.3659973  68.9272842  33.1826591  55.3366089  68.0569153  31.9446850
  52.2713928  46.9002228  22.6508541  52.7155609  47.3184204  23.3884583
  51.5725861  47.5103340  22.4149227  51.3778496   9.9778690   9.0615540
  51.2885666  10.7501459   8.5031204  50.4985886   9.8316650   9.4104843
  32.7401009  71.1101227  72.2999573  33.5417595  70.6847763  71.9955597
  32.0361748  70.6485596  71.8442459   7.4013476  52.0022163  65.9476166
   6.7702103  51.4853935  65.4468307   7.9958768  52.3591423  65.2877884
  14.8584795  21.3064899  78.7888794  13.9598427  21.5119667  79.0466843
  14.9551334  21.7009544  77.9221115  80.2784653   1.3826710  77.7945251
  81.0746689   1.1049880  77.3415527  80.5857773   1.7111466  78.6394501
  59.8110847  64.1543732  52.1772728  60.6539307  63.9428596  52.5786514
  59.1981277  63.5288582  52.5635910  48.2783470  53.8556252  30.8291931
  48.2936172  53.0441246  31.3366032  49.0522423  54.3363266  31.1228714
  17.3541412  47.1954498   1.6438322  17.8642712  46.9221382   0.8814016
  17.1788216  46.3829269   2.1184940  65.8449783  22.3240070  53.8369827
  66.3429565  21.5788879  54.1732025  64.9492035  22.1680088  54.1361351
  18.9307156  67.2186813  69.9175262  18.1436157  67.6278992  69.5580139
  18.7237186  67.0710144  70.8403397  34.9181252   6.3229175  74.7267761
  34.5124168   5.4642348  74.8463516  35.8230247   6.2024522  75.0146637
   3.0404449  65.0766449   1.3626884   3.4148736  64.6571960   0.5880280
   3.5807173  65.8550720   1.4982889  35.7499084  58.6619949  65.0447159
  36.3050385  58.8245201  65.8073807  34.8775444  58.5152893  65.4103622
  54.6187630  50.7854996  75.9377136  53.9253578  50.7241440  75.2807083
  54.4950104  51.6466675  76.3368454  43.0230675  12.7190342  37.9634018
  42.3945732  12.2036629  37.4578171  43.8060799  12.7483406  37.4136200
  53.8319702  32.5315933   9.9223728  53.7456055  33.1589394   9.2045908
  52.9463806  32.1920891  10.0515957  64.7789001  62.0926170  57.0552177
  64.6853027  63.0061646  56.7852058  65.4861679  61.7522049  56.5073814
  67.2589188  41.0658340  40.1411667  66.6819153  41.8204765  40.0236435
  67.0723724  40.5024414  39.3901520  57.3984947   3.0695841  56.6935806
  57.9860039   3.3548563  55.9938049  56.5982285   3.5763924  56.5559273
  21.3226242  38.3621216  31.1731262  20.7733765  38.7210464  30.4761829
  21.1773949  38.9462776  31.9173717  18.2479916  61.6169662   7.5053215
  17.4911880  61.2409477   7.0557790  18.2347298  62.5429230   7.2631187
  21.4924755  22.2291298  14.0178032  20.6591263  22.6676521  13.8461637
  21.4053192  21.3750305  13.5945396  85.4277725   2.2561154  56.5043640
  86.1496582   2.8775997  56.5985832  84.9228668   2.3512654  57.3119812
   8.4432945   6.8487868  32.7061920   8.0956783   6.0176916  33.0297279
   8.9537497   6.6099415  31.9324856  25.3524284  51.9770393   9.3752871
  24.6866112  51.3163109   9.1846132  24.8559723  52.7358170   9.6819086
  36.2289429  49.9606705   4.2145090  36.5530548  50.3790817   3.4169402
  36.1289711  49.0386467   3.9776313  49.4012337  69.1862488  37.7651672
  50.0174751  68.7236099  38.3330154  49.0134430  69.8562546  38.3281403
  61.0496483  24.3893147  71.9492264  60.7819557  24.6780605  71.0767593
  61.7432022  23.7497311  71.7875290   7.4213386  46.9071579  51.9235191
   7.8482189  47.7619629  51.9810829   8.1110764  46.2799034  52.1404152
  62.9002113   7.3899789  53.3928528  62.5191269   8.2524233  53.2279358
  62.1454773   6.8099365  53.4936409  71.2427368  40.4429054  62.7251587
  71.6426773  40.4607086  63.5946236  71.9636993  40.2253227  62.1343040
  34.4896317  58.8087807  21.6387844  34.5065956  59.7636871  21.7028027
  33.7395172  58.6198158  21.0750008  78.6854935  14.1956940  88.8459778
  78.3787689  14.2129002  87.9394150  78.0047302  13.7182274  89.3201294
  74.9382782  22.5002098  68.2716293  74.1305542  22.8098793  67.8618546
  74.6666412  22.1983242  69.1384125  35.4984398  18.3505898   1.8960611
  36.1890945  17.6896152   1.9444622  34.7076950  17.8555126   1.6819381
  46.9431229  55.1112480  89.1617508  47.1895409  55.7818718  88.5247498
  46.1910324  55.4832802  89.6223831   0.2228775  11.9234190  56.6317062
   1.0598766  12.3243055  56.3972816   0.4488215  11.0289030  56.8866959
   6.5112486   7.0608153  23.9775848   6.9830389   6.7042127  24.7302341
   5.7009983   7.4117441  24.3471470   8.3702116  61.3509636  14.6045752
   7.5394678  61.3925858  14.1309042   8.4046507  60.4588470  14.9497890
  38.4774666  65.0520706  51.9622650  37.5462151  64.8323212  51.9888916
  38.8475113  64.6204987  52.7323570  73.5130081   8.2255802   1.0572571
  72.6845474   8.0558195   1.5056511  73.3478394   7.9786739   0.1473181
  64.8045197  14.3051491  73.4721298  64.8321533  15.2126093  73.7754135
  63.8712578  14.1017323  73.4098816   8.9015808  52.5504189  37.7028885
   9.4729862  52.7412300  38.4467430   8.0750561  52.2758713  38.1000175
   7.5366530   3.8934693  67.0345688   7.2603979   4.7116771  66.6217117
   6.9177332   3.7671928  67.7537537  77.8023605  66.7313766  73.9803009
  77.7687454  65.8015900  73.7553482  78.7117386  66.8827591  74.2378693
  21.2394753   0.5063119  69.1974869  20.8235569   0.9378452  69.9438248
  20.8342876  -0.3603113  69.1655807  40.9555283  25.7697353  23.0889950
  40.2628021  26.3934517  23.3065758  41.7302551  26.1052570  23.5400524
   2.8090291  30.7060223  32.0842628   3.3293662  29.9443130  32.3397598
   1.9322736  30.3554420  31.9273396  60.3968468  27.8527679  60.0353928
  59.5500298  27.7936592  60.4776993  60.3909149  28.7156048  59.6210136
  23.1103153  62.1487694  77.2946243  23.3327122  63.0754700  77.3840561
  22.5068321  61.9764557  78.0173645  36.6463127  62.0425987  82.9512711
  36.9478760  61.3619995  83.5529938  37.3650894  62.1466789  82.3277664
  75.8625488  49.2987747  80.4671173  75.6461029  48.4048004  80.7320404
  76.7923889  49.2635765  80.2426453  86.4868240  45.8524704  84.9575653
  86.5213089  46.1933136  85.8513565  86.3433304  46.6256065  84.4117661
   3.0669460  65.1195831  71.3850708   2.9971890  66.0634842  71.5279160
   3.9125726  64.8816528  71.7652588  36.6453056  36.0254974  11.6534548
  37.4430885  36.3716202  12.0534210  36.6645508  35.0893173  11.8520184
  17.0950718  20.1913910   6.5299664  16.7942066  20.3664150   5.6382947
  16.3987427  20.5352612   7.0895300  66.9252625  61.1839981  49.6829910
  66.2837753  61.5775833  49.0915375  67.7229080  61.6949577  49.5455017
  42.6712189  62.2904129  17.6227417  42.6490402  63.2304382  17.4435902
  43.5901756  62.1050568  17.8161087  68.0681839  15.0464859  45.9651947
  67.8580856  14.4108343  45.2810631  67.2259445  15.4399042  46.1934242
  63.2356987  47.3169708  31.5941200  62.3016472  47.4898682  31.7119484
  63.3525734  46.4163284  31.8964634  51.1512527  13.6689997  84.2131500
  51.5987167  12.8834715  84.5277100  50.3199387  13.6772947  84.6875763
  43.7884903   4.8988972  39.7051582  43.0217628   4.7450752  40.2571526
  43.6002617   5.7242336  39.2583656  66.0524139  50.8506966  60.9699516
  65.1603241  51.1416473  61.1590385  65.9409637  50.1006432  60.3858032
  85.8257751  50.5024681  40.5493164  84.8720551  50.5767517  40.5155678
  86.0732880  50.1974258  39.6764374  68.5025482   4.6719284  55.8526764
  68.5775452   4.3465405  54.9556084  68.0996475   5.5353870  55.7613640
  49.2982635  14.8490057  53.9605751  50.2234001  15.0747108  53.8635979
  48.9101677  15.6097565  54.3928642  80.2184601  54.6069832  31.8628807
  80.3401794  54.4931641  32.8054619  79.9969864  55.5325127  31.7600193
  56.9225731  35.1958389   3.7818205  56.2060852  35.2027588   4.4165092
  56.6220131  35.7671623   3.0750787   4.9738870  40.4470978  37.2040825
   5.5331831  40.3440170  37.9740143   4.1450744  40.0384331  37.4536667
  33.0784492   3.4367785  15.4393969  33.5227928   4.2812123  15.3637543
  33.3438072   3.1023951  16.2961369  33.4012756  71.0401230  22.3387814
  33.0599327  71.9315720  22.2677631  34.2584572  71.1440811  22.7518978
  71.0614014  61.7713699  54.3126755  71.8043442  62.0128365  53.7595291
  70.6518250  62.6057701  54.5412674  76.7202530  23.1187363  38.8981018
  77.3534241  23.8098049  39.0923996  77.1255646  22.3204308  39.2367172
   6.1156483  26.8312206  29.5569248   6.8651872  26.4584866  29.0927105
   6.0865016  26.3545380  30.3864765  65.5265656  31.0317802  72.9384079
  66.2273560  31.3593597  72.3746719  65.5249863  30.0856380  72.7933426
  14.0061817  54.3750191  77.6849823  14.0853634  53.5448647  77.2150803
  13.5527449  54.9544907  77.0727386  14.4487724   4.2505026  89.1237488
  13.5517225   4.5363150  89.2965012  14.7791891   4.8754773  88.4784088
  62.7978325  66.6034851  12.7665014  62.1997375  66.0067673  13.2164288
  63.3643532  66.9424591  13.4596014  59.9976425  59.0037117  47.8744087
  59.2968788  58.8141022  47.2505417  59.5660591  58.9968109  48.7287636
   4.2271075  13.7213736  78.1486664   3.3264377  14.0087976  78.2983780
   4.7084618  14.0328617  78.9151535  18.8383656  15.7399406  10.7707186
  18.6756630  15.8717489   9.8367023  18.1543999  16.2479458  11.2070103
  68.2785187  19.1875744   4.8220372  68.9657822  18.7597122   4.3113184
  67.7719116  18.4656277   5.1940255  35.3760948  61.0184097  75.4934387
  34.6014481  61.1172829  74.9399261  36.1142921  61.1347542  74.8953094
  85.6711426  37.1902351  32.0614815  86.3761444  36.7329445  32.5198326
  86.1092072  37.6474304  31.3436337  20.6718941  63.8396187  64.4009171
  21.2001305  63.7677269  65.1959229  20.9391403  64.6715775  64.0102081
  68.6382141  36.5991898  49.2036247  68.5599670  35.9942513  49.9412918
  68.1706161  37.3847160  49.4874115   6.4191074  59.7909393  74.1199112
   6.6898856  58.9353638  73.7868881   5.6474319  59.6062813  74.6553040
  73.1115799  40.0173149  80.3469849  72.5929871  40.7863808  80.1106949
  72.5872192  39.2740555  80.0489197  54.7154045  62.3719254  34.9133034
  53.8482094  62.0023041  34.7472153  54.7362785  62.5182571  35.8590202
   1.1975697  19.5093498  14.4289856   0.7975979  18.9287815  15.0764380
   2.0758121  19.1522064  14.2971849  26.6933651  14.5813684  71.6327133
  27.0337448  14.0904694  70.8847885  25.7463779  14.6019182  71.4947815
  32.5289078   6.7849221  73.6427231  32.5183563   7.3688927  72.8843765
  33.3780403   6.9433041  74.0551834  27.2510872  60.4117851  46.9236107
  26.7162170  61.1889343  47.0854149  27.4173183  60.0499611  47.7940598
  40.6738434  41.2946014  23.4941959  40.8758888  40.5088844  22.9862022
  39.7915497  41.5397301  23.2154427  57.9139366   4.8642278  75.9048996
  58.1295090   5.2840228  76.7376862  57.0815735   4.4208193  76.0685883
  37.0296631  30.0137157  77.0896454  37.9747086  30.0409660  76.9400406
  36.7558784  29.1664810  76.7382660  69.0051651  30.6439438  22.5187397
  68.5957413  31.5089207  22.5391464  69.6824722  30.6835632  23.1939507
  81.0991821  67.4066925  88.5146637  81.2853622  66.8514862  89.2718353
  80.4910202  68.0674744  88.8459473  45.4450340  54.9708900  72.7893906
  45.5303230  54.5581970  71.9299469  44.8644524  55.7171440  72.6401901
  62.0221634  62.9074516   7.5392585  61.3884125  62.9321289   8.2561827
  61.8929939  63.7355003   7.0767879  86.1192322  14.9148779  55.0627136
  86.1379089  15.1190186  55.9977074  85.2387009  14.5719824  54.9099731
  10.3588743  24.8536568   4.0104470  10.5130234  25.5354061   4.6644258
  11.0949259  24.2507133   4.1149364  52.3632011  44.1834183   2.8728986
  52.9611893  43.4748611   3.1107881  52.4588547  44.2692490   1.9243652
   0.3017142  31.3542233  59.5670128   0.5557860  31.8386707  60.3525009
  -0.6525202  31.2988052  59.6179771  86.1253204   5.5860839   4.2491512
  86.9673080   5.1309252   4.2381401  86.2109909   6.2644629   3.5793052
  25.0679893  13.6838360  19.9398441  24.9265442  12.8150949  19.5636616
  25.0204926  14.2793283  19.1919365  14.1285133  53.1358490  29.7968407
  14.5156355  53.7967834  29.2227898  14.1926899  53.5133400  30.6741161
   5.0898414  51.4655952  64.6465302   4.6468129  50.7217674  65.0547943
   4.5159550  51.7187691  63.9234848  55.5253067   6.0723958  19.8932667
  55.2392616   6.7482424  19.2787418  56.4174538   5.8608446  19.6183987
  39.8502464  52.9853325  10.1474648  40.3163185  53.7882042  10.3807030
  38.9378586  53.2578049  10.0497742  42.5143738  28.2171955  29.6552734
  43.3761940  27.8069191  29.5833740  41.9011841  27.5365391  29.3779030
  57.2299919  21.4247742  76.3294449  56.8159180  20.9070911  75.6389542
  57.3029404  22.3041306  75.9584427  77.8423538  35.4397850   0.5742650
  78.7187271  35.4793587   0.1913261  77.9903336  35.1866608   1.4854519
  66.4972992   6.7494483   2.5761294  66.1917496   7.6486406   2.6958127
  66.4872055   6.6172323   1.6281583  85.4453201  20.0964603  79.9428329
  85.3192596  20.4428539  79.0594635  85.7705688  20.8415375  80.4481125
  13.3781013  21.4199066   4.9616418  12.6467552  20.8030453   4.9907146
  13.8018255  21.3294258   5.8151655  63.9476814   7.3559709  78.6518173
  64.6099930   7.9380150  79.0243759  64.3619156   6.4930511  78.6481857
  62.8573647  26.2521915  86.4761963  63.5195389  26.1218357  85.7974014
  62.3199730  25.4608326  86.4416809  76.5810776  12.7834225  33.0007401
  76.4578171  13.1990862  33.8541222  75.7096024  12.7862844  32.6048241
   2.0326715  10.8875980  88.0847015   1.3400391  11.3663654  88.5399704
   2.8431017  11.1949759  88.4908447  29.7320995  44.2378960  22.4800892
  28.9968910  44.8507843  22.4717369  29.6543674  43.7820053  23.3181534
   8.7155924  67.5315094  66.7257080   9.5389357  67.3857040  67.1916275
   8.9669685  67.5753632  65.8031464  22.7496834  17.1362553   7.6119304
  21.9752254  17.6168156   7.3195095  23.4748020  17.7467556   7.4787941
  42.1478195  22.7189331  59.0192566  41.9446793  22.8339424  58.0909576
  41.7646675  21.8713226  59.2450562  41.7391167  10.4510822   0.0557043
  42.5084114  10.7885113   0.5145714  41.3375969   9.8429995   0.6763882
  57.8088646  66.1960754  26.6967430  58.0971794  65.2936172  26.8333855
  57.1984749  66.3638229  27.4147377  17.8967896   8.2038288  27.9332485
  17.2292271   8.0954103  28.6106224  17.6865711   9.0421286  27.5217953
  78.4454803  45.9958839   4.3362432  78.3045654  46.4566536   5.1633253
  77.6008148  45.5899811   4.1412697  72.4256592  38.6177902  25.2970982
  72.0196075  38.2393913  24.5172443  72.4712067  39.5558548  25.1121922
  60.4474564  12.9183216  36.1591644  61.0453110  12.4812574  35.5527191
  60.7910461  13.8085642  36.2343292  26.4953079  36.6877785  16.7824821
  26.0161076  37.4950600  16.9692802  26.8032417  36.7948227  15.8825102
  83.4730835  44.1853104  34.4293900  84.1360474  44.8015556  34.1180115
  83.9695511  43.4070091  34.6823730   2.5066020  30.0355759  58.6382751
   2.9505179  30.5907917  57.9972572   1.8292733  30.5979786  59.0139885
  67.1490173  18.1962681  11.0454769  67.7592010  18.8144608  10.6432953
  66.4505920  18.0941696  10.3989429  23.9355392  15.6016836  68.2195435
  23.0147228  15.5979843  67.9581680  24.0136909  14.8699837  68.8317032
  35.9297104  59.1723289  72.4300003  36.4223366  59.9317436  72.7412033
  36.3926888  58.8939095  71.6398315  69.8401489  49.5953407  72.8488617
  70.4587097  49.6376114  72.1195984  69.0734177  49.1509132  72.4871292
  22.8196640  70.5869293  19.6526241  22.8133163  71.1534500  20.4241467
  23.7364407  70.3312454  19.5507603  43.3394089  53.4392281  81.1887207
  43.5965157  52.5774078  80.8610153  42.7300110  53.7736664  80.5306778
  11.5166225  31.2569733  31.0363121  11.9702368  31.2634487  30.1934452
  10.7455368  30.7092571  30.8891220  80.4753799  32.5159149  47.8913765
  79.9628067  33.2710114  47.6027031  81.3565521  32.6825104  47.5567017
  17.4309444  61.4988594  78.1190796  17.6310978  62.0094872  77.3345871
  16.4762154  61.4302597  78.1230850  82.0843048  42.3423347  18.2649689
  82.1532059  43.2928429  18.3545227  81.3230133  42.1063728  18.7950554
  80.0159073  29.7259350  20.2202263  80.2979126  28.8533707  19.9457493
  79.6719818  29.5993652  21.1044922   5.3947606  35.6015167  26.5531845
   6.0472260  35.4579353  25.8676872   5.8222270  35.3048897  27.3566265
  68.2761002  23.0730095  23.3343582  67.8599777  22.3262386  22.9037704
  67.5535583  23.6692371  23.5310268  62.4520950  43.8025780  62.4462128
  62.0258293  43.0465393  62.8498611  61.9156990  44.5497513  62.7112541
  54.0578842  53.3382263   0.2558590  53.1796532  53.2984657   0.6344843
  54.2672195  54.2719955   0.2339604  56.3353348  37.1828384  72.6856918
  55.4204597  37.3079453  72.4335327  56.6240120  36.4278603  72.1729507
  31.1747532  18.3821430  11.6392641  31.6318264  19.0814762  12.1064329
  30.5011806  18.0856724  12.2513399  42.0393333  48.9673653   1.8310549
  42.4798241  49.5345192   2.4639347  42.4869766  49.1397781   1.0027314
  58.0703964  26.4428463  77.7492905  57.7484169  25.6222801  78.1224289
  57.4572487  26.6409550  77.0414505  36.2874260  18.7696323  11.0154190
  37.0730171  19.3163815  11.0274782  35.7715797  19.1076527  10.2833834
  75.2510757  34.7927742  51.8494644  75.0617065  34.7480087  50.9122505
  75.1644363  33.8897018  52.1547241  52.6074638   8.1712008   7.2146153
  52.0463905   8.5050859   6.5146508  52.2800980   8.5962763   8.0073166
  83.4637909  10.3080988  48.3950920  84.0527420  10.9577188  48.7789726
  83.4693146  10.5038490  47.4581375  21.9570827  67.0425034   9.7681580
  22.3175411  67.2373886   8.9031029  21.3546085  67.7650146   9.9449081
  64.8380585  43.1258125  50.8113518  64.6954575  43.5669022  51.6488075
  64.0258484  42.6448135  50.6526375  34.1574402  63.7687912   9.2702789
  33.7097816  63.8540726  10.1120377  33.9264336  64.5664520   8.7942514
  20.9184551  26.1602612  77.1689987  20.9540348  25.2364902  77.4172211
  21.3584003  26.1971722  76.3196945  77.3388596  13.8291807  30.4325466
  77.7433472  13.0537806  30.0434742  76.8928528  13.5005226  31.2131195
   0.9986302  32.4199562  80.8203430   0.3384290  31.7698402  80.5801010
   0.9745065  33.0599747  80.1089859  74.8550034   1.8101882  12.5745802
  75.2344055   1.1773856  13.1843739  75.2984543   2.6338539  12.7774553
  79.5632782  50.4588356  43.5229378  79.1906815  50.8069725  44.3330040
  79.7837143  49.5510063  43.7314682  29.2442074   3.4022970  14.8246775
  29.8446903   2.6764035  14.6551752  28.3722534   3.0187907  14.7305927
   9.2777376  31.3355293  71.9607620   9.9174643  31.4844799  71.2644882
   9.7354288  31.5843525  72.7637787  47.9562263  54.4885406  56.1715927
  47.2880249  55.1688118  56.2550812  47.5316658  53.7967682  55.6642113
  26.8563347  43.3751831   5.1304889  26.8232040  43.7983398   5.9884338
  26.2548904  42.6343193   5.2054553   0.1280024  64.3773346   2.2435720
   0.7921517  64.3141251   1.5571738   0.3420162  65.1851883   2.7102623
  20.2538815  49.8973427  47.8960190  19.4101658  50.2010918  48.2308540
  20.1875725  48.9425507  47.9103851  14.4928436  25.2333279  42.1133575
  15.0224628  24.5424557  41.7153244  14.5507126  25.9641285  41.4978790
  55.2860641  41.4026985  31.2254448  54.3330116  41.3201141  31.1922379
  55.4536476  41.9310150  32.0058479  54.1073952  61.2874069  17.7356644
  53.5438576  60.5142860  17.7049732  54.9837990  60.9386597  17.8985329
   1.9140948  19.0226097  72.2669067   1.6169503  19.0451202  71.3572693
   2.8619206  18.9034710  72.2063675  64.5159454  59.7722588  66.1019287
  64.9844131  59.0569687  66.5321960  65.2067719  60.3481827  65.7743607
  27.8566704  21.4716034  87.1925659  28.0512886  22.2580070  86.6827393
  28.7044983  21.0408268  87.3014297  31.9161358  45.0552521  88.4969330
  32.6482849  44.8620796  89.0824890  31.3574448  45.6481094  88.9995422
  55.4785995  28.7663002  24.2253723  55.8372536  27.8843822  24.3244610
  54.6145248  28.6311474  23.8363457  72.5143051  55.1090698  22.9627247
  72.3749313  55.2853851  22.0322838  72.7909164  54.1932487  22.9941444
  31.8330669  15.7171431  10.6596870  30.9098492  15.4903154  10.5481043
  31.8274269  16.6537762  10.8569660  63.7964516  15.1845264  18.7050514
  62.9000778  15.3019333  19.0196323  64.2092972  16.0384464  18.8339386
   4.3983169  69.6272507  44.1555405   4.5311623  68.6968765  43.9739227
   3.5464649  69.8277359  43.7677422  82.9803085  46.0030212  26.1461506
  83.7388535  46.0318680  26.7292576  82.7485428  45.0754356  26.1003666
  52.2286110   5.1202340   7.0761409  51.4010391   5.2712498   7.5328135
  52.7172661   5.9353814   7.1900864  64.2171021  58.8573837  40.0115700
  64.4985275  58.8004875  39.0984497  64.3653870  57.9794884  40.3630486
  77.5605240  38.9099159  62.4157333  77.4804459  38.3357811  61.6540337
  77.9407272  38.3539124  63.0958366  86.8590698   6.3188028  72.9750290
  86.0521622   6.7496643  72.6930923  87.0942307   6.7609019  73.7907944
  53.0829468  25.2184792  29.1194477  52.7168159  25.3812637  29.9887466
  53.8592377  24.6828804  29.2829704   7.5968871  13.9489222  63.6350060
   7.0054088  13.2764606  63.9729118   7.0192604  14.5889301  63.2191086
  81.3490906  62.0045586  29.2548885  81.3077316  61.2785568  29.8773384
  81.9297409  62.6426926  29.6694489  82.6685257  34.4123459  73.3630066
  81.8494110  34.8857498  73.2174911  83.2641602  34.7536316  72.6959457
  52.8645821  29.9573116  17.1738358  52.0099220  29.6797581  17.5036125
  53.3082695  29.1414852  16.9418831  15.6897755  56.8944283  30.9414291
  16.0331478  56.8364067  31.8330345  16.0634117  56.1369095  30.4911060
   4.0099196  15.1371183   5.0862942   4.0535688  15.8306255   4.4279828
   3.8328505  14.3414145   4.5845633  54.8248863   1.1985923  76.5283356
  54.2267570   0.9407521  75.8269119  55.6861610   0.9093068  76.2270813
  40.7412872  12.2403126  72.1252747  39.8239708  12.1387377  72.3791351
  41.0214653  11.3580732  71.8815842   9.8877192   5.9895535  55.0101471
  10.1299753   5.1025524  54.7441139   9.8704290   5.9564300  55.9666176
  70.7337112  43.4500198  51.8221054  70.4289932  43.4252205  50.9150429
  71.3004761  44.2202797  51.8633957  39.4496078   4.4820795   7.3498459
  39.8389397   4.2866154   8.2021627  39.6659737   5.4011855   7.1928062
  74.1110382  58.1948395  58.1950607  74.7743301  57.6185989  57.8152847
  73.8656006  58.7816238  57.4797440  24.2034283  17.9989376  14.1288147
  24.4646130  17.0794506  14.0782108  23.6243973  18.0419140  14.8898067
  44.0382729   2.1545899  44.0968742  43.6616364   1.3424621  44.4357338
  43.6869545   2.8379736  44.6676559  41.0414467  56.2837372  24.5958061
  40.4022446  55.9995995  23.9424171  41.0862312  55.5580902  25.2184334
  12.9979200  19.7764797  12.1794891  12.5868416  20.1854439  12.9410629
  13.7469444  20.3384342  11.9809895  67.3410339  60.3389931  22.9856739
  66.9093094  59.4919586  23.0969563  67.4661789  60.6630516  23.8776131
  20.8831749   2.6544571  57.2294121  20.2269135   3.2585676  57.5766945
  20.3786812   1.8961173  56.9350700  29.6115780   9.3275366  67.3366928
  29.5530510   9.9349604  68.0741501  29.6590977   9.8917112  66.5648880
  79.7941666   3.8166711  25.8713970  80.2593689   4.5234666  26.3188953
  79.0358734   3.6390688  26.4278889  46.6222572  65.9822769  18.7351055
  46.7395058  65.2504883  19.3408813  45.8709793  66.4629135  19.0826759
  64.2905807  39.8178406  54.4322891  64.7561951  40.6346588  54.2527199
  64.8131256  39.1437721  53.9977684  12.2755318  61.0973396  45.4198036
  11.4354944  61.2628517  44.9918137  12.2359724  61.6058731  46.2297783
   5.0789089  64.3600235  88.2448196   5.1809759  65.2148590  87.8263931
   5.0619259  63.7378883  87.5175705  80.5382156  19.0858803  61.4751663
  79.7753754  18.7562332  61.9501877  80.5108871  18.6313343  60.6332207
  65.2204742  71.4711227  19.3897667  65.0700455  71.0540619  20.2381001
  65.0330276  70.7851410  18.7490425  64.6278229  68.1465836  39.6658134
  63.8366623  68.6315765  39.4311256  65.0615005  67.9766693  38.8295784
  83.3078232  11.4630098  82.8961411  84.1076050  11.5913782  83.4061356
  83.5290985  11.7789078  82.0200806  30.4225044  54.8830719  20.5892620
  29.9289131  55.2388229  19.8503170  30.4115086  55.5818901  21.2432976
  61.4010544  70.4163818   2.8738763  61.9339523  70.5598450   3.6559687
  61.8610725  69.7279587   2.3935766   0.9059581  26.9680672  74.0532532
   1.4625168  26.5279980  73.4107437   1.2343276  26.6672554  74.9005508
  37.0465927   4.5698271  18.5869083  36.6973877   5.2702436  18.0358124
  37.0549583   3.7995853  18.0186749  14.6217566  47.0587959  85.1585464
  13.7106094  47.1377373  85.4410553  14.5921993  47.1999092  84.2122650
  83.7283020  38.7417984  71.2518005  83.1455917  38.9813118  70.5311584
  83.3568726  39.1817207  72.0164871  33.2072868  13.4402399   5.3826351
  33.2146759  12.5493164   5.0327325  33.5906219  13.9740686   4.6867094
  66.4519043  64.0302353  54.0283241  67.0353928  64.0302963  54.7871170
  66.5851898  63.1730309  53.6237640  64.9255905  45.4822731   1.5351377
  64.0089722  45.6885262   1.3520814  64.9123840  44.5705605   1.8264093
  12.3225451  68.3672485  55.5501823  12.8675861  67.8218384  56.1173553
  12.7713814  69.2123871  55.5273514  70.4676437  69.7184448  77.6626968
  71.2101059  69.4362335  77.1285248  70.8236237  69.7911453  78.5482635
  72.9789581  11.9311543  43.9038963  72.8776321  10.9830770  43.9882584
  73.1713409  12.2314482  44.7921791  64.0640640  24.4112816  81.1907730
  63.2303925  24.6240540  80.7713013  64.7260437  24.7990360  80.6183548
  33.3604050  63.2907829  44.0594177  32.7116280  62.6607552  43.7457619
  33.9843979  63.3712463  43.3380356  19.9326363  34.4778404  74.5726852
  20.0809898  34.0080757  75.3933792  19.8096294  35.3894539  74.8373718
  78.7999954  33.9975395   9.7367363  79.0557327  33.1021957   9.5149450
  78.1421432  34.2281837   9.0807886   0.7572298  34.0594902   8.5234108
   0.9966629  34.6997986   9.1934156   1.5198344  34.0202179   7.9462419
  26.4053535  49.4332428  13.4204607  26.6076660  49.5489006  12.4920607
  26.7166443  50.2376785  13.8354502  10.5450401  18.2447491  75.3982849
   9.8762970  18.7556839  75.8543091  11.3438234  18.7651901  75.4838257
  60.8157310  12.7511806  29.1933041  61.2602272  12.2542973  28.5064545
  60.2080612  13.3208809  28.7217007  86.7162094  28.4947033  67.3105621
  87.0940552  29.3174038  66.9997101  85.8838959  28.7488976  67.7091522
  60.6973000  21.8705292  34.0222168  60.9024010  22.4680271  34.7413559
  60.8000450  22.4018421  33.2326698  61.8428078  43.4477348  76.3165512
  61.7964592  43.5273819  75.3637924  60.9581261  43.1933517  76.5789490
  29.7687893  68.5504990  10.5252695  29.4293633  68.8084564   9.6682501
  30.0763645  67.6526566  10.4007196  52.1425056   9.5000601  82.1845169
  52.4345512  10.4115973  82.1779633  52.6935120   9.0673285  81.5323181
  30.2800941   2.5097177  80.0123978  29.8716831   2.7065122  79.1693649
  31.0077190   3.1283598  80.0762558  34.9687805  38.3447380  79.5422745
  34.2535515  38.1009102  78.9547195  35.6384430  37.6769676  79.3944092
  71.8040695  63.0055771  26.2580395  72.4081879  62.5885162  26.8723164
  71.9238434  63.9439468  26.4041290  85.0153885  32.2820587  70.7656555
  85.5782394  31.5209465  70.6237411  85.1375198  32.5013618  71.6893616
  85.7252274  12.8170433  72.5320740  86.5450287  12.8968430  72.0444336
  85.6526108  13.6403675  73.0148697  27.6554565  15.8368645  62.2641258
  28.5032406  16.2427597  62.4450722  27.6829052  15.6312885  61.3296623
  48.9519119   7.4266381   3.8560433  49.5007553   6.7004099   4.1520085
  48.6861076   7.1803803   2.9700763  31.2150288   0.2942235  77.5844421
  31.6956234   1.0160867  77.9896240  30.2942638   0.5410709  77.6709824
  19.8931713  67.6190491   5.9937267  20.6218109  68.0421066   5.5394850
  20.2451668  66.7752609   6.2771935  33.3121262  51.7683258  30.3047695
  33.1458321  50.9180832  30.7117901  34.1002388  52.0925026  30.7406807
  58.3857727  15.3583612  25.5662251  59.1685562  14.8789625  25.2948303
  57.6579514  14.7873144  25.3204269  24.8213882  38.9512634  83.4456482
  25.2689266  38.9434509  82.5995483  25.5182819  39.1039467  84.0838165
  42.0430527  58.9455528  26.1922665  42.4152985  58.1001778  25.9412556
  41.1879311  58.9677505  25.7627220  24.6705322  50.4939919  85.9120331
  24.4135151  49.7305374  85.3950195  24.0315647  50.5272713  86.6239700
  32.2372513  63.6352844  30.7543335  33.1113853  63.5050125  30.3867054
  31.6677914  63.7290459  29.9906864  38.3352089  65.7844620  20.6319790
  39.1591263  65.4959183  21.0245743  38.5132294  66.6747284  20.3287201
   7.0439334  61.3922768   6.3662047   6.9854350  61.8864670   7.1838756
   7.9299016  61.0299416   6.3681993  26.6999969  37.7699890  80.5604782
  27.3959293  38.4230423  80.4867935  26.9058456  37.1233978  79.8853607
  16.6113777   3.1095157  43.2970085  16.9598541   3.9701746  43.0644951
  15.7860479   3.0474083  42.8161697  21.5997467   5.0744796  75.1995392
  21.3104401   5.0448818  74.2875900  22.1887951   4.3252401  75.2883835
  13.9479189  62.9022446  71.4231567  14.4504070  62.3057938  70.8681946
  13.7696247  63.6576424  70.8629684  56.8415260  14.2964687  13.8340664
  56.4339981  15.1568317  13.9336948  57.1741562  14.2914886  12.9365339
  80.1786499  51.5184937  57.5597610  79.6218948  51.4084244  56.7889557
  79.9674072  52.3936806  57.8848038   1.1907656   1.0786870  35.3857918
   1.6124641   1.6360121  36.0398483   1.3289527   1.5361170  34.5563965
  28.7300644  51.0146103  34.9726372  28.2939777  51.8146477  35.2658958
  28.0179691  50.3893547  34.8377151  38.7438202  57.3419075  56.3185730
  39.2002907  58.0659180  55.8900032  38.8302650  56.6095314  55.7083397
  13.0220861  67.8857422  48.8761864  13.1657524  67.8152618  49.8199158
  12.6310520  67.0474167  48.6301689  55.9200325   2.5969729  36.1236916
  56.8741188   2.6465797  36.0645981  55.6923752   1.7945387  35.6541138
  75.8922424   8.3434486  44.6866760  76.6781769   7.9243731  44.3360825
  75.1793518   8.0086136  44.1427155   5.9006114   2.1885502  22.5001278
   6.7229056   1.7434905  22.7050343   6.1234245   3.1194143  22.5089703
   1.6213076   1.7081364  18.8548660   2.2585764   2.3788798  18.6094608
   1.8053193   1.5288696  19.7769470  13.1954575  61.0450058  31.1131535
  14.1479464  60.9736099  31.1755981  12.8661203  60.2931519  31.6055794
  22.6033974  11.9061022  29.1660633  23.0037918  11.0740137  28.9139843
  22.0803642  12.1602793  28.4057579  39.8979378  16.8467541  51.4875984
  40.5055885  16.8318634  50.7481575  40.4335251  17.1203518  52.2322617
  69.7947388  42.7443733  23.5637741  69.7901077  43.1939430  24.4088192
  69.0603409  43.1279106  23.0844040  75.9688721   2.9720383   2.5741923
  75.9723358   2.2182169   1.9842997  76.7720566   2.8789532   3.0865018
   5.5640683  15.3373489  62.1086693   5.4448953  16.2396049  61.8120804
   4.6761384  14.9841394  62.1639404  60.9715347  60.5748825  83.2760086
  61.3906326  61.1361084  83.9283981  60.1803284  60.2541008  83.7088242
  64.1939392  25.4656086  32.6102142  63.4783630  24.8486519  32.7636604
  64.4849319  25.7176647  33.4865799  38.4853096  70.4155121  82.8542404
  38.8576088  71.0272369  83.4893951  38.5090637  70.8894196  82.0229340
  13.7961884   1.6337368  22.7385159  14.0480118   1.2325495  21.9067326
  12.8673506   1.8398228  22.6335354  86.2144241  13.4035339   8.2720594
  86.1326981  12.5887413   8.7677069  85.4357986  13.4245672   7.7157030
  11.0335760  45.7700348  80.6706238  10.7758074  45.8353844  81.5901413
  11.4421787  46.6134529  80.4758911  51.0920143   9.5387535  61.2605400
  51.0312462   9.4470387  60.3096809  52.0291672   9.6294956  61.4330063
  53.3463669  59.9316940  77.6851578  52.7332954  59.6110992  77.0236511
  53.1899986  60.8754196  77.7192764  47.3377991   7.5223355  14.4854259
  46.4414787   7.5993614  14.1584578  47.4519539   6.5869107  14.6532974
  30.2686329  42.5989418  24.6629143  30.8140888  43.3646507  24.4829121
  29.9021797  42.7647629  25.5315018  40.8916779   1.1945314  34.6476288
  40.2072182   0.6604055  35.0506859  41.6128082   1.1744008  35.2767525
  51.1502571  69.6651840  21.0272675  50.9758720  70.2880020  21.7329025
  50.7139587  70.0411377  20.2627182  42.2420349  67.2050858   3.7584875
  42.8505096  67.8751907   3.4471309  42.3438873  67.2126846   4.7102227
   5.4477410  15.2460423  37.9320297   4.8390546  14.7355375  38.4659958
   5.9888759  14.5901566  37.4924660  26.9419384  70.1353683  59.3149147
  26.4562664  70.5463028  58.5997276  26.2855587  69.9860764  59.9954338
  43.9273796  18.7748013  31.9432220  43.8767166  18.4974060  31.0285015
  44.8468246  18.6529484  32.1798820  54.0103607  32.7088356   4.8124361
  54.9149666  32.8880348   4.5559120  53.7439461  31.9772549   4.2556214
  54.9143791  19.1549816  15.7815838  55.3878326  19.0033398  16.5995560
  54.0978546  19.5750999  16.0518036  84.6293640  68.9866943  17.8297749
  84.9475250  68.7464218  18.6999912  83.6830215  69.0809555  17.9383392
   4.1581945   7.9291282  62.4332504   4.4603634   7.9467125  63.3413353
   4.9438305   7.7320681  61.9231758  59.6900558  10.3199778  15.1852341
  60.4181328  10.7338247  14.7216959  59.2777252  11.0347500  15.6703262
   2.4160886  57.6789818  68.9572906   1.5453713  57.7469749  68.5655518
   2.3193271  58.0702286  69.8255005  82.1891251  35.6302567  20.3145542
  82.5581741  35.6803055  21.1963310  81.9489288  34.7099113  20.2073212
  75.3944397  37.5746231  44.1282310  76.2788391  37.3848305  44.4413528
  75.2523880  36.9488640  43.4179649  27.0673294  26.1470394  22.9266300
  27.2475853  25.8067970  22.0502872  27.8596497  26.6287231  23.1641998
  24.7283859  28.1942711  16.2472534  25.5300274  28.3335896  15.7430773
  24.2350597  29.0078220  16.1423931  12.8025684  20.7956257  42.2465591
  12.6447535  21.5698128  42.7868919  13.5118189  21.0546684  41.6582603
  15.4724989  15.5931168  84.6780090  14.7630978  15.8834543  85.2513199
  16.0505829  15.0876131  85.2494202  21.2767067  12.0016966  50.6319237
  21.0790215  12.6054211  51.3479309  22.1460171  11.6594782  50.8402939
   4.3918700  70.2286301  67.7246780   4.4787054  71.1756134  67.6155624
   5.0886569  69.8600693  67.1816483   1.1117574  20.0740356  56.0552177
   1.6525637  20.2711601  56.8200073   0.7491946  19.2066727  56.2353897
  57.8055992   0.4970725  43.7675819  58.2090034  -0.3682229  43.8365707
  58.5360222   1.0879384  43.5843010  86.7755585  52.6917419  39.1963539
  86.6476822  52.1679306  38.4054680  86.0477295  52.4453201  39.7671204
  27.0971718  36.1391449  78.2191086  27.2941113  36.6944656  77.4647446
  26.8488274  35.2968712  77.8381500  13.2793436  49.9592056  25.8478470
  12.3375130  49.8672600  25.9918346  13.3531380  50.3019295  24.9571609
   3.1331391   2.8698499   8.1028519   3.6092451   2.3370168   7.4659500
   3.5183363   3.7422812   8.0208845  70.3231812  61.8031769  81.7411728
  70.1396790  62.7262039  81.9160385  70.5712967  61.4428406  82.5925446
  11.3328161  29.7180843  61.0938148  11.1477327  29.7684326  62.0316010
  10.4741192  29.7853165  60.6762619  64.1347656  22.0068531  35.9944000
  63.3695869  22.1580162  36.5492744  64.4303741  22.8838329  35.7499504
  12.0034313  28.6680603   7.3640866  12.2787485  29.3418579   6.7424526
  12.7183971  28.6212482   7.9988022  84.3324203  21.2209854  13.3879318
  84.8323822  21.8834801  12.9111004  84.6322479  20.3875084  13.0250931
  17.9939823  69.9500504  75.6393051  18.1435776  70.8377533  75.9646149
  18.7067699  69.7991714  75.0184937   0.5784782  64.4820480  31.3744755
   1.3516982  64.0577545  31.0025330   0.9074658  64.9481583  32.1430702
  26.9772415  41.4187737  89.0421371  26.1381035  41.1683235  88.6556702
  26.7523136  42.0838852  89.6927261   5.0634885  10.8556957  66.7030792
   5.2918730  10.4245768  67.5266113   5.2769341  11.7774639  66.8480453
  83.6527863  66.4019547  16.8164139  83.7919388  67.2324219  17.2716007
  83.8826294  66.5865326  15.9057360  41.3327866   4.8968730  40.9745636
  40.7753830   5.5948191  40.6304588  40.7386475   4.1575851  41.1037407
   0.2717542  31.0727062  66.3369904   0.5719803  31.9129372  66.6835556
  -0.6561590  31.2100449  66.1463394   4.5838461   3.7560711  60.6065292
   4.1376176   4.0888963  59.8278503   5.1840744   3.0896342  60.2721329
  67.4997711  41.9641075  10.3056049  67.2782593  42.8377533   9.9832563
  66.6737823  41.6162758  10.6417284  33.4212570   4.4365473  24.3255196
  33.3601227   4.8041620  25.2071972  32.5171661   4.2290192  24.0893326
   4.1711268  17.7526035  24.5873795   3.4684746  17.1838932  24.2726078
   4.8380265  17.7111092  23.9019928  78.2921600  61.2371864  36.6796150
  78.6100998  62.1271019  36.5272942  77.6917114  61.0697517  35.9532089
  23.9378853  13.7309618  85.9032669  24.5987225  14.0589170  86.5131607
  23.5060425  14.5183220  85.5718994  69.8983841   6.2987218  12.4907656
  70.4483414   5.5304279  12.6440783  69.2372208   6.2617769  13.1819439
  39.9068718  58.3233871  21.4801102  38.9712868  58.1268616  21.4322109
  40.1285973  58.6471748  20.6070518  46.6960335  65.1343536  47.3311958
  46.5542107  64.8591690  46.4254379  47.4939423  65.6621246  47.2990303
   5.4390464  70.4875336  63.9153748   4.4996963  70.5084305  64.0981827
   5.8407092  70.2531433  64.7520142  73.9158630  43.2056007  77.2240906
  74.6922302  42.6579590  77.1075287  73.3933258  43.0509377  76.4371567
  78.1628113  23.2541904  55.5291367  77.3536377  23.6356335  55.1885834
  77.8795700  22.7049274  56.2601089  30.8649158  24.1965904   4.3584280
  31.1103268  25.0383301   3.9743955  31.3624325  24.1516991   5.1749425
  19.0477600  37.4247246  59.9437904  19.5656681  38.2238541  59.8468590
  18.3418884  37.5177002  59.3039970  25.5054207  63.6749992  61.4743805
  25.7389545  63.0257454  60.8109283  25.9195328  63.3571892  62.2767143
  47.0877609  29.5686321  21.0437431  47.0870857  29.4507256  20.0938320
  47.2882309  30.4960728  21.1698322  41.1369019   7.9301190  50.7317467
  41.5241623   7.9740677  51.6060066  40.2883606   8.3634510  50.8236008
  69.6827011  15.1314096  78.0150986  69.7253647  14.1781101  78.0901413
  69.5759888  15.4380121  78.9155579   1.3587403  32.6953812  19.2127018
   1.4500139  32.4741173  18.2859116   1.7984024  31.9810848  19.6739063
  15.9637814   4.2839026  26.7000370  15.5396204   5.1202445  26.5080719
  15.2416515   3.6917555  26.9100895  55.6076355  18.7109680  53.6422043
  55.8409805  19.2666588  54.3858376  54.7258110  18.3982677  53.8442879
  25.1172867   2.9600976  75.3888931  25.6006222   3.6027510  75.9081421
  25.5906200   2.1390011  75.5230179  36.7570457  59.8726883  18.4851093
  36.9230080  60.7089729  18.9202118  35.9354401  60.0073280  18.0128021
   7.4524579  13.5830355   8.1413050   6.6196589  13.5171843   8.6085739
   8.0010834  12.9032717   8.5326653  34.4123688  25.1254368  27.4509602
  33.5709076  25.5779476  27.3925571  35.0184021  25.6827202  26.9627113
   3.5736496  47.9548950   1.3962508   3.3209221  47.1600227   0.9266300
   3.1673298  48.6655807   0.9002049  65.1700821  47.5107689  72.8902206
  64.9145050  46.8301506  73.5128555  64.3524323  47.9613914  72.6789856
  31.0571766  46.2537117   3.6092451  30.3165894  45.7118912   3.8816314
  31.8131027  45.6686172   3.6590030  37.9055367  48.0938263  81.5138931
  38.1397514  47.8020325  80.6328506  38.4514961  47.5639420  82.0947342
  63.5621262  56.7250900  83.1817703  62.6261292  56.5874290  83.3273239
  63.6027641  57.4239464  82.5289459  65.0335770  46.5052948  40.1566658
  64.1326752  46.7787056  40.3294334  65.5125580  47.3244514  40.0310059
   4.4629893  35.8565750  36.6507759   4.3523827  35.3683014  37.4666100
   4.0471449  36.7020721  36.8194084  75.9631805  52.5859795  44.6910133
  75.5193634  52.4744453  45.5317383  75.9537048  53.5309334  44.5386810
  52.4608688  65.2641602  75.7300110  52.2437363  64.6759567  75.0067520
  53.3823090  65.0842972  75.9166412   9.5946693  58.2253723   8.3284130
  10.3277750  57.6192245   8.2217712   8.9614077  57.7440224   8.8608732
  73.6693726  11.9709053  79.2181168  73.5928268  12.7317495  78.6423645
  72.8787003  11.4596491  79.0458069  59.7905502   0.8880854  62.3025055
  59.0185509   0.8546981  61.7375832  59.8849945  -0.0056075  62.6320877
  81.3493652  17.1925335  49.6275673  82.2703247  17.4374866  49.5377617
  81.1088867  17.4832363  50.5072823  47.1091042  55.5946350  80.3331223
  46.8009071  55.3858681  79.4512711  47.9664841  55.9981804  80.1979218
  13.9062595  14.1787615  68.3399124  14.6220627  14.3435793  67.7261581
  14.2079792  14.5554991  69.1665039  65.9278793  43.3717957  24.4637566
  66.5977097  42.7646446  24.1492367  65.5675964  43.7639503  23.6683674
  18.2219124  61.4270782  36.7651215  18.0886135  62.2601547  37.2172813
  18.4832134  61.6750259  35.8782883  50.9835243   8.5436974  21.5894928
  50.0573883   8.5896282  21.8269558  51.0108261   8.8272333  20.6756592
  67.9374466  50.5412025  38.3502998  68.4579468  51.3171196  38.1422920
  67.2001572  50.8769836  38.8600883   4.0186863  46.5539055  70.3990250
   3.5835447  46.2192001  69.6148987   4.0728292  45.7981491  70.9839554
  36.6316757  58.7527046  67.9245605  36.7992744  59.5049934  68.4921875
  37.4123344  58.2061615  68.0145111  61.1396065  69.3711090  20.2357826
  60.6078949  69.9479828  19.6873932  61.6156998  69.9646149  20.8165722
  67.5175400  69.1939850  80.9466629  68.3017197  69.7240067  81.0893784
  66.9005203  69.4946976  81.6138077  59.0935020  21.4322910  57.7318001
  60.0364380  21.3742352  57.8858376  58.9625702  22.3113136  57.3762589
  73.9204865  34.2474747  24.5225525  73.7979126  34.9371872  23.8702431
  74.2258835  34.7083588  25.3039322  68.3132324  27.5849953  50.4049644
  68.1608124  28.5197124  50.5438995  67.4598312  27.2394733  50.1431503
  15.7902908  64.4267502  18.1147957  16.5308151  64.9670258  17.8392010
  16.0845413  63.5269470  17.9733410   3.2850227  69.2198563  25.2235603
   3.6408875  69.6782303  24.4623203   2.9325607  69.9153824  25.7787628
  52.3074455  19.6143398  21.8130703  52.9085693  19.8526020  22.5188427
  52.8047981  19.0014725  21.2715263  15.8504896  52.3248940  65.7176437
  16.5628796  52.2943115  66.3562317  15.2972145  53.0490074  66.0105209
  20.9928589   6.9940977  48.6840172  21.7604828   6.7360649  49.1943130
  20.3029118   6.3953466  48.9698563  19.6118526   7.6840816  44.2477531
  20.5448189   7.8807478  44.1633377  19.5704823   7.0025582  44.9186096
  69.3026352  24.9314060  83.5874939  68.8997879  24.3448906  82.9472275
  68.5973434  25.5247765  83.8457718   1.0306896  57.0701675  32.5263863
   1.5823759  56.6623802  33.1939049   0.5657360  56.3386269  32.1203079
  70.7620010  63.1153374  74.9724350  70.3018646  62.5877838  75.6252670
  70.1139374  63.7579041  74.6837311  58.0369415  38.4204445   7.4106584
  57.6496506  38.6709824   6.5719290  58.5892792  39.1642990   7.6511507
  58.9428368  63.5526009  69.1832809  58.9814377  62.8716011  69.8548355
  59.6511841  64.1545563  69.4115982  82.7640381   5.8591003  66.7816620
  82.2537613   5.5575209  67.5332565  82.1171188   5.9830132  66.0871353
   4.9242859  45.2908630  59.8367844   5.2578583  44.5042763  60.2683449
   4.0567651  45.0402222  59.5192642  11.8727274  41.6924896  50.3782959
  11.3900576  41.1669426  51.0163078  12.7384777  41.2860680  50.3391418
  74.4431458  57.5587921  24.2621784  74.2772522  57.8065834  23.3526115
  74.8026505  56.6733589  24.2074490  48.1946793  45.5415382  12.8545856
  48.9593048  45.7799797  13.3787270  48.5568695  45.0767326  12.1002617
  18.7445736  23.2247753  88.5209045  19.1199856  24.1052532  88.5134583
  18.8310432  22.9352016  89.4291458  19.1139870  17.1149940  73.0315399
  19.0395775  17.5753841  73.8674393  19.9033489  16.5811100  73.1215820
  76.6141586  32.3585205  56.8040161  76.8930893  31.4481449  56.9022331
  76.6465759  32.5185280  55.8608398  38.9206161  67.3908005  71.2551880
  38.5089340  68.2495651  71.3514786  38.2321091  66.8346481  70.8906479
  61.1716614  63.4294930  30.7259254  61.6324921  63.1149025  29.9481735
  60.2978554  63.0445633  30.6586533   5.1323986  48.3315201  86.4597778
   5.7823472  47.6871834  86.1793671   4.3287053  48.0729256  86.0087357
  20.1008568  66.2466431  74.8696823  19.1555805  66.1411667  74.7621536
  20.4792271  65.4960861  74.4117050  66.5410385   5.8152122  59.9861908
  65.8139572   5.3823233  60.4336243  66.1361847   6.2476697  59.2343216
  13.1349955  55.9884834  75.7027893  13.2316513  55.9450150  74.7514801
  12.4256983  56.6157417  75.8430557  25.3595848   0.7130149  13.9386930
  25.0317898   1.2868805  13.2462626  24.5764351   0.2878096  14.2881327
  34.9609108  62.2336044  48.2843933  34.1592598  62.7480659  48.1899872
  35.6660042  62.8799171  48.2475700  34.7636490  24.0260506  11.6906700
  35.7072868  23.9785366  11.5373135  34.4680977  23.1165829  11.6488123
  64.6464386  42.2672424  32.0021553  63.9209824  41.7414093  32.3389816
  64.8929062  42.8322678  32.7344322  39.3940697   5.6012306  33.9822731
  39.0191078   5.8141165  34.8368568  39.5533752   6.4513130  33.5721359
   7.9327526  19.3811817   9.0602589   7.4012666  19.8778381   9.6824207
   8.7281246  19.1624546   9.5458241  28.1986847  49.4297028  29.9414406
  28.7740536  48.9262581  29.3654823  28.6290741  49.3994408  30.7958889
  69.3315811  55.4289589  64.2855301  69.0002975  54.5418015  64.1461258
  69.9985962  55.3315125  64.9651031  54.5177460   3.3791113   0.3757445
  54.0012703   2.9048510  -0.2758378  55.3195801   2.8643093   0.4667275
  70.4188156  32.1592560  82.3309402  70.8673553  32.3154907  83.1619873
  70.3084641  33.0307732  81.9507904  34.8759346  11.5752993  18.0404205
  35.2431259  10.7097607  17.8608570  35.3469086  12.1626205  17.4492607
  52.1121674  49.3890686  85.0255814  51.6645470  48.7744675  84.4440918
  53.0252876  49.3679924  84.7392197  34.0655518   9.6393919  10.9682531
  33.8682785   9.8494215  10.0554543  34.1385231   8.6851091  10.9840698
  83.2077026  49.4757957  43.1984978  82.5406418  50.1338768  43.3939285
  82.7962036  48.9023018  42.5519638  44.5308495  60.5188942  59.6533775
  45.0110054  60.0010643  60.2995491  43.7687073  59.9825096  59.4350624
  23.9117432  55.8684731  83.8507996  24.7050648  56.4039154  83.8378067
  23.9909039  55.3043404  83.0815659  30.3325729  50.5845184  68.4346466
  30.3969269  50.2510986  67.5397034  30.9628086  50.0621185  68.9307709
  29.4478607   0.9347523  25.6274548  28.7889996   0.5214364  26.1854019
  29.3468513   1.8723125  25.7918015  69.1368790   9.7214785  48.9455299
  68.9922791  10.1243849  49.8016777  68.4840622   9.0231829  48.8961067
  44.6269455  47.4102173  28.2575302  44.3268929  48.2784843  27.9886284
  45.5267830  47.5486717  28.5530853  83.3495178  21.3288918   2.9624391
  84.2939224  21.4109764   3.0950680  82.9655991  21.9450359   3.5862987
  67.2282944  67.4071884  72.7246399  68.0860291  67.2427292  73.1164017
  67.4230270  67.6840363  71.8292847  71.0673752  38.5636444  12.2218304
  70.5253448  38.7203293  11.4485989  71.1217041  39.4164772  12.6530561
   4.0402236  37.8532410  15.9325428   3.7848122  37.3826637  15.1390982
   4.1734762  38.7558937  15.6432467  33.1241417  71.6807251  29.6244545
  32.3236809  72.0208054  29.2246571  33.2347832  70.8122101  29.2375793
  39.7429886   7.1292348   8.1461754  40.3449326   7.8229527   7.8766389
  40.1313820   6.7720327   8.9447908  52.5455856  70.7841187   3.2088826
  53.3351936  71.3065109   3.3497918  52.0286751  71.2946701   2.5856891
  18.8885250  42.7596474   0.2219558  19.3620510  43.2081299   0.9225749
  19.3805637  42.9691391  -0.5719233  47.4725685  66.8351746   8.3043442
  46.8018913  66.9682236   7.6344748  47.9650955  67.6558456   8.3164644
  70.5862122  39.4404793  27.4917374  71.2382736  39.0400543  26.9166622
  69.9643555  39.8571510  26.8951607  83.3230438  69.9959183  86.3656540
  84.2608032  70.1093063  86.5205383  82.9026489  70.4789810  87.0770950
  31.9637241  58.4946060  74.6885223  31.5826168  57.8920784  74.0498199
  32.8881187  58.5476875  74.4458160  70.1696854  46.4079361  36.5632172
  70.6755905  46.2826767  35.7603416  70.3511963  47.3113861  36.8221855
  67.5952606  62.7179108  69.5367432  68.1796265  63.2241592  68.9724197
  66.9233856  63.3432770  69.8082809  40.7602463  16.2771702  70.4774628
  40.2062149  16.1985455  71.2540588  41.5017395  15.6977272  70.6525726
  24.5974941  55.5701218   7.6891174  25.2953491  55.3686790   8.3125381
  24.0635109  56.2295113   8.1321735  48.4523544  64.0317001  56.3969345
  49.2602158  64.5426941  56.3471451  48.6644936  63.2053680  55.9628830
  17.4218884  13.9134197  21.7272835  16.8383904  13.1936989  21.9676247
  16.9734421  14.6995773  22.0388680  69.6620255  46.3306084  47.2361603
  70.3802414  45.7829285  46.9192390  69.1430130  46.5207977  46.4546928
  78.8354263  35.2239876  40.6913414  78.8799667  35.0343399  41.6285095
  79.0803375  34.4009056  40.2685127  71.9839096   3.7354469  55.4804649
  71.7442551   2.9423668  55.9598618  72.0751038   4.4061050  56.1573181
  49.8535347   6.4374332  81.3646698  50.5900116   5.8517303  81.1892014
  49.7814903   6.9746308  80.5757065  40.1916046   7.7255726  63.2669411
  40.0327682   6.7906632  63.1367607  41.1435127   7.8153648  63.2217369
  17.2569523  67.6328506   8.8062658  17.7304249  68.3264847   8.3470011
  17.0640602  68.0040436   9.6672182  69.5996094  45.7463913  64.6119537
  69.6762390  46.6806870  64.4184189  69.7562714  45.3142395  63.7723541
   9.2649746  59.8423843  51.5154533   8.8001499  59.9631386  52.3434563
   8.8022327  59.1243820  51.0835075  17.1732864  58.4043694   9.6753798
  16.4753170  58.1646309  10.2849674  17.2891922  57.6285210   9.1268759
  36.8957520  33.3315315  13.0644598  37.5182991  33.4985733  13.7721062
  37.3194656  32.6636238  12.5253868  56.6299095  52.1343193  18.6500874
  56.6493340  52.7611198  17.9269142  56.6607933  52.6767998  19.4381199
  69.5602264  53.3314362  44.8890839  69.7373428  52.8303871  44.0929604
  70.4247665  53.4975357  45.2648582   4.6901326  61.5902977  33.8021202
   5.0320106  62.0954475  34.5398026   5.3006124  61.7681313  33.0866318
   2.2722831   8.3335209  24.2932148   2.6850600   8.3910236  25.1549244
   1.4198451   7.9322720  24.4622746  58.9842606  62.0128517  24.3738823
  59.3069649  61.2533379  24.8588848  59.7683411  62.5298920  24.1891613
  73.3801804  59.8369484  55.9116516  72.4989929  59.4752808  55.8170662
  73.6700974  59.9992332  55.0139656  10.6523056   0.6355222  83.7689285
  10.6518250   0.6464234  82.8117905  10.0077505  -0.0329439  84.0011673
  28.1989307  12.7674828  57.6065292  29.0422192  13.0583239  57.9536705
  28.0014572  13.3885660  56.9054642  57.6723022  28.7550640  21.6861649
  58.6007118  28.8284111  21.4650078  57.2209206  29.2213497  20.9825573
   6.7218432  38.6171646  17.7803764   6.9855919  37.9715233  18.4359779
   6.1725664  38.1268158  17.1687546   3.4772427  15.0294342  18.3333931
   3.4995167  15.8697596  17.8755836   2.6330340  14.6478519  18.0926876
  45.4500122  50.4595451   5.3316679  44.7667046  50.2003479   4.7134933
  45.7478905  49.6362190   5.7184916  29.7810154  33.0923843   4.9388385
  29.4478226  33.0788994   5.8360748  29.8093491  34.0208473   4.7077956
  73.0036087  21.9792118  60.2775497  72.8565903  21.0337887  60.3056793
  73.0546722  22.2411194  61.1968040  31.8592415  23.3882332  82.3839569
  30.9980698  23.1604557  82.7342834  31.9082947  22.9240093  81.5483017
  74.0651474  50.4474220  34.8663826  74.5577164  50.9448738  34.2135849
  74.5473709  50.5800819  35.6825294  74.7673569  41.2602234  73.1478729
  73.8825836  41.3864326  72.8051224  74.6351166  40.9300919  74.0365524
  77.7344437  36.4185448  60.4721222  78.6297836  36.7532310  60.4212685
  77.6637726  35.8107643  59.7360268   2.2685349  62.6165924  32.7363510
   2.9645462  61.9765816  32.8852921   1.4581896  62.1222038  32.8594398
  42.4514313  18.6157303  22.7778950  42.2688141  19.4756718  23.1565571
  42.9374771  18.1520767  23.4598160  16.1116695  24.2325401  63.1183662
  15.8687305  23.3130093  63.2264290  16.0048275  24.4000530  62.1820145
  61.2019119  46.0059547  43.7501183  61.0024300  46.6654739  44.4145546
  62.0526428  45.6530495  44.0107803  34.1566048  14.3619165   9.2333250
  34.6349106  14.7666235   9.9569731  33.2391052  14.5748606   9.4038582
  84.8874664  35.2509689  75.1205673  85.5157700  35.0712204  74.4211731
  84.1372528  34.6920280  74.9180679  37.2520218   6.9779682  57.0647812
  37.8321915   7.5539627  57.5626411  36.4444885   7.4816384  56.9626122
  74.7028732  50.4536629   4.0934906  75.1246948  49.6135254   3.9132991
  75.3244476  51.1073303   3.7731812   6.9503608  70.8974991  70.0687332
   6.6664648  71.4975281  69.3790894   7.5995979  70.3358917  69.6452713
  75.7771759  38.7046700  68.7324753  74.9370956  38.7572708  69.1882477
  76.4300079  38.7070770  69.4325027  37.3570061  27.1498432   9.7730532
  36.6693039  27.8132877   9.8290586  37.7251701  27.1113892  10.6557817
   8.9631281  10.5815773  83.9740448   8.9928017  10.1817923  83.1048355
   9.5198851  11.3566999  83.9002991  56.5805244  13.4529572  85.8069687
  57.1336365  14.0619726  86.2962570  56.0567207  14.0127211  85.2338028
  22.9911900  66.5512390  31.8192425  22.8110104  67.4824677  31.9479885
  23.7694874  66.5326309  31.2623386   9.3428421  50.6963844  71.2948608
   9.5188723  51.4206734  70.6943130   9.7635984  50.9569435  72.1141891
  22.7587528  14.0822449  70.9951019  21.8764629  14.3155327  71.2838440
  23.3007755  14.8269291  71.2556610  48.1267586   3.7823398  78.1843872
  48.8338432   4.4028826  78.0077820  47.4027138   4.0813680  77.6343231
  85.2386627   8.6097088  68.5856934  86.1641464   8.7893019  68.7514038
  85.2177887   8.2641573  67.6932907  74.8183823  23.9481144  24.7242966
  74.3013458  24.7080822  24.9914227  74.7260742  23.3290806  25.4485264
  29.4044075  40.9055176  28.4365005  29.3409462  41.7201462  27.9379196
  28.8820095  41.0645485  29.2226562  72.7095566  54.7500839  64.6826248
  73.2637329  55.4547958  65.0180359  72.9644394  54.6614227  63.7642555
  48.9864159  56.8100662  14.9134550  49.1312561  57.1141090  14.0174589
  48.2321014  56.2243690  14.8486423  26.9150867  16.4885845  32.6313629
  26.4352989  16.6108742  31.8121681  26.2354698  16.3209419  33.2842407
  59.2929802  68.9479675   8.8495483  60.1130600  69.4006653   9.0464582
  59.0875664  68.4653702   9.6502542  26.4643803  33.2478256  83.1017303
  26.9455318  33.8568039  83.6619720  25.6770535  33.7285004  82.8461990
  81.4228363  52.4471626  85.2790070  81.0038834  53.0321655  85.9102631
  80.9498825  51.6198120  85.3686600  64.0643768  33.0463409  23.6795979
  64.6445999  32.3095169  23.8710575  64.4854431  33.7976151  24.0973530
  19.5480061  65.1400452  10.8459578  19.9205284  65.9793549  10.5757351
  20.2417736  64.5034790  10.6736126  54.5661507  47.4802055  28.9460678
  54.6206169  48.3328094  28.5144081  54.5349388  46.8492279  28.2269516
  57.7667923  38.6423302  66.5935974  57.7181015  38.0169029  67.3165817
  57.0876045  38.3558807  65.9829559  63.2505951   3.7815676  34.0502701
  62.7269249   4.5651307  33.8828545  64.0587692   4.1127796  34.4419136
  37.3933449  51.3652153  22.2374859  37.6501579  51.8362656  23.0301991
  36.5718575  50.9330521  22.4712105  34.5656967   9.8597765  59.8578911
  35.1305962  10.3152122  59.2336311  33.9722214   9.3441133  59.3118935
   8.4997416  26.2895699  68.5098190   9.2870216  26.1823063  69.0435944
   8.2144880  27.1870251  68.6813812  65.6430969  50.5915184  28.1572742
  65.8535919  49.8701897  27.5643139  65.4711685  50.1678810  28.9982300
  11.6380596  46.6658173  21.9848309  10.8648243  47.2273064  21.9294491
  12.1377649  46.8676338  21.1937580  19.6103210  59.8896408  10.2165594
  19.1613178  60.4444122  10.8544111  18.9198627  59.3348770   9.8536062
  53.3660202  58.3477135  41.6298866  53.8661613  58.8509636  42.2724037
  52.7117271  58.9635925  41.2999916  16.8085098  44.9817276   3.0013754
  16.6130142  44.7538910   3.9102776  16.9726086  44.1412315   2.5737426
  44.3927612  17.1457462  13.4726515  44.7204895  16.4837170  14.0813713
  44.7663002  16.8990269  12.6265850  23.8186626  62.2934380  18.4776726
  24.2072105  62.8949928  19.1128082  24.0955372  61.4249916  18.7698593
  56.3837814  14.2266064  17.7068672  56.5250053  15.0628424  18.1507092
  55.4927635  13.9743490  17.9491138  42.3838615   8.7561893  80.5546570
  42.3151627   7.8937340  80.9641418  41.4783783   9.0559759  80.4742737
   7.7926788  39.3178673   5.6474156   8.0527315  38.3968163   5.6311173
   6.8362961  39.2961655   5.6804829  25.9563255  16.6427288  36.7522507
  26.7213459  17.1978226  36.9034042  25.5882854  16.9613667  35.9280853
   8.7581539  50.3302269  10.7828474   9.0408945  49.9556732   9.9485826
   8.0285196  50.9052658  10.5522013  29.7237720  67.7905045  23.9155998
  29.7937946  68.7433853  23.8577080  30.4487000  67.5311890  24.4843388
  60.1357422  51.8193207  35.2392731  59.8657265  52.7352104  35.1724052
  60.5582924  51.6323776  34.4009781  10.9934845  28.0542679  81.3302155
  11.8457756  28.1098461  80.8980789  10.4915819  27.4420757  80.7921143
  62.7114677  64.8726959  42.3177452  62.4937935  64.9330063  43.2479134
  62.2526436  65.6105118  41.9160652  28.7061939  26.2807579  83.7624359
  27.8268776  25.9663982  83.5521774  29.1741753  26.2593479  82.9277115
  52.8974342  45.5182915  15.9096718  52.3455315  45.9082985  15.2317858
  53.0944481  46.2422905  16.5040092  17.0856247  34.6872406  33.0768852
  17.2819004  33.7885208  33.3414841  16.1295071  34.7326508  33.0739136
  68.2695312   1.7713822  76.6075821  68.2980804   2.6613259  76.2562790
  68.3504410   1.8849988  77.5545654  10.8592052  36.9242630  81.4272079
  10.0345821  36.9226341  80.9411774  10.6339016  37.2962151  82.2799225
  18.5881214  14.5348511  38.4804649  18.3413029  15.4242439  38.7340279
  18.2466431  14.4356785  37.5917664  66.2871704  61.6359978  42.2927933
  66.2577744  60.7216797  42.5745621  66.2219315  61.5948181  41.3387070
   8.5536880  11.4856701  14.4498215   7.9028625  11.6980019  15.1188307
   9.3801308  11.8090830  14.8084698  13.9678049  -0.0484365  32.5827332
  14.5274811   0.6328704  32.2101555  13.6533175  -0.5411233  31.8247185
  55.3729477  59.0425797  30.1736450  56.2851715  59.2178001  30.4046669
  55.3857384  58.9189186  29.2245522  46.2038994  54.3550644   7.8117795
  45.5678864  53.7588806   7.4164491  46.7536011  53.7918816   8.3566513
  15.3407393  14.6156664  39.1745377  16.0553436  14.9815969  38.6533203
  15.3173065  13.6899147  38.9323235  73.7012711  17.0450268  80.5636749
  73.7629623  17.9476566  80.8762207  74.6056595  16.7945099  80.3751221
  57.7567406  55.9241791  56.0284882  58.6823502  55.9233894  56.2723656
  57.7144699  55.3729553  55.2470779  31.8740501   8.9824419  14.7148867
  32.1297569   8.8845358  13.7976847  31.6718616   8.0924597  15.0034752
  42.8495865  58.8498993  68.8746796  42.1521301  58.3380280  68.4650803
  42.3916855  59.4540291  69.4591370  36.8015213   5.1993775   8.0521221
  36.9000931   5.9920006   7.5246143  37.3960876   4.5673175   7.6481133
  26.7999535   4.3975029  36.0377846  27.2239704   3.9223619  36.7524071
  26.5552940   3.7175579  35.4100533  50.7818718  34.9170418  22.8053341
  51.4283524  34.8519630  22.1024418  50.5445213  35.8440857  22.8273697
  42.8764305   6.6109819  29.8432865  42.4418602   5.7880182  30.0671387
  43.8108063   6.4147010  29.9114552  15.8213348  35.3030853  22.6696243
  15.4866047  35.8776512  23.3581448  16.3956566  34.6895561  23.1278477
  13.7433977   2.7673876  17.9296837  14.4368391   2.8590229  17.2762508
  13.3035450   3.6175354  17.9329777  10.8085747  43.4457817  35.1574211
  11.2400951  42.6832275  34.7720184  11.4484282  43.7949638  35.7778168
  33.8425484  56.1422195  79.4105148  33.2133369  56.3037491  78.7074966
  34.6925545  56.1206779  78.9709015   6.9951944  27.3175392  60.4430389
   6.3639102  27.9980774  60.2094193   7.6530976  27.7716713  60.9694977
  83.0812531  51.4147034  80.0567245  83.6036758  51.1173325  79.3118210
  82.4163513  50.7354012  80.1693573  39.1881256   4.9972224  62.9423447
  38.9097443   4.9973845  62.0265198  39.9387321   4.4036441  62.9644127
  64.8624420  33.6126175  72.1917419  65.0072556  32.6994743  72.4396057
  65.6331711  34.0752029  72.5207138   0.4732226  46.3033257  38.1986885
   0.8424196  45.7993317  38.9238892   0.8215576  45.8824387  37.4127159
  66.7282562  60.0519867   0.7352940  66.9627075  59.1239586   0.7295032
  67.5178070  60.5003853   0.4323466  22.6555653  51.8944588  13.9785233
  22.2907848  52.2884560  13.1861010  23.2135906  51.1856270  13.6585245
  10.8461981  64.5031357  35.5060005  10.0885944  64.8176270  35.0126839
  11.5670614  64.5233612  34.8765755   6.5014520  29.5171337  54.0252419
   6.5729051  30.4053783  53.6757507   5.7902479  29.5675278  54.6638985
  14.5555620  34.1796646  63.5662651  14.9488554  34.1898232  64.4388733
  14.2725077  33.2738037  63.4416580  46.7883072  21.3805943  31.3594875
  46.1772423  21.9525642  30.8950691  46.6568604  20.5186424  30.9645271
  69.5840149  46.1910477  15.0900249  70.3473358  45.6512375  15.2953844
  68.8919296  45.5608788  14.8896818   8.4523306  22.0128231  65.1895905
   7.5007176  21.9701710  65.2836380   8.7897778  21.7415848  66.0432816
  40.6162796  14.8561888  47.4466171  41.0618820  14.3468342  46.7696915
  39.9078293  15.3026915  46.9829712  10.5543680  70.8224869  41.8589325
   9.7663975  70.3199310  41.6521263  10.3805027  71.1956863  42.7230644
  49.8711357  22.8713398   2.7234645  49.6623840  22.9541779   1.7929850
  50.5431671  23.5351715   2.8781824  10.3433552  25.0851936  59.4188499
  10.5826492  25.6543636  60.1502991   9.6249447  24.5503712  59.7566147
  84.8205109  56.8920135  76.3121185  83.9433060  57.0802231  75.9784698
  85.1138916  56.1370354  75.8020554  50.4580727  60.6258240  27.6749496
  49.7826271  60.8276558  28.3224621  51.2316284  61.0999222  27.9800358
  48.7190399  46.3722076   1.1728116  48.0886650  45.6638565   1.0420636
  48.2406769  47.1658440   0.9329249  52.8608818  62.5300102  76.9014359
  53.2191544  63.2458496  76.3766022  52.3440781  62.0144577  76.2822800
   2.6906025  39.4787560  43.6671562   2.2221322  39.9859428  44.3301277
   2.6851571  40.0375519  42.8900146  12.6382666  49.0423126  29.2627316
  12.5357304  48.1022301  29.1145439  11.7531977  49.3963852  29.1760368
  40.7566490   3.7591913  13.2548914  40.9381599   2.9668314  12.7494707
  41.2364540   3.6359987  14.0739403  44.7310143  14.8580599  88.2757111
  45.2505417  14.0871592  88.0475922  43.8712730  14.6902466  87.8898239
  66.1800232  16.3081226  79.9008331  65.6031570  15.9959707  80.5979843
  66.0029602  15.7236462  79.1637650  27.0320930  65.4284744  73.4458313
  27.5656643  66.2025604  73.6256180  27.1514854  65.2673950  72.5098648
  53.1815910  58.5463104  52.1726532  52.9399338  58.1316757  51.3444557
  53.3912239  59.4497871  51.9359779  50.7783775  63.7482109  18.3751545
  49.8379440  63.9208603  18.4199905  50.9670563  63.2427330  19.1658020
  74.0004654  68.3451462  32.8059578  73.5454559  68.7985077  32.0962677
  74.8498993  68.7825775  32.8638306  84.4900818  62.0805283  80.1757736
  83.7673874  61.6347656  80.6176300  85.2747192  61.7718925  80.6288910
  61.2709389  53.3723640  21.8906193  60.9799614  54.2006531  21.5091763
  60.4851837  53.0066452  22.2969112  17.3121166  29.4598885  27.5972881
  17.5972385  29.1233406  28.4468002  16.5921326  28.8836460  27.3407726
  22.4139309   4.2226048  71.1588974  23.3207092   3.9375916  71.0459595
  22.3374920   5.0019250  70.6083984  22.7608833  15.2272787  56.4319305
  22.2384338  14.6481895  55.8770103  22.9026413  16.0081253  55.8967514
  37.8256073  63.2932739  85.1468811  37.0344315  63.5106926  84.6539307
  38.3468819  64.0958862  85.1293259  36.2451515  39.2501450  18.6923409
  36.3499565  40.1984024  18.7701340  35.3036270  39.1219025  18.5769520
  86.4344635  56.6543541  49.0228577  87.1774368  56.2701759  49.4882965
  86.2590942  56.0441322  48.3065453  53.4116631  65.6183701  14.6996861
  53.4350090  65.1316299  15.5235624  54.0713348  65.1933136  14.1516037
  40.9382820   1.5063056  46.8345184  40.5653915   1.0992681  46.0525284
  41.7502518   1.0243055  46.9913940  72.4363098  67.3227539   3.4354863
  73.3028793  67.7278824   3.4695837  72.6112518  66.3817444   3.4464903
  39.5901337  17.9623814  36.4917870  40.3886528  18.4900780  36.4803047
  39.4423485  17.7717075  37.4180870  61.8556175   8.5961514  27.2203312
  62.6230927   8.1045322  27.5127792  61.4497490   8.0355406  26.5591049
  86.5727081   4.0944452  52.4039993  86.0319214   3.7752070  53.1264000
  87.3282700   3.5068817  52.3926048   8.9800177  30.8849220   8.6112309
   8.3704967  30.1623726   8.4607687   9.6128082  30.8173046   7.8962231
  73.6358948  11.8687267  34.4964104  73.4550247  11.3034678  35.2474098
  74.0514221  11.2909269  33.8563156  74.1577682   1.1934086  71.2774277
  74.7694016   0.9391320  70.5864334  73.3249588   0.8000349  71.0168076
  80.5168076  44.8002815  48.5120049  80.6602631  43.9420242  48.9108047
  79.7823715  44.6662827  47.9129448  17.6673756  20.5683403  66.2596130
  18.4784565  21.0340214  66.4633713  17.9381351  19.6586189  66.1357956
   7.0439157  71.1277008  61.8046074   7.8882966  70.8377838  62.1498642
   6.4215903  70.9439774  62.5083046  62.6523972  60.6550369  58.0085449
  62.8033447  60.7093315  58.9522057  63.2490616  61.3024330  57.6329079
  82.7625732  45.0596924  87.8191376  82.6237717  45.5793266  87.0273361
  81.9039536  45.0325279  88.2413635  65.9014587  10.6949406  47.3262024
  66.4374313  10.3113394  46.6320686  65.1212769  10.1414032  47.3599739
  17.2934418  30.1885605  83.2626343  18.0056095  29.7127476  82.8352585
  16.5066204  29.9175396  82.7896729  21.4925556  24.9050045  60.1296768
  21.0502357  24.1165752  60.4442673  21.1682911  25.0213642  59.2366219
  65.0618591  14.3944464  58.9513626  64.8815613  15.0475521  58.2752113
  65.2788696  13.5993557  58.4645691   2.5431664  35.4360466   2.4885843
   1.6371230  35.4583015   2.1806526   2.5762632  36.0937462   3.1832547
  82.6138229  22.0956554  82.7915192  82.3849335  23.0088253  82.6184311
  82.3033218  21.6206551  82.0206757  26.5724545  55.2363396  19.8925838
  27.2060108  55.2394676  19.1750679  27.1071720  55.2927399  20.6844978
  46.4159355  22.2680473  25.9269485  47.2540703  22.0655632  26.3425922
  45.9812241  22.8603439  26.5404968   3.3312750  24.7112312  58.7556763
   2.5744379  24.1992626  58.4705124   2.9839613  25.5911789  58.9016075
  69.0954666  61.6555443  14.4653358  69.4715424  62.5270767  14.3419361
  68.5608368  61.5126076  13.6843243  33.0626373  31.1602859   4.6961122
  32.1766281  30.8219070   4.8254080  33.6286774  30.5209961   5.1287098
  25.3424397  32.9260445  31.5524120  25.6270256  32.7046776  32.4391136
  25.0893040  32.0877686  31.1658230  37.0995674  16.8522892  78.1682816
  36.9741058  17.7973843  78.0829239  37.2188797  16.5444031  77.2698364
   4.8714581  48.9687691   9.6485338   4.7378702  48.8325386   8.7105427
   4.1095877  49.4765549   9.9277077  17.8736897  56.2503777  20.8067875
  18.7493362  56.1413078  20.4358692  18.0089760  56.2178459  21.7538204
  42.9224701  61.9691353  48.9978714  43.0642776  61.3765335  48.2596664
  43.3763657  62.7743607  48.7492294  79.0805588  71.3189087  26.7103367
  78.7487259  71.6136017  27.5584393  78.3087387  71.3003616  26.1444817
  69.4298782  31.2217865  13.5128698  69.7382965  30.3504791  13.2640018
  69.9466248  31.8215122  12.9747810  36.6029816  14.3106279   8.1057129
  35.6547813  14.2748394   8.2316866  36.7555733  13.8235264   7.2959728
  64.9682007  31.9139481  58.7793350  64.4994965  31.4196663  58.1068497
  64.2843246  32.2067757  59.3816605  34.9102821  59.0291367   0.0752180
  33.9592857  58.9381752   0.1349134  35.2440758  58.1405106   0.1983313
  25.0300751   4.6508493  17.1631832  25.5386200   3.8401482  17.1826324
  24.5426941   4.6081748  16.3404617  24.5345688  19.5032864   8.4630241
  23.8383255  20.0083675   8.0430574  24.3855572  19.6237545   9.4008484
  74.4180984  21.4852943  65.7465820  73.7661438  20.9742584  66.2261963
  74.9722672  21.8662415  66.4277649  54.7463036  60.2958946  13.3943758
  54.3549843  61.1277046  13.6612072  55.5842896  60.5404701  13.0017014
  53.4631538  62.0148735  28.1701355  53.2078476  62.8789902  27.8471031
  54.2053299  61.7633553  27.6204586   1.2511357  69.2742004  19.2751369
   0.3982363  68.9870682  19.6012459   1.6763057  68.4703598  18.9763203
  39.3258057  70.7682114  50.9846458  38.6395187  71.2988663  50.5801086
  39.9225082  70.5598679  50.2657776  40.1512032  54.0641212  43.2034111
  40.4960899  53.3111801  42.7234497  40.5073509  53.9686623  44.0867462
  38.2170029   7.1506414  51.2587738  38.7214088   6.4611220  50.8270683
  37.3078728   6.8579659  51.1950569  13.8715324  26.3559456  62.3433723
  14.5765829  25.9736347  62.8658409  13.3194494  25.6113148  62.1047058
  58.8224106   3.9938366  88.1937256  58.3597183   3.1578453  88.1365738
  58.4479637   4.5234404  87.4897766  79.1333542  61.3315544  50.0513115
  78.2897034  61.0513191  50.4062119  79.3702011  60.6458244  49.4268837
  68.0330734  26.9062977  86.1821594  68.3325424  26.6469593  87.0535355
  68.8351517  27.1294746  85.7098236   9.8497391  57.9526825  77.7061234
   8.9071836  57.8076630  77.7885284  10.1598406  58.0307121  78.6083374
  39.7382812  61.8420448  65.9420776  39.7305489  61.6191101  66.8729248
  40.0503769  62.7465286  65.9150009  72.9776306  69.7985840  49.8345222
  72.0663300  69.5350418  49.9622269  73.3775482  69.0617905  49.3725357
  30.6688251   5.9604778  59.0600548  30.4348316   5.3719282  59.7777519
  31.6249142   5.9289351  59.0264626  72.6383209  56.6766014  18.1965599
  72.3530884  56.2955780  17.3660831  73.3871841  57.2254028  17.9636230
  59.6939735  61.5016975  57.3467636  59.7566376  61.0955963  58.2112770
  60.3954353  62.1529121  57.3366318  77.4115753  52.6355324  60.9098434
  77.4783936  51.7688789  61.3106804  78.2660522  52.7775383  60.5024796
  25.6031094  30.3789444  57.3247261  24.9814014  30.9998360  56.9449806
  25.8896160  29.8438873  56.5845490  39.9946365   8.2254486   0.9198333
  39.0409088   8.2943954   0.8764610  40.1915054   7.3756251   0.5257848
  64.2413177   4.1958523  10.0125360  64.4355927   4.0606022   9.0850687
  65.0496445   4.5570436  10.3763723  29.4055920  69.8418198  86.2969742
  29.7796459  70.5597916  85.7862549  29.9360371  69.0800323  86.0634537
  18.3285351  44.4561348  14.9775705  17.6635075  43.9651337  14.4949856
  18.0502586  44.4014168  15.8917913  54.5897293   2.6104262  27.7391529
  54.9805031   2.7197948  28.6060810  53.6712990   2.8524034  27.8581657
  44.4914894   5.9593487  58.4988747  44.9283600   5.4984827  59.2150993
  43.6055412   5.5971799  58.4861336  67.8577423  11.9847946  73.7297440
  67.5242004  11.1498203  74.0580826  67.6286850  11.9854031  72.8003616
  23.4959278  48.9961624   6.6401372  23.8963146  49.5642815   5.9819860
  24.2133198  48.4409676   6.9456577  63.3606453  49.4959755   2.6314843
  63.5786781  50.4245033   2.5506957  63.2701416  49.1917496   1.7284411
  42.9337997  17.3595543  42.8228683  41.9828644  17.4684200  42.8127785
  43.2736664  18.2381153  42.9927254  85.0030289  42.4504547  27.5426674
  84.8903198  41.9373474  26.7425098  85.9431763  42.4155884  27.7191200
  28.5805759  55.8029671  47.6080818  29.2725983  56.4625053  47.6565475
  28.6502743  55.4473305  46.7221375  29.4192333  59.4984512  33.3537292
  30.0598297  59.9168930  32.7785988  28.5968018  59.9504128  33.1651344
  75.3234634  45.9478493  18.8802376  75.1652679  45.2327690  18.2639027
  75.8652954  46.5685387  18.3930035  66.1648483  61.9760056  39.6267700
  66.3611069  62.5572014  38.8919754  65.4435730  62.4059982  40.0862389
  85.6345444   0.8604344  19.4947357  86.4211960   0.9999591  20.0219383
  85.9069977   0.2417396  18.8170795  50.1662178  45.6647148   3.5030096
  50.8214989  45.0301476   3.2129059  49.4584351  45.5876007   2.8632207
  52.6209297  40.4626923  70.2076950  52.3192139  40.3370552  69.3080215
  53.5267067  40.7587509  70.1174164  27.5673294  71.3377686  27.2110996
  27.4861107  70.4891815  26.7757397  26.6685982  71.6607666  27.2757759
  59.2653122  24.6960087   5.0324888  60.0790024  24.2996311   5.3439808
  58.7646866  24.8726311   5.8289871  72.0541306  16.7347355  53.3886528
  71.6298447  17.3237286  54.0125885  71.7174988  17.0072479  52.5350456
  85.8657837  68.4332352  20.4885368  85.6503983  69.1843262  21.0414505
  85.2927170  67.7333069  20.8014584  17.1668015  52.5384064  18.2897701
  16.4883118  52.3518372  17.6408672  17.9897156  52.3664970  17.8320656
  55.9242592   6.3547211  79.1245422  56.7867546   6.7600007  79.0346603
  55.3676109   6.8383074  78.5141983   0.9748109  46.4870453  50.9226646
   1.8860323  46.4693069  51.2152252   1.0287385  46.6497231  49.9809303
  55.2712631  24.6491337  81.1995926  55.7188721  23.9598064  81.6902084
  55.0460243  24.2405853  80.3637772  80.4278641  32.1247215  79.9436264
  80.9153976  32.7806473  80.4419327  79.9205551  31.6513405  80.6030045
  73.9623718  19.0031338  35.7623215  74.3817673  18.2587357  36.1938477
  74.5026093  19.1674290  34.9894142  33.2488708  30.1268311  20.3631783
  32.9322472  30.5870934  21.1404419  32.7734604  30.5291748  19.6363087
  48.1690826  15.7241240  48.0789948  48.1488914  16.6692257  47.9286346
  47.6674538  15.3551722  47.3520317  61.7217941  62.0737648  70.9406967
  62.2325783  61.2675819  70.8672180  62.1934547  62.7063675  70.3988571
  83.3104477  56.5875969  45.4134102  83.2540131  55.6421204  45.5516777
  83.2639008  56.6939049  44.4632721  47.1883736   6.4923611  57.3692169
  46.3149719   6.2148113  57.0928688  47.2833366   7.3752866  57.0119286
  69.1698685  19.7836609  10.3449459  69.6763840  19.0288219  10.6447611
  69.3151169  19.8091965   9.3991756  79.6701355  39.8216171  21.6604824
  79.2684479  39.6379433  22.5096836  79.6153564  38.9925156  21.1852741
  49.8379478  39.5128136   9.0409784  50.0373001  40.2372932   8.4480028
  49.6029053  38.7874374   8.4623451  47.7785683  32.0052719  21.6868572
  48.4556885  31.9889736  22.3632240  47.9136810  32.8369560  21.2326775
   4.6265755  58.7528419  42.0467262   3.7438927  58.6635170  41.6873894
   4.5070639  58.6886444  42.9942627  82.4439621  27.4545288  24.9883423
  83.1334991  27.0852451  25.5400734  82.7863159  28.3054218  24.7144718
  43.7058907  44.1106262  11.3472719  43.4592514  43.6535187  12.1512938
  44.5188637  43.6875687  11.0709925  60.1249580  53.7031517  78.6792297
  60.7928009  53.1880188  78.2266235  59.2951508  53.3102837  78.4084930
  23.1224957  44.0165939  71.8731995  22.5441589  43.7210999  71.1700287
  22.5804710  44.6064148  72.3971786  56.8904076  60.2985153  60.8794365
  57.7520752  60.1244316  60.5006828  57.0776825  60.7395058  61.7081032
  45.5869675  59.3852234  83.1647110  45.2837868  58.6113930  82.6898422
  45.7590332  60.0332756  82.4815903   3.3705966  66.8771896  68.7630768
   4.0699024  66.6425323  69.3731079   3.3092539  66.1286545  68.1696396
  20.5092487  65.9112778  15.7902107  20.7374783  65.5174179  14.9481783
  20.8374004  65.2912369  16.4414444  14.5820847  53.2472038  45.1773911
  13.8286171  52.6796646  45.3399315  14.3124151  54.1039429  45.5083046
  85.1254501  32.7503662   7.9752903  86.0704041  32.8719215   8.0675583
  84.7751389  33.6386223   7.9080691  77.8996658  15.9757166  20.0828800
  78.1343079  15.5878134  19.2398472  78.6646957  16.4960098  20.3283596
  45.6260681  54.1774292  70.0385056  45.6989937  53.2297592  69.9252167
  44.8633919  54.4232521  69.5149384  18.8627357  61.7684288  63.6956863
  19.3734989  62.5180359  64.0013733  19.4263821  61.3416824  63.0503807
  48.4081917  70.8637543  73.1719971  47.6269875  71.1470413  73.6470718
  48.9810066  70.5009842  73.8476562  25.7988968  17.3122463  25.3711586
  25.7020607  18.1014156  25.9041386  26.7451229  17.1919308  25.2910728
  41.8508148  13.4600878  49.5079803  41.4586220  12.9741669  48.7825165
  41.9045601  14.3616934  49.1910400   3.5800803  43.5887642  51.0635338
   2.8829515  43.8697510  50.4708405   3.5938795  44.2554932  51.7502022
  52.6644936   4.5919843  31.0049839  53.4731560   4.5417018  31.5146580
  52.3537941   5.4877520  31.1365051  11.2031193  15.7477264  51.7079048
  10.7075434  16.4356861  52.1521416  11.9523344  15.5842562  52.2807770
  40.4165764  45.6596603  78.4764175  39.6722603  46.2315788  78.6638489
  40.1047058  44.7813988  78.6946411  78.6218491  40.1732025  32.4450493
  78.5736160  39.7974205  31.5660210  78.5646210  41.1183624  32.3049469
  57.2369804  46.6833344  22.0659790  56.8236809  46.2090340  21.3445549
  58.1020927  46.2827263  22.1515331  10.1491175  55.0301895  52.1929932
  10.8405666  55.5235786  52.6342354  10.0446196  55.4676285  51.3480339
  81.3264389  34.1557808  29.6920757  81.1485596  33.6262512  28.9147797
  80.7497711  33.7943802  30.3651886  64.2194214  31.8855419  47.8700790
  64.8448105  32.4582443  48.3140717  64.6403198  31.0258484  47.8697586
  63.9031067  22.8764267  14.0488529  63.7565155  22.2168427  13.3708487
  63.4355621  23.6504841  13.7350559  79.8099899  66.8424149   9.8089762
  79.0894012  66.2873154   9.5109053  79.6374054  67.6945114   9.4084921
  86.2835388  68.4298248  79.1824417  85.7015610  68.5004501  78.4257812
  86.6946411  67.5704651  79.0890350  72.5865402  55.3914566  35.4988480
  73.0035477  55.0947800  34.6899490  71.7518997  55.7644653  35.2151794
  82.8035660  69.5679550  28.4234371  83.0437241  68.7851334  27.9277096
  81.8997650  69.4105911  28.6965656  64.9436798  32.9440308  88.6625366
  64.0404434  33.2607231  88.6723175  65.4479828  33.6697807  88.2948532
  39.7018929  65.3662720  55.6479530  40.4116364  65.2889862  56.2855415
  40.0250893  64.9068298  54.8729134  81.7844620   6.8185067  45.3888321
  81.7144852   6.0185590  45.9098091  81.0903168   6.7396626  44.7344780
  14.6548395  50.8560066  63.8118477  15.2422915  51.4158974  64.3194427
  14.5302248  51.3251915  62.9868851  50.2467194  34.2757607  17.4974041
  50.1763763  34.9994621  16.8748760  50.9922485  33.7629395  17.1852684
  39.4619293   0.5568030  58.1687698  39.0508804  -0.0140740  58.8178978
  39.3142929   0.1142924  57.3329353  86.2070618  10.1955214   1.3635112
  86.2699203   9.7074022   0.5425239  85.9367218   9.5432930   2.0098450
  37.4298859  27.1005707  89.3252640  37.7353096  27.7026157  88.6466675
  36.6899605  26.6439476  88.9249725  70.2264633  49.0778732  37.0492516
  69.4081726  49.5582924  37.1750336  70.8848419  49.7585678  36.9098663
  66.6205597  60.6495514  55.5501900  67.2565765  60.5356522  54.8439713
  66.2995071  59.7655525  55.7282562  61.1789703  48.3377304  57.7135544
  61.3147392  48.9455681  56.9866905  61.9535408  47.7754440  57.7034340
   0.7079265  10.9609232  79.2461700  -0.1573261  11.3276596  79.4280319
   0.7507896  10.1702337  79.7839508   8.8850594   8.7613106  29.4208717
   9.1346445   9.0485706  28.5425663   9.4107723   9.3038034  30.0087147
  68.8873978  31.1171665   6.6354671  68.8236618  30.5400639   7.3964677
  69.6091690  30.7560501   6.1208038   3.2376819  54.1519852  24.2074490
   3.5221369  53.3407974  24.6285076   2.3259833  54.2562637  24.4797783
  82.8484650  55.1641045  14.1537714  82.8766785  54.5426407  13.4262991
  81.9556274  55.5088959  14.1397419  83.9800110  15.8918123  85.7218399
  84.4117355  15.5577955  86.5081482  83.8159790  16.8153496  85.9126434
  47.8026772  39.5722694  68.7564850  48.0390282  38.6449623  68.7347565
  48.0173874  39.8533859  69.6459274  17.8159542  53.7048798  86.0387344
  18.6354351  53.2111282  86.0686493  17.6423111  53.9362946  86.9511642
  48.3113060  45.6588020  76.2537460  47.8297577  44.8642159  76.4839020
  48.0051270  46.3143959  76.8803864  74.5456543  57.0493622  85.4805069
  73.9144363  56.5384865  85.9872665  74.7768250  57.7806282  86.0532532
  63.2909508  46.6323318  67.3754349  62.5554008  47.2206230  67.2048111
  63.5139427  46.7876282  68.2932510  84.0795364  45.4393768  42.4947739
  84.1296082  45.1185493  43.3952141  84.7642059  46.1060257  42.4396210
  37.9542694   0.8118992  10.1135492  37.6341820  -0.0177602  10.4677277
  37.1719475   1.2434022   9.7700214  33.5877419  15.1405182  44.2007332
  32.9002495  15.1257944  44.8665962  34.3882866  15.3369589  44.6873207
  71.9073334  63.2278557  61.8334007  71.9361954  63.7607613  62.6280174
  72.8233948  63.0166626  61.6532478  64.7742081  35.2664185   8.6390104
  64.5509720  35.5550919   9.5239201  65.3845825  34.5409126   8.7705841
  28.5873852  56.2518387   3.2237556  28.9239635  56.8441849   2.5513916
  28.2033195  55.5255432   2.7326143  26.4009113  57.3444061  29.5458050
  26.8216991  56.4894447  29.4552040  25.9246330  57.2903519  30.3743382
   7.3059020  53.7279701  73.6003799   7.4448018  53.3257561  74.4577942
   6.3948593  53.5269737  73.3862915  10.8258705  22.5395203   0.6237368
  11.4262857  21.9730721   1.1083711  11.3390121  23.3246174   0.4325778
  69.9127960  24.3877087  48.8952637  69.0507889  24.2978058  48.4889526
  69.7266006  24.6541634  49.7955742  45.7684898  58.7984161  23.3185387
  45.4735870  58.3249054  24.0963879  46.2216110  58.1384239  22.7938251
  58.9886208  39.4081116  31.0999336  59.7787552  39.3132172  30.5680370
  59.2175293  39.0134621  31.9414120   0.7643219  67.9809647  86.0571671
   0.9847136  67.4330597  85.3038635   0.1301494  67.4628830  86.5527878
  50.8525772  66.8746262  16.5814095  50.8142319  66.7485962  15.6333179
  50.0341454  67.3218155  16.7968750  10.0698271  47.5344696  34.9238625
  10.8497219  47.2650642  35.4090576   9.8017874  46.7494202  34.4462852
  79.3290482  63.3800812  59.1562767  79.6063080  62.5623512  58.7431450
  78.5024261  63.1625175  59.5870895  52.9443855  28.5132904   9.5097275
  53.1290207  27.5901985   9.6830587  53.7112427  28.9779491   9.8447752
  70.0164413  26.2607403  21.7046661  70.2312393  26.1818428  20.7752209
  69.3498383  26.9468079  21.7390404  45.2676048  15.3320837  67.6200638
  45.0960121  15.4143476  68.5581512  46.2094650  15.1715803  67.5620270
  74.9113388  64.8552246   0.2216448  74.0724564  64.7652969   0.6737745
  75.4974899  65.2331161   0.8772817   3.6043882  54.0744705  53.7529602
   3.7799659  54.5123367  54.5858307   3.2399125  53.2248955  54.0011749
  61.8792267  27.1069241  35.9244308  62.7265091  27.0575638  36.3670464
  62.0983887  27.2014160  34.9974632  74.4418716  21.5374489  52.5911522
  74.6739502  21.6012211  51.6647072  73.6156464  22.0151539  52.6645279
  76.1523361  58.5292130  65.8961258  76.4297409  58.1424828  65.0656357
  75.6806717  57.8257980  66.3421860   3.3836067  10.7685642  23.7967129
   3.4074211  11.1326342  24.6816521   3.0153043   9.8921108  23.9081345
  24.7272720  49.3251419  21.4462967  25.6018276  48.9787788  21.6235390
  24.1761360  48.9457245  22.1307850  37.3927498  38.3397331  30.4174995
  37.6891098  37.4313736  30.4748650  38.0882797  38.8455849  30.8377190
  74.2719803  12.7439890  31.2366142  74.5707092  11.9765053  30.7488003
  73.3562241  12.5557270  31.4419975  66.5738678  49.4686012  51.2619209
  66.8114471  50.1714935  51.8666763  67.3287125  49.3890686  50.6787262
  14.9955740   2.2763569  54.7640800  14.2868452   2.0851247  55.3783798
  15.7884293   1.9867325  55.2154427   0.6637675  55.9216881  77.0882874
   0.8903535  56.8247108  76.8659439   0.0292725  55.6624947  76.4201050
   9.2849283   6.0269909  29.9832821   9.9782372   5.8771639  29.3405476
   8.9984140   6.9258413  29.8213882  44.9955521  21.2262802  77.8261261
  44.9624138  20.2701778  77.7944412  45.4659271  21.4229126  78.6362610
   3.0043185  29.6295357  12.1659184   2.9845598  29.5335808  13.1180916
   3.9332664  29.7199802  11.9535332  71.1372223  67.8928833  47.8304901
  71.9214783  68.4052887  48.0269966  71.4582214  67.1504745  47.3186035
  86.1945877  43.4842529  54.8252220  86.2865677  44.3552475  55.2114067
  87.0929413  43.2033234  54.6512070  85.5743561  42.1136971  75.6001434
  86.1894302  41.5991669  75.0774841  84.9194489  41.4796600  75.8922501
  55.8691025  10.9363890  78.4578094  55.5367928  11.8316565  78.5233688
  56.1456566  10.8497639  77.5455322  81.4783249  51.1635628  22.2804832
  80.6194000  50.7925148  22.4825039  81.4478378  51.3400421  21.3401871
  39.0224724  19.3060703  77.5868378  39.0720978  18.4630890  78.0375595
  39.8150978  19.3382874  77.0511703  51.0121994  53.3265953  83.3363113
  50.6000137  53.8171501  82.6251907  50.3530006  53.3112068  84.0301819
  23.7216206   6.4294691  68.3247299  23.3895588   5.8417883  67.6460495
  22.9761047   6.5655456  68.9094696   7.1220741  41.7810631  87.1872025
   6.5220580  42.4232635  87.5663986   6.8780456  40.9524994  87.5997162
  55.4188194  63.7107162  64.1891937  55.4285126  63.3719368  65.0843811
  54.5116806  63.9799385  64.0447998   7.6242533  23.1792927  21.4708309
   7.0396590  22.5925903  20.9909744   7.3832664  24.0556793  21.1706619
  74.9201126  64.9689789  71.0831451  75.0308151  64.8791428  70.1366196
  75.6469879  64.4713135  71.4576035  25.7275543  61.1719818  62.9210472
  24.8805962  61.4483452  63.2710724  25.9469280  60.3843384  63.4187698
  86.4651260  49.0767212  48.3120689  86.3828812  49.4620934  47.4397430
  85.5636749  48.9033279  48.5832748  43.6778336  45.7827263   3.5536988
  42.9459419  46.0241814   4.1213837  44.4297867  45.7263336   4.1432920
  13.2546158   8.6011391  75.6578522  12.8912754   7.7381554  75.8565369
  14.1526508   8.4242115  75.3777466  20.3490753  26.6150856  72.5709457
  20.7011204  27.3354149  72.0480499  19.8841209  27.0450726  73.2886963
  52.2306252  54.3389015  40.3958893  52.2529831  54.4485321  41.3465271
  51.8272705  53.4810486  40.2631416  38.6281967   5.9277601  74.1712875
  38.7274017   5.4003205  74.9638824  39.2749100   5.5700016  73.5630112
   1.0747826  19.1540718  46.0945358   0.5435213  18.6495457  46.7105255
   1.4685704  19.8446999  46.6276321  16.5585976  65.1962967  53.4286194
  16.5284424  64.6343918  54.2029457  17.3747864  64.9561005  52.9900169
  80.8302536  39.6017036  82.1742401  79.9766083  39.6487617  81.7437744
  81.1482315  40.5045433  82.1749573  16.1185970   0.7333269  84.5270462
  16.9123230   0.7393361  85.0620193  16.2125187   1.4917172  83.9506302
  85.8261795  43.7208328  24.0092163  85.9403458  43.0873489  23.3007679
  85.0376282  44.2079468  23.7701797   6.1817794  43.6493187  18.7286682
   6.2835689  42.8924522  18.1515865   5.7648969  44.3141174  18.1805019
  27.8428631   7.7020183  66.1558304  28.5932598   8.1991129  66.4814529
  27.2990513   7.5548239  66.9296722  32.4543266  23.6571598  31.0974464
  31.6590118  23.6638832  30.5648460  32.3432732  22.9091549  31.6842918
  72.2978973  18.2668552   2.6036260  71.3427582  18.2330132   2.5506418
  72.5757370  17.3563461   2.5035660   2.9902277   4.8689260  78.0234299
   2.3079629   5.1315479  78.6413116   3.6386681   5.5714989  78.0697708
  74.5385284  33.4819870   6.3409362  73.7718506  32.9094391   6.3661823
  74.6763535  33.7380562   7.2528911  23.5818386  50.7674446  78.2635651
  23.0091839  51.4639015  77.9422379  24.2729321  50.7024269  77.6044769
  54.8866463  52.5413170  83.5597916  54.8723488  52.6985359  84.5038834
  55.8137589  52.4294052  83.3496323  13.7149353  66.1167603  80.9080658
  14.4316721  66.7262650  81.0841904  14.0578260  65.5329132  80.2314606
  75.5892792   8.0461521  28.9335060  76.1129150   7.2685223  29.1267204
  75.8995895   8.3368425  28.0759258  46.2291336   1.8517390  63.6402016
  46.6292915   1.8047299  62.7719307  45.9435120   0.9562336  63.8210945
   5.0520329  20.2338295   0.1094688   4.6818843  19.3629055  -0.0344623
   4.4203219  20.6712093   0.6803203  12.9650936  62.6721191  85.0901718
  13.1627455  62.9509888  84.1960754  13.7824183  62.2880211  85.4074707
  26.0159893   5.3206115   6.0262032  25.2836857   5.0207353   6.5647526
  25.6036015   5.6890903   5.2449274  80.9330444  65.5880737  16.5097923
  81.8242722  65.7834625  16.7992134  80.9134445  64.6351700  16.4213295
  23.2903175  66.8104172  12.2479296  22.7155743  67.3014450  12.8351183
  22.8203526  66.7903290  11.4142866  69.3494949  56.4405098  50.2255707
  69.3794327  57.3843803  50.0692177  68.4161301  56.2374535  50.2873497
  61.7310562  18.1884651  52.8987656  60.9499855  18.3935413  52.3848534
  62.4620743  18.4370537  52.3330345  57.2830734  58.3722076  82.1826859
  57.0203018  57.7169266  82.8290482  57.5660248  57.8608475  81.4246063
  17.0036488  38.8703346  34.4922447  17.9477520  39.0189056  34.4391022
  16.8509712  38.1011124  33.9434128   1.6305503  21.9282284  81.6609192
   1.2997826  22.2328930  82.5059128   0.8733047  21.9727802  81.0771179
   2.2215104  36.5313034   4.8141670   2.1513481  37.1204453   5.5653148
   1.4068711  36.0288773   4.8269229  77.1200180  57.2630730  38.0126419
  77.8184280  57.2063446  37.3605423  77.2701492  58.1000175  38.4522057
  16.0166607  58.0649567  34.5078773  15.6876249  57.3653183  35.0722084
  15.2826624  58.2709465  33.9290466  32.6116753  67.4662399  72.7758789
  32.5324211  66.7366867  73.3904572  31.8348846  68.0015106  72.9380798
  16.4466572   8.0786324  69.6110306  15.8460922   8.0341845  68.8670044
  16.0039940   8.6455469  70.2426071  86.7077179  19.8670101  29.0126247
  86.5208588  18.9333057  28.9150963  86.7368164  20.0078793  29.9589558
  37.2160110  51.6719093  84.2475510  37.7632103  52.0737038  84.9223633
  36.4340248  51.3797150  84.7158966  16.0901527   1.2471529  70.8303604
  16.7579460   1.5032083  70.1941833  16.3298817   1.7146012  71.6305237
  34.9487762  66.2769165  61.5180016  34.2037964  66.5341492  62.0611992
  34.5695953  65.7155304  60.8417549  18.5329208  51.3309822  34.5877190
  17.8038464  51.2575340  35.2035828  19.0569038  50.5449371  34.7420158
  78.3892212  40.9862404  78.6653595  78.5693741  40.3321190  79.3405685
  78.5083847  41.8265114  79.1080551  16.9832211  23.0899830  23.3499870
  16.9851513  22.7251854  24.2349472  16.0870514  22.9605999  23.0395451
  11.7499752  71.9124908  79.0540161  12.0534611  71.6949921  79.9353867
  11.6760082  71.0673141  78.6107941  17.2160912  63.5710373  57.9673080
  17.7028217  63.9421577  57.2313766  16.9041405  64.3323898  58.4564514
  84.6811600  19.2810230  83.9048996  85.1422043  19.3290138  84.7423782
  84.7726898  20.1572151  83.5305481  19.4608784   5.0821261  68.6196823
  19.0571938   5.2859621  69.4633179  19.0854301   4.2370515  68.3724594
  24.3567333   8.6386566  82.3526611  25.1453514   8.5418482  81.8188629
  24.6838875   8.7498064  83.2453232  73.1571732  43.0225945   1.9071716
  73.3913727  42.1505241   1.5895644  72.9345627  42.8901024   2.8286510
  77.0519485  61.1046524  34.2486076  76.1697083  61.1302338  34.6190491
  77.2701492  62.0223579  34.0860062   1.3710891  51.0437241  52.7351952
   1.8529875  51.4799004  52.0325165   1.9261453  50.3043671  52.9831772
  82.4203720  56.0976906  55.3802834  81.8465652  55.5840034  54.8118629
  83.0929184  56.4426193  54.7929726  69.6990204  64.1271286  68.0989532
  70.4341965  63.6941566  68.5328674  69.7920380  65.0503082  68.3341675
  57.6124725  46.7998734   2.9367144  58.2992821  46.1987152   2.6483898
  57.9378586  47.1565781   3.7632239   0.1456214  26.7947731  70.3688965
   0.0647298  26.4536018  69.4782333   0.9471012  27.3178539  70.3531418
  79.5574112  50.6679878  28.3799553  79.4130783  51.5139198  28.8039818
  79.8429489  50.0907288  29.0881042  67.7153397   4.0140238   6.4526925
  68.6467361   4.0956173   6.6578093  67.6943207   3.5547705   5.6131229
  38.5700951  35.1028099  22.6262398  38.0156288  34.6092339  23.2305431
  38.3307304  36.0176697  22.7744656  34.9882660  36.1085892   4.0485888
  34.2347603  35.6342163   4.3999205  34.6310043  36.9507751   3.7669513
  23.3748379   8.7470427  37.9552078  23.4956722   8.9359350  37.0246429
  24.2439270   8.8654871  38.3384705  50.2104225  47.1282616  86.3781815
  50.2185478  48.0841827  86.3294373  50.6645203  46.8441162  85.5849075
   8.8212814  29.5954170  60.2315483   7.9836884  30.0478001  60.3316460
   8.8563309  29.3585892  59.3047714  68.0700684  59.9413414  40.2078209
  68.8717041  60.4218025  40.0010147  67.3708267  60.4590454  39.8087158
  15.9002905   4.9725428  71.9500046  15.4752483   4.1203661  72.0467834
  15.1777763   5.6002169  71.9348145  31.5869350  22.4337101  88.1615677
  30.7526836  22.1292706  88.5187454  31.4921684  23.3847542  88.1089783
  54.9617805  43.2846947  77.4282150  54.7473373  44.1741295  77.1468735
  54.2871246  42.7372208  77.0265427  79.4974442   8.0561953  12.8514996
  78.7715454   7.5488572  12.4883137  79.3971634   7.9727359  13.7997665
   0.4386214  22.4444103  17.5616665  -0.2421475  23.1128235  17.6391773
   0.1197521  21.7150154  18.0932083   6.4922090  38.5019073  75.0651550
   6.2102251  38.7806702  74.1939468   6.0620461  39.1131554  75.6631241
  17.5775719   4.7156796  74.1781693  17.3276653   5.0987635  73.3373260
  18.5343437   4.6959267  74.1574707   4.4586220  55.1394920  37.2980461
   5.0042706  55.0137558  38.0743790   3.5683455  55.2169991  37.6410255
  63.2775116  46.4564857  19.5385017  63.0353813  46.6092072  20.4518909
  64.2324448  46.5217323  19.5297375  62.3489418  24.0439548  59.6858063
  61.7920380  24.2182674  58.9270554  61.7679939  23.6188564  60.3167000
   8.6656380  21.2216415  18.3413334   7.9130697  21.7767620  18.5455742
   9.3679390  21.8375874  18.1324883  65.5715561   1.8578883  75.2067566
  66.2182846   1.7984966  75.9099274  65.7856293   1.1306169  74.6223907
  11.9413929  28.5373230  39.5523071  11.7247181  28.5024357  40.4840050
  12.8425236  28.8591881  39.5278587  78.9430313  18.5953465  87.0351028
  79.2521973  19.0097847  86.2295685  78.2525482  19.1766510  87.3537750
   7.8372488   3.3603492  71.7161331   8.2841883   3.6741929  72.5022507
   8.5389214   3.2266600  71.0789413  62.1601830  30.5472336  24.0507240
  62.5628662  29.7738495  23.6558151  62.4287910  31.2719040  23.4859810
  81.7213135  19.5997162  20.4152222  82.4200211  20.1442623  20.7778587
  82.1795120  18.8825169  19.9771481  11.3708897  10.3078194  74.7676392
  11.8466082  11.0605822  75.1187363  11.8815155   9.5489559  75.0498047
  79.1399841  26.7750568  48.8314095  78.6790237  26.9153042  48.0043182
  78.4598083  26.8512077  49.5005875  19.0869312   6.3270497   1.2352257
  19.3951340   6.8183479   0.4737346  18.1440296   6.2374630   1.0968682
  24.6310921   9.6550827  27.7133961  25.3391819   9.7906837  27.0837517
  23.8326416   9.6868858  27.1864300  37.4371986  13.4775591  41.5170555
  38.2740059  13.5321789  41.0555344  37.1066589  12.6031904  41.3110085
  56.4740334  21.6068058  80.0481796  56.5857887  20.6779633  80.2506485
  56.5517349  22.0474339  80.8943710  39.3223648   4.1493301  25.3466587
  39.3913383   3.1996369  25.2488976  38.5598335   4.3895397  24.8202724
  30.5740566  57.1038246  22.2738037  31.2640533  57.4160919  22.8591461
  29.8705463  57.7459030  22.3688946  39.2564468  56.7365761  35.6710052
  39.9687233  57.1979752  35.2282791  39.3137207  57.0252495  36.5818367
  25.3254166  46.6882973   9.6044025  26.2468662  46.4932709   9.7750664
  25.3189888  47.6111488   9.3503618  46.2290459  47.1824913  18.8895950
  45.8151741  46.4955025  18.3671074  45.5990829  47.3656006  19.5866241
  49.0835419  11.6548567  57.6541252  49.8661919  12.1316109  57.3777199
  48.3797798  12.0173149  57.1160088   7.7346601   2.2336559  64.5859604
   6.8461728   2.2811301  64.2330170   7.6826596   2.6869640  65.4274063
  73.3854828  36.9752846  45.7866974  73.8056183  36.7876472  46.6260490
  74.1089554  37.2002907  45.2017250  60.6176834   9.4504948   3.4308720
  60.6511993  10.4050770   3.4931633  60.8056374   9.1457977   4.3186021
  78.3911514  30.3303833  34.6969070  77.8538742  30.2642994  35.4863358
  79.2241821  30.6886196  35.0034332  26.9347248  18.7446613  80.3450851
  27.7890587  18.3202362  80.2662888  27.0253162  19.5590439  79.8503113
  76.3702087  65.4777832  62.2138252  77.1960068  65.8792038  61.9433403
  76.4828796  65.3046722  63.1484756  58.5072975   0.5052468  53.0283089
  58.7828789   0.1442250  52.1857224  57.8473930   1.1611673  52.8035278
  24.4325485  25.6430740  22.3907375  24.3348312  25.1292343  23.1923923
  25.3724518  25.8131199  22.3283176  13.7143183   5.6279383  68.2713928
  12.9266958   5.1021633  68.1319504  13.4687672   6.2502728  68.9559631
  22.6124935  64.6063538  40.9685898  22.8683701  65.4954605  41.2140503
  21.6924324  64.5425491  41.2248077  62.6764259  41.3641052  50.6566124
  62.8299484  40.6289330  51.2500648  62.0704956  41.0197639  50.0004807
  17.2159653  69.1194458  11.0063953  17.5054932  70.0113907  10.8144693
  17.0381222  69.1225204  11.9469242  78.6186447  44.1064453  67.7248077
  79.4090042  43.8935280  67.2285995  78.9234619  44.6842842  68.4243927
  62.4011879   5.7033720   3.6476784  61.4551277   5.6229386   3.7690654
  62.5072479   5.9022188   2.7173867  76.0329285  65.1025162  75.8997955
  75.2956238  64.6050110  75.5461044  76.8058548  64.5977402  75.6467743
   1.0500486  17.0116272  64.7192459   0.5415193  17.6927242  64.2790909
   1.9072466  17.0403881  64.2942581   5.3706074   8.4373922   5.5274854
   5.9956923   9.0825949   5.1970105   5.9093575   7.8006463   5.9970975
  37.7823792  44.6765099  77.0302582  37.6168289  43.8129120  76.6520767
  37.1266518  44.7647667  77.7219772  69.7539444  24.2870178  61.6674614
  69.3071518  25.1275349  61.5667572  69.5270767  23.7988300  60.8759842
  39.1533279   7.6781988  82.4709320  38.9256287   8.6048450  82.3953629
  40.0221634   7.6770444  82.8726273  22.2614632  44.4904709  24.1036358
  21.9921169  45.3958931  23.9490452  22.7755871  44.2581787  23.3303661
  53.6826477   5.2572522  67.8286819  52.7317734   5.2011075  67.7342606
  54.0010796   5.4357657  66.9438248  66.4579163  42.8857040  28.9926891
  66.8179092  42.0874138  28.6062088  67.2221985  43.4381523  29.1567039
  44.9771690  23.2267818  30.4041729  44.2035370  23.6488400  30.7777958
  44.9402771  23.4411430  29.4720135  39.8819466  17.4075165  80.3067932
  39.5415192  17.6831150  81.1578979  39.4276276  16.5855503  80.1218643
   1.0815401  69.4117661   7.2061501   0.4028805  70.0867386   7.2140532
   0.7848915  68.7663269   7.8477421  60.5158157  56.2235603   9.1300774
  60.8987427  55.8919601   9.9422598  61.2564545  56.2955437   8.5279942
  11.8894577  35.4567299  73.1547241  11.0212994  35.3918915  73.5526276
  12.3659115  34.6993294  73.4946823  55.5931511  59.1042137  27.3305550
  55.2646141  58.5235825  26.6441422  55.4374008  59.9862633  26.9929810
  81.9885635  52.2481308  50.5335579  81.1027985  52.3332710  50.1808434
  81.9180756  52.5598717  51.4358215  23.6608791  34.8347130  84.4341736
  23.2079296  35.6396675  84.6854095  23.3893356  34.1924438  85.0899048
  17.3674946  60.3004189  24.7200356  16.5563793  59.8010101  24.6256046
  17.6338291  60.1552505  25.6279030  68.0494537  65.6749191   5.7697062
  67.7395325  66.5799103   5.8039374  67.2556305  65.1543884   5.6467118
  84.1865234  35.4376068  83.3976593  85.0895767  35.4094315  83.0815353
  83.7396317  36.0304375  82.7934418  80.2740250  62.7530403  15.5503817
  79.3501663  62.5056648  15.5894537  80.5489502  62.5132675  14.6654205
  17.7424049  69.3210373  41.4065132  18.2884998  69.3916855  40.6235542
  17.7513809  70.2002182  41.7849159  51.4478645  51.6043739  14.0910530
  50.9670410  51.3939476  14.8915272  51.5387421  50.7656822  13.6387596
   0.1470905  16.0443878  18.7856617   0.7588480  16.7082729  19.1038437
  -0.7171565  16.4380474  18.9054184  65.6960678  63.4181061  44.6472397
  65.6740341  62.9700050  43.8016930  64.8459702  63.2253036  45.0427017
  80.0472412  15.0608683  86.1770554  80.8258743  14.6356602  85.8176575
  80.3902893  15.7810287  86.7061310   8.1914082  10.5068130  39.2471581
   8.3238239   9.8923626  38.5252533   7.5082850  10.1034451  39.7827606
  86.4303131  39.0259781  25.5004883  86.8856201  39.1555023  24.6685314
  85.8733139  39.7990799  25.5915909  66.8251419  18.8125839  17.6620960
  67.4417572  19.3915062  18.1102715  67.2863083  17.9763985  17.5961800
  81.9886551  59.1229820  83.9559402  81.0541534  58.9347649  83.8692551
  82.3511047  58.3457069  84.3810272  43.6077271  67.2757263   0.0536602
  42.6649513  67.1139297   0.0887564  43.8111649  67.6892548   0.8926122
  72.4703064   6.9965901  39.5793533  73.0089798   7.2662902  38.8354988
  72.1606827   6.1214166  39.3460274  70.6314621  58.0880890  81.0615921
  70.3936005  57.1891708  81.2887573  71.2080383  58.3700180  81.7717361
  23.9544735  50.4008636  28.6322575  23.3751488  50.2281303  27.8901138
  24.0268707  51.3548393  28.6626186  65.1851654  36.5745621  48.4926949
  65.6289902  36.4124832  49.3251495  65.3270187  37.5058556  48.3229828
  32.3054390  62.8470039  47.6050224  32.4057045  62.0026970  47.1653366
  31.6494713  63.3113823  47.0851288  33.1464195   7.3805013  46.9459343
  33.8012238   8.0420475  46.7227364  33.4383430   6.5911498  46.4899330
  41.1296730  60.1939697  37.8117905  40.2735672  60.4293518  37.4541435
  41.5541382  61.0333633  37.9892006  63.0362206  51.9077797  10.2593126
  62.1089401  52.1043739  10.3924837  63.1934624  52.1082916   9.3366528
  63.5776024  41.5381432   1.7095653  63.6642342  40.6965599   2.1572986
  64.3010254  42.0653725   2.0485570  56.8960114  42.9106216  12.9338903
  56.3385658  43.6150169  12.6032610  57.7467422  43.3254471  13.0767307
  16.8102493  64.3853760  11.8766489  16.7655907  63.5031052  11.5080833
  17.4465351  64.8426819  11.3268833  35.7878036  23.5396976  83.3070602
  35.3699760  23.0110931  83.9869385  35.3122215  24.3702335  83.3233185
  61.5664368  46.6019669  62.4229507  62.3646812  47.1165581  62.5422401
  61.2683983  46.8232956  61.5406723  61.2709160  19.5127468  83.5195007
  62.0881767  19.0858860  83.7766037  61.4809074  19.9571629  82.6981430
   5.2438493  21.4068718  13.4443493   4.2875419  21.3992252  13.4849586
   5.5152283  20.7274609  14.0615921  14.4127321  41.1317825  49.6497345
  15.2937126  40.7674828  49.7357063  14.2280102  41.0929260  48.7113304
  78.9038467  24.4273853  36.4644699  78.9121704  24.5911961  37.4075127
  79.7958221  24.1448021  36.2625771  59.2751083  19.6488419  25.9508591
  58.6236649  20.1594563  26.4316120  60.1128502  19.9062176  26.3358002
  69.1681290  48.5832901  32.6800423  68.6151886  48.7393990  33.4456329
  70.0107193  48.9754219  32.9091797  80.8020325  54.9112434  34.3022575
  80.5056305  55.0174179  35.2061958  81.7059937  55.2259674  34.3080750
  57.3863297  24.6648979  42.0088921  57.3788223  24.0488377  42.7414513
  58.1412468  24.4018478  41.4824562  30.7118950  18.1177425   8.8916969
  30.9561901  18.3327103   9.7918863  29.8614807  17.6856098   8.9709978
  37.3550720   7.6514783   6.3768110  37.1959457   8.5314016   6.0352778
  38.3056793   7.5470037   6.3360066  71.9184723  54.4257584  16.6537132
  71.3842545  54.3593063  17.4451809  71.3250656  54.7840118  15.9935942
  24.0888882   9.2776918  35.1130257  24.9494801   8.9303074  34.8786392
  23.5588093   9.1559153  34.3253593  23.3840294  67.3857651   0.2689581
  23.2774982  66.4552231   0.4663672  23.0649853  67.4782181  -0.6287587
  64.5678635  49.6485329  45.4389610  65.2992401  49.2877312  45.9401093
  64.0806122  50.1757088  46.0721245  34.0063477  40.7047920  87.3304214
  34.5733261  40.3431931  86.6492386  33.4293289  41.3104630  86.8651886
  84.2400513  57.0382004  50.5970573  85.1801987  56.9234085  50.4585876
  83.8465195  56.2414093  50.2414055  43.0616531   2.2531002   7.8126998
  43.1114693   2.5675025   6.9099813  42.9117012   1.3113090   7.7303810
  83.9560165  57.2580528   4.4500074  84.8006287  56.8097534   4.4935265
  84.1472092  58.0870743   4.0113692  10.4948683  60.6488876  85.5327148
  10.9430752  59.8039284  85.4955444  11.1862345  61.2778664  85.7391891
  76.1906281  43.5499687  28.7971325  76.4514236  44.0545158  29.5676155
  75.4354324  43.0395889  29.0894222  78.7454529  35.7229843  80.7146378
  78.0945663  35.3037071  80.1518021  79.0277252  35.0301018  81.3116837
  75.0020752  41.5666199  24.7161617  74.7444611  40.6512489  24.6067772
  74.7921677  41.9764328  23.8769817  19.9874783  17.9480534  19.5034657
  20.8331413  17.6802883  19.1437607  20.1716595  18.1551552  20.4196644
  60.3027687  15.3172836   5.5236869  61.0471992  14.8941774   5.9515152
  59.5435143  15.0437250   6.0383983  80.2939148  51.7335930  60.5106773
  80.4078903  51.1922073  59.7295609  80.8491974  52.4976883  60.3556175
  12.6357622  64.9876404  67.4460449  11.7005377  64.9214630  67.2531586
  13.0201921  64.2125015  67.0366592  69.3622589  26.2796364  75.0493851
  69.9972763  26.1856861  75.7594299  69.7019196  26.9997082  74.5180130
  71.0391617  10.4577141   4.7364364  71.2791138  11.3490677   4.4831762
  70.6018829  10.0988321   3.9642794  81.0751572  40.0649681  25.1587906
  80.5914383  39.3321915  25.5399513  81.8923035  39.6761551  24.8468342
  70.9034805   1.8401076  63.4229698  70.3976059   1.0828354  63.1282578
  70.4746170   2.5898802  63.0104828  58.0296021  40.9917946  10.5546284
  57.4266624  40.2851524  10.3236456  57.8783989  41.1401138  11.4881010
  78.0128326  57.2229004  58.3876495  77.8881226  56.6132164  59.1149521
  77.2309723  57.1132431  57.8464432  85.6855927  21.0016804  77.0907288
  86.5892105  21.3164921  77.1152267  85.5635147  20.6937466  76.1926727
  63.4478569  32.0334167  69.7367477  62.5117226  31.8680992  69.8487854
  63.6473465  32.7210808  70.3720093  26.1615906  44.0282478  70.3301544
  26.1692963  44.6122932  71.0884781  26.8015690  43.3493843  70.5441742
  55.2715454  13.4843988  28.2283115  55.0615311  14.3038197  27.7803459
  54.9519691  13.6110840  29.1216488   9.1924715  61.7526054  87.9165344
   8.4690666  61.8329086  88.5382004   9.5394707  60.8729858  88.0651627
  38.6557236   2.6085019  81.6932526  38.5550041   3.1964099  80.9446182
  38.0025978   2.9104683  82.3244934  54.9268074  23.9496899   6.8244171
  54.7877846  24.6545429   7.4569421  55.0893974  24.4002094   5.9956651
  33.3957748  60.4159393  14.1800184  32.7420197  59.8310204  14.5630417
  33.1612129  61.2843437  14.5072613  78.1809540  57.0039902  29.3476791
  77.6890945  56.1838188  29.3074055  78.6008453  56.9894791  30.2077465
  79.1056976  61.8510933  31.9058514  78.4250488  62.3742790  32.3292084
  78.6316910  61.3005638  31.2825832  16.9709740  42.2417412  55.4510269
  17.4587040  43.0223312  55.1882896  16.0643406  42.4339523  55.2116470
  39.9772530  56.6434059   5.0013919  39.6141624  57.0694275   5.7778611
  40.6080589  56.0121078   5.3474774  82.1228867  46.0359650  59.4787560
  82.3867798  45.4948273  58.7346039  82.0901871  45.4279861  60.2173538
  86.6188965  22.0459175  87.9211273  87.1821289  21.5124359  88.4818420
  85.7962341  22.1161213  88.4054184  36.3607826   0.2554665  85.0147552
  37.3130226   0.3411545  84.9686203  36.0371666   1.1554763  84.9761887
  58.9759445  71.1903534  27.0710716  58.1088371  71.5836182  26.9726105
  59.0776939  71.0680466  28.0149593  13.5858469  47.9833488  80.1501007
  14.1188879  47.2542267  79.8331223  13.0874081  48.2666245  79.3835907
  60.2019272  28.3243008  28.2976704  60.3445587  28.7701702  27.4627514
  60.6011848  28.9014015  28.9486542  15.1252823  19.9658203  18.0112972
  14.5466518  19.3020706  17.6359901  16.0066586  19.6759300  17.7759800
  21.9672852  28.7206573  75.8956833  22.2249565  28.9880943  75.0134583
  21.5237865  27.8815174  75.7716446  75.8149185  19.0793133  26.2137947
  75.0515289  18.8486614  26.7431965  75.6026917  18.7614403  25.3362160
  71.1683121  46.5791016  59.6714287  70.5329514  46.4974060  58.9601822
  72.0061798  46.7166214  59.2295036  63.5957756  60.4911346  60.6670876
  64.4699860  60.3598175  61.0341644  63.4293594  61.4276848  60.7738991
  22.1115437   2.1616614  14.3708611  22.8862572   2.3669426  13.8474970
  21.4882698   1.7962469  13.7429790  69.7897720  34.7714767  81.2658157
  68.9830627  35.2437325  81.4717712  70.4802017  35.4292450  81.3487625
  51.6657066   1.3889999  65.0308533  52.4056435   1.1430084  64.4756851
  51.7525864   0.8336999  65.8056564  29.4708233  31.7552681   2.4200754
  29.0103683  30.9786701   2.1020980  29.5371914  31.6238670   3.3658879
  53.7272339   3.8384349  49.7262459  54.2425194   4.1890407  50.4527359
  54.0095749   4.3460565  48.9654312   9.3838873  35.5363350   0.9430503
   8.7474594  35.8322716   0.2921939   9.2669287  36.1340942   1.6814523
  57.8991737  60.5097809  39.8640213  57.0704613  60.0397339  39.7717247
  58.2868881  60.1567307  40.6648102   6.0207667  39.1478691  35.0403595
   5.6433039  39.4651260  35.8607864   5.2666807  38.8633041  34.5240211
  65.6016617  50.4133949  82.8706055  66.3002167  49.7621040  82.8067322
  66.0508804  51.2235947  83.1114655  56.8227234  21.4130859  26.5571690
  56.4237022  22.2080498  26.2035522  56.5406456  20.7184143  25.9621105
   2.5666711  11.6233101  53.6898689   2.2468176  10.8751907  53.1856422
   3.3050141  11.2765341  54.1906929  32.5688744  25.8059177  11.6457510
  32.4725876  26.1841602  10.7717409  33.2202835  25.1131268  11.5364780
   5.6771412   1.4232919  59.8549347   4.8485637   1.0132574  60.1030502
   6.3441916   0.7807862  60.0967216  60.1747856  29.1845570  20.4622498
  61.0465202  29.0356274  20.8284874  60.2576942  28.9415855  19.5401192
  45.9515076  69.9852905  16.5176697  45.2186928  69.7494736  17.0865288
  45.9123383  70.9399490  16.4599476  61.6913948  52.9257584  16.6902199
  60.9727898  53.0298996  16.0665245  61.2738838  52.5875206  17.4823742
   2.2709908  14.4066715  75.2958679   1.9902353  13.9586401  76.0937881
   1.5247991  14.3275843  74.7015839  85.0834122  36.4583778  44.9038811
  84.1937714  36.5921326  45.2308083  85.1915054  37.1239319  44.2244797
  44.3637962  18.6058502  74.8748474  45.1157646  18.8996277  74.3605804
  43.9781761  19.4121857  75.2174149  32.1849327   7.3149743  40.1023102
  32.6623688   7.5507374  39.3068810  31.7867050   8.1348858  40.3945236
  86.3968735  51.4755898  80.3770370  85.9936066  50.6507835  80.1063004
  87.2667770  51.4592133  79.9779892  72.0574265  39.6689339  19.9468040
  71.5753937  39.0995598  19.3470612  71.3778076  40.1545753  20.4142475
  28.4888077  69.3885117  81.7342300  28.2120476  70.3036346  81.7809753
  29.4287643  69.4312363  81.5584793  36.9078102  58.9296417  36.3811264
  37.6486168  58.4011917  36.0841827  36.4543648  58.3723907  37.0136490
  81.8268127  60.1771736  34.3746147  81.3127365  59.9697571  35.1549644
  82.3194122  60.9622040  34.6139946  66.0205383  50.1890259  88.4613419
  65.2336731  50.7234421  88.3542328  66.1545792  50.1471519  89.4081802
  24.9678135  55.4240150  17.3084316  25.1954174  55.3388023  18.2342644
  25.0514336  54.5369644  16.9586048  61.0376015  38.9692039   2.2290628
  60.7646294  38.0927048   2.5001123  61.9926071  38.9202309   2.1866553
  64.5457764  54.6851845  74.3539734  63.7992630  55.0800781  74.8045425
  64.3894424  54.8665161  73.4272003  56.4326477  28.0796127  64.4614716
  57.2785149  28.5163975  64.3616638  56.0810699  28.4232655  65.2827682
  49.1042709  26.4504299  11.3948069  49.2593498  25.5424252  11.1345940
  48.2381096  26.4382763  11.8020544  13.0770493  40.4114151  11.3189421
  12.9614000  39.4802208  11.1299095  12.7399225  40.5189362  12.2083330
  30.3309631  57.1544456  28.7151623  30.2878914  57.5882988  29.5673046
  30.1623325  57.8524399  28.0822296  73.2359619  10.2496214  16.1914310
  73.4880524  11.1510487  16.3917046  73.7812424   9.7146463  16.7682323
  66.3304520  29.8948917  27.6642647  67.2127762  30.1813030  27.9002914
  66.4147873  28.9521389  27.5216656  22.2990227  70.8748703  78.2779617
  22.3733730  70.4370193  79.1259003  21.4136963  71.2387466  78.2731094
  51.9143143  17.3112946  33.8792992  52.2531853  18.1327190  34.2351952
  52.0727158  17.3749199  32.9374428  37.4308853   5.0180111  67.2979355
  37.7246857   4.3784842  66.6491547  37.1164703   5.7584033  66.7790985
  15.1132479  54.3652077  71.4718628  15.0342054  54.0880890  70.5590744
  15.7984390  55.0335045  71.4608078  16.0670891  21.5715790  57.8703957
  16.0252876  21.9067249  56.9747620  16.3854446  20.6738625  57.7755890
  53.7798271  27.8524036  12.8024569  53.6037178  27.3154984  12.0298309
  52.9149513  28.1340694  13.1005907  77.4155579   9.2088175  18.2970104
  77.3699265   8.8287249  19.1743240  76.5170364   9.1649504  17.9699535
  63.4367485   4.3932047  24.8634567  64.3467484   4.4673204  25.1509190
  62.9266777   4.4233031  25.6728725   2.9881322  34.6192436  41.1947441
   3.5913169  35.0251656  41.8173409   2.2068155  35.1714706  41.2234268
  82.9709244  32.9657288   0.9065065  82.1474533  32.5240326   0.6990625
  82.9435577  33.7753029   0.3965369  81.2431107  16.1363926  27.8063984
  80.5352020  15.7430811  28.3166962  81.6965485  16.7075691  28.4263878
  71.4795227   9.9567327  74.1258163  70.9900284  10.5213556  73.5276260
  71.1039658   9.0861139  73.9946213  54.4256935  35.4715805  71.4034348
  54.6311798  36.1437531  70.7536697  54.0977287  34.7337837  70.8893127
  57.7488365  42.5277138  18.6280327  57.7924957  41.7740326  19.2164974
  58.6528168  42.6620407  18.3434162   9.2758999  19.5335197  22.4711647
   9.9406967  20.2067471  22.3261070   9.3388824  19.3319492  23.4047794
   0.3155656  17.9580383  48.3578339  -0.3607386  18.5811577  48.6234818
   0.8737947  17.8667908  49.1300316  14.5498924  48.4083900  22.9031181
  13.9560776  49.0651321  23.2668552  14.2090244  48.2373428  22.0251751
  72.9747543  52.0711098  66.3998566  72.6735077  52.9491196  66.1662445
  72.5484848  51.4949303  65.7653885  72.0185776  24.6750660  34.8672905
  72.7873459  24.1660385  34.6101608  71.8994370  24.4763832  35.7960358
   6.0427642  14.6531715  42.9943008   6.8678551  14.4237919  42.5667000
   5.4532766  13.9298105  42.7810287  33.8638649  68.1845551  65.8318634
  33.6556282  68.1382599  64.8987427  33.7057228  69.0987244  66.0674896
  58.4702263  36.3359566  74.5415878  57.8242722  36.7697029  73.9840622
  59.3156471  36.5976181  74.1768494  69.9335480  39.8493805  21.6705914
  69.1377640  39.3248138  21.7588825  70.6229248  39.3045235  22.0502357
  58.2168159  43.9440155  47.0273361  58.4696083  43.3454781  47.7302437
  57.5985031  43.4421768  46.4962234  23.2483025  11.1206932  20.1271305
  23.6212101  11.6147060  19.3969765  22.9368687  11.7908678  20.7354946
  26.4614906  70.0404053  68.8557968  26.5978603  70.4072342  67.9822617
  27.1807804  70.3940506  69.3790436  13.3341026  -0.1537026  11.7285147
  14.0886030   0.3779010  11.4748249  12.5760345   0.3952350  11.5279350
  40.0600510   2.6388056  49.1409416  40.9750252   2.6299968  49.4219666
  40.0947380   2.4371505  48.2058678  79.2947845  70.3967438  77.7529068
  79.5589371  71.3101730  77.8629227  80.0975342  69.8960876  77.8983765
  19.4648380  10.3072186   7.5468001  19.9757347  10.3505955   6.7385092
  19.9574852  10.8406849   8.1704531  22.1008091  55.5303802  32.6278610
  22.9945221  55.8712845  32.5918694  21.9726505  55.1043777  31.7803192
   7.3812599  38.8714142  11.0485954   7.6982117  38.0805092  11.4847622
   7.1303573  38.5777512  10.1727877  63.3235207  59.9312096  69.7648773
  63.7586403  60.6049309  69.2423859  64.0005264  59.6194611  70.3654709
  30.9505424  66.7454071  88.6315994  30.7787762  66.4261780  87.7456970
  31.3802757  67.5909042  88.5023956  76.5389557  42.8814049  10.5943289
  75.9481354  42.6665192  11.3161221  76.9262390  42.0426140  10.3439913
  15.1483479  18.8726101  32.4455910  14.5911713  18.4025497  33.0659409
  15.3482065  18.2278290  31.7669582  11.8366947  40.2281265  22.7645397
  11.3871279  40.0449944  23.5895157  12.3411169  41.0229301  22.9379578
  31.3668785   1.5021774  37.1050911  32.0054016   1.8825620  37.7082710
  31.8763771   1.2798663  36.3258476  83.3049850   4.9668026  17.2515430
  83.9608002   5.6461253  17.4085846  83.3242645   4.4278865  18.0423851
  83.0423508  56.6030617  34.3182030  82.6121750  57.0583153  35.0420265
  82.6736755  57.0032082  33.5306816  14.6083574  43.5859795  54.5492973
  13.7520523  43.1665688  54.6333656  14.5505190  44.3623238  55.1062317
  10.5541039  24.4128036   7.2159953  11.1021595  24.9530106   6.6467476
   9.8222857  24.1450939   6.6601124  86.6631775  65.2234039  28.2733269
  86.6082687  64.9262695  29.1815815  85.8847580  64.8568115  27.8539181
  79.4035873  11.8724079  56.6381721  79.2318192  11.9775763  57.5739403
  78.6869354  11.3213511  56.3235588  84.2798538  28.3326778  19.3614597
  84.5649719  29.2464275  19.3617611  84.5353775  28.0017624  20.2225266
  53.6599274  55.4111443  20.4922714  54.3381233  55.6467285  19.8591976
  52.8418617  55.4654922  19.9982624   8.1078691  20.3765144   0.2014614
   7.1570024  20.2710590   0.2324892   8.2776022  21.1696377   0.7097721
  30.4095192  39.5868797  83.2789688  30.3427963  40.5265007  83.1089935
  30.8685951  39.2373276  82.5152283  47.1951027  17.6152267  36.1069031
  47.5780716  18.4096851  36.4789276  47.8857613  16.9571152  36.1850739
  45.9132118  60.0070381  42.1957283  45.4331360  59.4927673  42.8447914
  46.3761749  59.3556633  41.6688423   1.2560525  20.1611862   0.2742881
   0.9967832  19.6610184   1.0481375   1.9021722  19.6071110  -0.1636172
  65.5841827   1.9148483  50.5243797  66.3315125   1.5881102  51.0253410
  64.8651962   1.3268603  50.7558174  61.9635620   5.7473474  68.4944763
  62.1657600   5.3359637  69.3347855  61.2132759   5.2551594  68.1612244
  14.0706730  63.1491013  48.8060226  14.4973564  63.3385277  49.6416588
  13.6036463  62.3272171  48.9564438  84.4366302  27.0717812  35.8985596
  85.0463638  27.6364250  35.4235420  83.9624557  26.6011295  35.2130852
  77.1278763   6.6940312  62.3630676  76.2225723   6.6614695  62.0538940
  77.3637772   7.6205277  62.3162804  80.9871597  30.9958096  36.4257126
  81.1145706  30.3615265  37.1311798  81.5859070  31.7122040  36.6367035
  79.4713287  37.1060486   3.5406866  80.1658173  37.4194832   4.1200557
  79.3801041  37.7944565   2.8818996  54.5957794  66.5991745  31.2095547
  53.7492104  66.7708054  30.7971344  54.4027290  65.9605713  31.8959579
  33.1040306  17.8247967  31.2134190  32.3160515  17.6252079  31.7188797
  33.4954185  16.9702015  31.0325470  71.0874710   1.2491782   7.2083082
  71.5758896   0.4322236   7.3096046  71.2312393   1.7177106   8.0305243
   1.4807380  40.0660286   7.4443021   2.1524806  40.5962830   7.8730459
   0.8735284  40.7048378   7.0708728   1.8903762  58.8219147  89.3370361
   1.8011546  58.9093285  88.3880234   1.9774548  59.7211685  89.6532593
  25.0344048  56.3308029  32.8739357  25.0618191  57.2874222  32.8549805
  25.6420116  56.0875778  33.5724258  67.2257385  16.7363796  14.0147934
  67.0029526  16.2192669  13.2407188  66.5255356  17.3859005  14.0785904
   9.2125387  18.4494152  18.4552879   9.0713968  19.3905830  18.5578194
   9.5324192  18.1606808  19.3100033  42.1367455  30.9720001  25.9718513
  42.1758690  31.8139591  25.5181942  42.9641075  30.5433064  25.7529354
  10.7315302  50.4348412  47.4823112  11.4419918  49.8345261  47.7083626
  10.0368013  49.8682251  47.1468544  15.6972504  39.2326736   1.4785798
  15.0429611  39.6417084   0.9121624  15.6186705  38.2960091   1.2976992
   5.0450330  10.3231030  55.7421684   5.1892152  11.2690039  55.7154388
   5.7613840   9.9568815  55.2235603   2.8853588  69.4359436  74.9456406
   3.7231164  69.3733749  74.4868622   2.6809986  68.5347061  75.1951065
   5.1609688  14.2200851  15.4785690   5.6129599  14.8483486  14.9153452
   4.2344780  14.4447536  15.3927164   0.5633770  11.1188087  50.1925964
   0.3417454  12.0417757  50.3160591   0.8598473  10.8263149  51.0544434
  10.2614746  61.9171906  50.2683945  10.6450539  62.1980057  51.0992012
   9.7750864  61.1219597  50.4857979  83.9542999  17.0844479  16.3861122
  83.8558731  17.9481983  15.9855165  84.3863602  16.5567627  15.7144670
  45.5303230  68.9187698  72.7833023  46.3072586  68.4114075  72.5483780
  45.5471039  69.6705627  72.1910553  44.2981453  59.5651741  64.1100616
  43.5160866  59.6351814  64.6575241  44.4983215  58.6292305  64.0969315
  58.9715042  45.7159691  73.4609451  59.7127380  45.8121338  72.8629837
  58.3039169  45.2647820  72.9442444  78.9977951  31.9030495  77.7843628
  79.5829239  32.0951691  78.5171280  78.6900711  31.0120773  77.9508133
  51.4979401  51.4509315  34.5421791  52.3230286  51.9348984  34.5070152
  51.1600075  51.6172791  35.4221573  29.4111156  63.7897644  64.2147369
  28.6733418  64.3506927  64.4540710  29.1266708  62.9065781  64.4498978
  31.2509842  70.8696289  74.7684937  31.8701153  71.3648987  75.3047943
  31.6931362  70.7664719  73.9258194  18.4708080  70.2823334  13.8412495
  17.6948357  70.0945816  14.3693123  18.7094250  69.4384232  13.4576931
  17.7198410  26.5642700  67.9819031  17.6531429  25.6735668  68.3260422
  17.1000004  27.0708427  68.5067062  42.9380646  20.2869396  34.3706551
  43.4381714  19.7314186  33.7727242  43.2403717  21.1752567  34.1816139
  78.5332794  54.5616913  82.4641724  78.8141403  53.6676102  82.2693100
  77.9414902  54.7885437  81.7468491   2.9792614  63.5806122  77.3721619
   3.6031179  62.8640671  77.4887619   3.4398999  64.3544159  77.6966171
  38.5859489  65.6544113  31.5455456  37.7553596  66.0891266  31.3522129
  38.6068687  64.9032898  30.9525776  73.7486725  28.4641724  77.6635056
  74.4155273  27.9782696  78.1487198  73.0572357  28.6275959  78.3049469
  70.2226410  44.1920700  62.4345093  69.8653717  43.4656677  62.9453125
  70.3146896  43.8398819  61.5492287  13.7446384  52.4577217  35.8611450
  14.4496508  52.9767876  35.4741516  13.6929417  51.6761093  35.3110199
   7.2774615  26.2131386  42.6803246   8.0907040  26.4433174  42.2310066
   6.5869217  26.4438114  42.0588951  21.0349503  68.7762833  41.9174767
  20.9226761  69.6350632  41.5098991  21.8819122  68.4673843  41.5958099
   4.7554474  20.1573696  63.1735077   5.6044803  20.4795589  62.8709030
   4.5500073  20.7013111  63.9338722  17.5347977  65.2815170  43.6728287
  16.6612453  65.5273514  43.9772949  18.0199566  66.1062164  43.6459198
  44.4681740   3.3313389  76.3083572  45.0770531   4.0368366  76.5269165
  44.6368904   2.6569250  76.9663315  80.9012909  66.8773422  26.5819836
  80.9399185  66.2184219  27.2752094  81.7821350  66.8828201  26.2073917
  58.9823036   1.7944858  69.2110138  59.7026672   1.3051788  68.8136673
  59.3008194   2.0227628  70.0843277  71.6079330  27.8231106   3.3991573
  71.0625076  27.2418900   3.9291837  71.2966385  27.6928310   2.5034137
  22.1994953  12.0450392  60.4596329  22.4300461  12.0936680  61.3873787
  21.7218819  11.2198954  60.3744583  46.2855568  50.0405045  78.5162125
  45.6717529  50.4306831  79.1384964  46.6395988  50.7851982  78.0300903
  67.9262085  47.6539841  58.9679604  68.3425446  47.6868591  59.8292465
  68.2245331  48.4495811  58.5272064  64.0264511  63.2820892  35.0117874
  63.4101295  63.7513008  34.4494591  63.9802284  63.7391663  35.8515358
  61.8025284  47.9450111  45.7340889  62.4975471  48.5988655  45.6588860
  61.5989227  47.9183388  46.6690025  77.4644852  20.6230774  27.9965839
  76.7174683  20.0839329  28.2564373  78.2304306  20.0914364  28.2131786
  37.7960663  59.5970650  10.1297741  37.3745041  59.2320213   9.3517904
  37.0788689  59.9852753  10.6309280  38.2739258  70.2114944  71.2094879
  38.7374115  71.0400085  71.0870667  37.5256538  70.2655411  70.6150055
  12.8013725  17.7900715  80.8724365  11.9476357  18.0003471  80.4940872
  12.7640715  16.8482323  81.0391083  82.2788086  59.4780540  75.9185104
  82.2864609  58.7949181  75.2480698  81.3522034  59.6866608  76.0373383
   2.4519780  39.5245171  50.9591408   1.6984222  39.5190697  50.3689232
   2.4896638  38.6338234  51.3076782  86.2793274  12.8798409  80.7996140
  85.7399216  13.6290665  80.5467758  87.1472397  13.2517138  80.9567032
  37.9553833  11.2478046  72.4143829  37.0314217  11.0339632  72.5439758
  38.4283867  10.5138731  72.8066101  12.9580116   0.7514166  42.2714767
  12.1816845   0.4271557  41.8149643  12.6342764   1.4714200  42.8127899
  29.6011410  63.8899078  32.3905907  28.9526386  64.5478668  32.1400490
  29.8620548  63.4838676  31.5639782  30.3393822   6.8403072   8.3069420
  29.5536022   6.7312546   7.7713218  30.8527546   7.5042443   7.8466511
  69.5971832  22.1120129  36.2809525  68.7698212  22.5857620  36.3661957
  70.2021484  22.5812283  36.8554840  42.2857323  27.7897835  21.2398643
  42.1256447  28.4932709  20.6108093  41.4140244  27.4583035  21.4554520
  50.8650017  52.6255989  19.4676933  50.8920288  52.7924461  18.5255356
  51.7744522  52.4445190  19.7050514  28.6220512  59.1245728  81.9611969
  27.7390175  58.7584839  81.9115448  29.0152740  58.6989975  82.7230988
  21.5272045  37.1091957   5.2868309  21.1513958  36.2466965   5.4631658
  20.8414536  37.5762062   4.8094668  47.3057976  59.0020905  69.6424866
  46.9695358  58.9910660  70.5386124  46.8289337  58.3005028  69.1990814
  34.7503738  12.3734121  34.2374229  34.5989494  11.8495483  33.4507408
  35.2333908  13.1389256  33.9261093   0.0902558  38.5185852  40.6692123
  -0.4736045  38.7600060  39.9343605   0.8893877  38.1875801  40.2592659
  71.6505051  35.1797752  50.4638672  71.9450302  35.0637169  49.5605278
  70.8141174  34.7160683  50.5045433  52.6663589  11.3192701  13.0720472
  52.6996765  11.8042612  13.8966103  53.3808670  10.6857157  13.1377802
  74.0478210  51.5540237  79.7056198  74.5867462  50.7629585  79.7075348
  73.6554565  51.5744171  78.8327713  27.5427704  30.0014153  88.6856308
  27.0220680  29.5485153  88.0223160  28.3988514  30.1241894  88.2754059
  21.5294857  68.9313812  61.3259315  22.0724258  68.7670975  60.5549240
  21.4464626  68.0758438  61.7471161   5.1811590  27.2095928  53.5427933
   5.6175523  28.0609608  53.5738602   5.1098213  27.0109463  52.6091537
  41.4239998   4.2700176  35.9653320  41.5123558   5.2047749  36.1514931
  40.8021660   4.2282162  35.2388306  10.5285940  39.5149727   5.0411777
  10.3663864  40.3172760   5.5373940  10.6932964  38.8494072   5.7091088
  65.8269348  65.6299973  81.6949387  65.2240219  66.1065674  81.1243134
  66.3634338  66.3118210  82.0993042  47.0574989  53.7193985  82.3381195
  47.1127701  54.3571777  81.6264877  47.1298485  52.8693428  81.9040680
  70.3567429  64.3801193  32.1028824  71.1871796  64.7554398  32.3957138
  70.5832825  63.8795929  31.3190575  70.5111389   4.2696328  77.9302673
  69.6673889   4.5359874  77.5650635  71.1451569   4.8608308  77.5243988
  38.7135849  30.4009819  32.0830650  38.2945786  31.1456699  31.6516628
  38.4192200  30.4542294  32.9923210  58.6947479   2.7230043  36.0697517
  58.9528885   2.6678860  36.9898376  58.7679291   1.8251023  35.7462578
  76.0356064  30.3301582  75.8864975  76.5579453  30.9443359  76.4024200
  75.9131470  30.7684193  75.0443802  53.2243118  63.1232071  58.1236763
  52.9672241  62.4923897  57.4512138  54.1664772  63.2364044  57.9982185
   9.0177851  34.8968544  39.4706612   8.7844172  34.8465805  38.5437088
   9.0996132  35.8341942  39.6465492  27.6924648  70.5641098  43.4241638
  27.4453793  71.4086990  43.8007965  28.0098877  70.0534134  44.1689186
  71.2444534  49.6213493  83.2811737  71.1802292  49.6002007  84.2359772
  72.0995789  50.0147438  83.1072922  43.1714211   0.4322729   4.6926122
  42.6933441   1.2597984   4.6389771  43.1712990   0.0970490   3.7960317
  56.9856682  53.0207138  51.0191269  57.8864975  53.2448158  50.7856293
  56.5003319  53.0922394  50.1972008  48.4852371  28.0815239  14.2213364
  49.4239769  28.0704498  14.0345821  48.1206055  27.4002037  13.6564684
  58.9462471  58.2285156  67.9717941  58.0343666  58.0682335  67.7288589
  59.4527626  57.9089851  67.2250900  53.4984894  24.1616936  13.9988203
  52.9704247  23.5101528  14.4602041  54.1068954  23.6457977  13.4697409
  13.0667706   8.1062183  69.5423431  13.6098852   8.7503614  69.9965897
  12.8049421   8.5427246  68.7317047  10.5435963  32.3502426  33.4216385
  11.0426006  31.8814259  32.7527313  11.1549482  33.0028763  33.7630348
  16.0167427  11.7275562  22.2576694  16.4976635  10.9460688  21.9852276
  15.6524715  12.0798473  21.4456177  22.9879150  70.3230972  30.6025085
  22.2918663  69.7945328  30.2121677  23.7496567  69.7436218  30.6161976
   6.8302555  46.8219261  69.1331024   5.9164286  46.5899849  69.2985001
   6.7838626  47.6382370  68.6353912  25.6535797  71.3967361  57.0720406
  24.9428234  71.0609970  56.5258408  25.2512932  72.0984039  57.5839577
  14.4798317  40.5164909  59.5200920  14.2305899  39.7027550  59.9582062
  15.2325525  40.2766762  58.9796028  51.3247833  15.1761475  72.1335449
  51.0349808  14.3025675  71.8706741  50.9259796  15.3122654  72.9929962
  58.0869751   1.5342138  77.8458862  58.2375145   1.4813884  76.9020767
  58.3524399   2.4232044  78.0813751   1.0213621  22.2831554  14.3995447
   1.8033036  22.2052879  14.9461126   0.8457125  21.3897953  14.1041069
  42.8751526  57.5471802  17.6832504  42.2511711  58.0638924  18.1930428
  42.3755226  57.2506485  16.9225483  80.0152359  70.9581375  44.3691368
  79.9868698  70.4231644  45.1623764  79.9324493  70.3287659  43.6527061
  77.3330383   7.5280418  47.5284309  78.1415176   7.7894969  47.0877113
  76.7112961   8.2259665  47.3221092  14.9600286  31.7834454  18.6649666
  14.1448336  32.1743202  18.9794598  15.6459923  32.3678131  18.9877701
  61.9737282  70.6007919  22.5211639  61.6155243  70.7981186  23.3866024
  62.5038795  69.8151016  22.6548290  65.0749512   7.9628682  69.6590118
  64.5446548   8.7462282  69.5128479  64.8092804   7.3606811  68.9640121
  48.6716995  50.1410294  63.0369873  48.7828598  50.0159149  63.9794426
  48.4265442  51.0617065  62.9448624  23.0193081  42.0080299  82.9893188
  22.9923897  42.2371750  82.0603409  23.9332657  41.7747421  83.1520767
  39.4888115  50.7525635  16.2584038  39.7942352  50.3447800  17.0687485
  38.7047119  50.2571831  16.0217285  43.1604691  45.4138184  22.3451977
  43.1061211  44.5102997  22.0338573  44.0454025  45.4914818  22.7017021
  60.1096191  56.8190155  50.1482582  59.7801704  56.2546921  49.4488029
  60.9572868  57.1274033  49.8279572  67.4600830  41.1789513  23.8029366
  67.6212769  40.6362267  24.5747509  68.3320999  41.3662033  23.4554462
  24.5554333  13.6756344  30.2234650  24.6711082  14.2685823  29.4809933
  24.0647068  12.9360275  29.8651314  60.5799637   6.7760649  76.8829422
  60.2470055   6.5762620  76.0080414  61.2759972   7.4160419  76.7339401
   0.7234031  27.5331135  57.1028214   0.9656847  27.2483044  57.9839668
   0.4897377  26.7252064  56.6457481  29.7160797  21.0442638  29.8767452
  29.9641190  21.9620705  29.7656670  30.5112133  20.5542374  29.6672955
   3.9833620  51.9314499  25.3582706   3.6360257  51.3468056  26.0319042
   4.5406833  51.3707123  24.8186417  43.7192802  65.6032791  64.1603546
  44.4006195  66.1413803  64.5634155  43.6731224  65.9131622  63.2558784
  85.9385986  44.3730965  48.2647476  85.0902481  43.9641037  48.0936928
  86.1299896  44.8694649  47.4689941  40.2383842  16.6364746  58.8519592
  39.4648628  16.1691151  58.5365677  39.9125099  17.5035534  59.0932312
  36.7813110  66.0642242  70.2412186  36.2930565  65.3384705  70.6299667
  36.2314949  66.3617477  69.5163727   3.4899569  10.7902861  12.2280064
   3.4483712  11.2046137  11.3661270   3.0193031  11.3912086  12.8055954
  70.4572220  64.3355331  54.2910805  71.2951736  64.7784805  54.4247589
  69.8056488  65.0347748  54.3434601  70.4370346  19.2121544   7.8295536
  71.3251038  19.0166626   7.5306458  70.1818542  19.9882755   7.3308029
   7.4238906  32.4619179  75.6406708   6.7252278  31.8216228  75.7752991
   8.0503073  32.0165100  75.0701904  80.4800949  47.4314690  61.4258614
  80.4948196  46.9632568  60.5911217  81.1631470  47.0111237  61.9483337
  83.5759048   8.4073639  38.2166290  82.6337585   8.2453365  38.1683846
  83.7379837   8.6052694  39.1390152  21.3278389  10.7975588  85.6681519
  22.1054897  10.8977976  85.1191101  21.0194683   9.9097137  85.4868469
  50.8384399  62.8620644  51.9189072  50.1944122  62.2206268  52.2189331
  51.1955719  63.2373810  52.7237816  28.0584927  64.5618515   6.3080902
  28.7793808  64.8226395   6.8812771  27.4382305  64.1210403   6.8887701
  63.1532364  71.9042206  50.6944542  62.9692841  71.7619019  49.7659416
  63.0164642  71.0479050  51.0997200  34.8000145  21.4357395   7.1998172
  34.5257912  22.1349716   7.7932024  35.1869354  21.8931332   6.4532814
  37.5389671   4.4998159  29.4831657  38.3496704   4.0737777  29.2047958
  37.5922775   4.5150023  30.4387589  44.1385307   5.6193337  61.8946381
  45.0908699   5.6703448  61.8128967  43.8386765   6.5194273  61.7675514
  61.1729393  52.7301407  51.5296822  62.1147308  52.5691719  51.4718170
  60.9875259  52.7320366  52.4687500  33.5535088  16.7144489   0.6481465
  32.8005295  17.1381435   0.2361576  33.5384979  15.8187504   0.3109075
  50.8589973  40.1755905  68.0725937  49.9034805  40.1592102  68.0182266
  51.0539284  40.9226189  68.6384354  68.2175827   7.1922264  86.4149628
  68.5918655   6.5164151  85.8497849  68.4501572   8.0169754  85.9884338
  80.2568130  17.8871918  18.1839008  80.3011093  17.3650475  17.3828793
  79.3433304  18.1683006  18.2363605  72.1526184  65.9261246  12.6741180
  73.0114594  66.2059250  12.9908905  72.2647400  65.8337250  11.7280083
  33.6393127  19.2987862  52.2563362  34.4922867  18.9012432  52.4313431
  33.6618576  20.1314545  52.7279129  68.1651001   9.0775871  30.7326756
  69.0984802   8.8824959  30.8161697  68.1365356   9.9799290  30.4145660
  16.1968689   2.1192439  16.5110092  17.0346069   2.2537158  16.0679016
  16.4238472   1.6546861  17.3165512  31.4254360  27.3412533  84.4603882
  30.5846596  26.8840714  84.4426880  31.4230442  27.8778038  83.6677094
  20.9225082   9.2261295  47.1500053  20.7571335   8.4025192  47.6088600
  21.7018337   9.0536575  46.6216698  80.3682022   1.2499642  40.9788437
  81.2646484   0.9212923  41.0466080  80.2438965   1.7719054  41.7715340
  74.9870758  63.1223793  62.7019196  75.8052139  62.9031830  63.1478233
  75.0516281  64.0620270  62.5312424  55.9453659  10.7491341  81.2976761
  55.4340477   9.9399624  81.2924423  55.9772606  11.0182457  80.3796387
  74.1228409  15.4817085  22.6147671  73.8092880  14.7793999  23.1845741
  73.3609695  16.0477886  22.4908981  78.7992706  68.3533859  64.1112061
  79.6749115  68.1300354  64.4268036  78.5756378  67.6469421  63.5052681
  58.3015671  71.4705353  73.0369720  58.9986649  70.8145828  73.0334930
  58.4776726  72.0112762  72.2670288  14.5680799  25.4893303  22.1477604
  15.1188726  25.8438549  21.4497852  13.7553644  25.2395916  21.7080383
  79.1662674  71.3984604  23.4133148  78.7842789  70.5636139  23.6841240
  80.0306778  71.4108582  23.8242569  24.6216164  54.2635574  60.6283875
  23.8988132  53.7492981  60.9880104  24.2002602  54.8903618  60.0403328
  67.0729980  32.2243958  74.8248138  66.6262894  31.7439842  74.1277618
  66.6242447  31.9557171  75.6264801  38.3407555  15.5775003  66.5405655
  38.2788391  15.7575874  67.4786301  38.5437355  14.6434984  66.4888687
  49.2879105  24.1522751  33.7494240  48.3579025  24.3533802  33.8537178
  49.3248672  23.1961155  33.7244911  77.8383636   2.1590950  24.2799797
  78.6604156   2.5261183  24.6051769  78.0878830   1.3215375  23.8895092
  51.1060905  55.3602753  27.8543415  52.0157127  55.1314430  28.0452633
  51.0710907  56.3110046  27.9597740  21.5843868  60.2709007  26.3984261
  21.3312588  59.9391174  25.5369854  21.8316059  61.1821213  26.2409649
  60.7293434  57.3769684  70.6432877  59.8120842  57.1802597  70.4531021
  61.0166664  57.9155312  69.9059830  34.6259537  59.8445969   2.8376970
  34.1481514  59.0183945   2.9106679  34.7956085  59.9412079   1.9006188
  37.4071426   0.6844173  31.7196236  37.9517670   0.9231328  32.4697113
  36.6523666   1.2704393  31.7755013  48.4744301  55.9619637  53.1217690
  49.0792732  55.9723167  53.8635826  47.9096603  55.2062988  53.2837486
  13.9069595  50.3737106  43.7432442  13.3451967  51.1197853  43.5334091
  13.8457975  49.8045921  42.9760475  52.4726982  10.0124636  67.8880081
  53.3455467   9.6199703  67.9057999  51.8929634   9.3218946  68.2093353
  60.9586754  60.4739113  52.4481239  61.2706070  59.8319664  53.0859642
  60.9240608  59.9927597  51.6213684  46.1046028  28.5299492  23.5327492
  46.7951508  27.9343452  23.8236675  46.4691238  28.9595203  22.7589092
  39.6279984  46.6657181  17.0920563  40.0263748  46.9696808  16.2764988
  40.2815475  46.8586082  17.7642937  41.7708397  71.7655029  52.9767685
  40.9933357  71.8737030  52.4290390  42.2814598  71.0861740  52.5363045
  20.8001633  41.7073784  13.5241480  20.4859295  42.1451607  14.3152447
  21.7435570  41.8692970  13.5194683  75.9898148  40.7751007  89.1658096
  76.0285950  41.2772026  88.3517990  76.9006729  40.7151985  89.4538879
  28.4141636  60.1313362  58.7547188  28.7700996  60.1005363  57.8666916
  28.5589714  59.2509766  59.1014633  63.1991997  40.8335876  36.3026733
  63.7838211  40.0757790  36.2893257  63.4641075  41.3268089  37.0790672
  39.6844826  27.8178310  24.3790970  39.1032639  27.5258675  25.0813637
  39.2514534  28.5900860  24.0153141  47.3591194  23.4305344   3.7936509
  47.2625389  22.5206852   4.0748639  48.2844162  23.5129547   3.5628517
  31.6507721  19.8233910  18.5101528  32.3375511  19.4866028  19.0855999
  30.9590912  20.1114407  19.1058350  80.9004745  47.3019371  35.2494812
  81.1621246  46.7170677  35.9606018  80.9845276  46.7696533  34.4583778
  36.3474998   4.5600276  79.7077103  36.1693344   4.0933723  80.5242462
  37.2502441   4.8651266  79.7982864  54.1561089  58.7907410  74.1249237
  54.5755806  58.4531059  73.3335495  54.5950470  58.3336411  74.8423004
   3.5767546  24.6454773  42.0842094   2.9305415  23.9432297  42.1582794
   3.0800612  25.4465790  42.2508316  66.4905777  31.3790150  18.5599918
  66.6339111  30.6436310  17.9642582  66.2201309  30.9714966  19.3828030
  37.7474899  13.4795904  70.5296097  37.0831680  13.0149479  70.0206757
  37.9768105  12.8734999  71.2340927  78.1094589  23.8276367  42.3597298
  77.4767532  24.4716187  42.0416069  78.1766815  24.0014763  43.2986069
  73.5806580  24.6721554  70.7850342  73.7722015  24.9531746  69.8902817
  72.7742386  24.1622066  70.7084579  60.5564079  46.2273369  65.1637421
  60.7612839  46.9331169  65.7770386  61.1106224  46.4024925  64.4032135
  10.7933874  28.2669430  42.3470612  10.6032238  28.8360958  43.0928078
  10.0829897  28.4372139  41.7285347  41.7891350  11.6206036  18.7130470
  41.9600716  12.0681486  19.5417290  40.8413620  11.6864576  18.5963249
  74.5744019  67.9494171  24.1117840  75.3138657  67.4745331  24.4911366
  74.4473724  68.6989822  24.6933746  66.7283554  22.5602036  13.9082451
  65.8539886  22.8452454  14.1737032  67.0414658  22.0323105  14.6427670
  82.3888016  11.1950846  46.1471062  81.5670547  10.9246883  45.7374153
  82.4263763  12.1412134  46.0068970  54.8447037  49.0291328  32.5924339
  55.4998550  48.5365753  32.0980644  54.0676117  49.0218735  32.0335922
  84.3110809  31.1453495  59.5790405  83.6472168  31.5193787  58.9997215
  84.8099899  30.5505810  59.0190582  82.4740067  46.8121452  85.4892960
  82.4429855  47.6050110  84.9539108  81.5630417  46.5230522  85.5421677
  73.0267868  39.3270607  38.1730804  73.9367065  39.5911636  38.3091660
  73.0258713  38.9047432  37.3140793  30.1767807  19.4496155  79.3446960
  31.0692654  19.7478199  79.5201263  29.8927002  19.9722195  78.5947495
  18.9551182  71.6999054  37.5255623  18.0377388  71.5625916  37.2893562
  19.3879452  70.8785477  37.2926292  26.4502792  57.8601990  81.1549911
  26.3387661  57.4173088  80.3137741  25.6160069  58.3052597  81.3037949
  64.6834869  11.9072456  31.0239239  64.7870865  11.0971317  31.5231361
  63.7409477  11.9760065  30.8718700  71.3788528  54.2282066  37.5708504
  72.0661316  53.7000275  37.9769402  71.8178329  54.6787872  36.8493919
  77.5311432  41.3434677  68.0393753  77.8669052  42.1741257  67.7024689
  77.8560333  40.6864510  67.4237442  67.1154022   6.8345728  70.9731064
  67.1641541   5.8988051  71.1685410  66.3561935   6.9195719  70.3963852
  69.4454193  20.3342094  38.4258499  70.3626633  20.3233566  38.1524086
  68.9843826  20.7564011  37.7009888  37.8696861  38.6797295  84.8059311
  38.4728127  39.1633759  85.3703308  38.2691154  37.8147087  84.7141418
  12.9154272   7.6900363  88.4124985  13.0938492   7.6698418  87.4722900
  12.4388790   6.8776684  88.5833511  73.2460251  56.9809456  55.3443260
  73.3691559  57.3291054  54.4612350  72.5847015  57.5511017  55.7365150
  74.7168655  48.5155678  60.1606445  74.8288345  49.4362602  59.9239578
  75.6037216  48.2060280  60.3447456  85.5878677  31.5509357  17.4592094
  85.3365097  31.6693268  18.3751984  85.8445129  30.6307983  17.3982773
  32.1899681  13.3377523  38.4055519  32.6462479  13.7987280  39.1094971
  31.2640610  13.5294561  38.5544853   6.5306163   5.4183369  17.5083065
   7.2573690   5.6229277  16.9199142   6.7904334   5.7940216  18.3494892
  75.2388306  17.9998360  23.6972961  74.8874741  17.1398277  23.4667110
  75.6993713  18.2894249  22.9097233  10.2636404  15.7770071  55.1417999
  10.0169029  14.9323673  54.7650566  11.1577101  15.6463518  55.4577103
  33.5921745  55.5889664  72.6734314  32.8170052  56.0906563  72.9257202
  33.2682228  54.6980400  72.5410004  19.4023647  20.5668201  69.6636276
  19.8384800  20.4517307  68.8193588  19.9656410  20.1100845  70.2884064
  44.1596451  12.4211960  76.7980270  43.7667961  11.5668755  76.6190338
  43.9335403  12.6023808  77.7103271  66.7120285  32.5854301  48.9734840
  66.4125443  31.7938747  49.4206734  66.8812866  33.2096710  49.6791115
  37.9314461  62.8627815  16.8946877  37.1380043  63.0919037  17.3786144
  38.6217461  63.3823204  17.3067551   0.4370168  57.4007645  17.3751793
   0.7187463  57.9457893  18.1098957   0.9465864  56.5954781  17.4651165
  34.5550804   1.0712720  33.2267532  33.7413940   1.2754098  32.7658043
  34.5779724   0.1149298  33.2601814  38.9999657  46.0428314  13.7093811
  39.5350342  46.8176308  13.8814831  39.3373833  45.6975060  12.8828630
  49.6674194  58.1465874  28.0583344  49.3930969  57.6375656  28.8211422
  49.9116096  59.0004654  28.4153976   1.3384986  50.2704620  36.3669395
   2.0257304  50.7780800  36.7985268   1.6977584  50.0665970  35.5034561
  54.8085518  63.5270042  40.2616234  54.7489395  63.3087349  41.1916962
  55.6850700  63.2411842  40.0042267  53.0288429  67.8324127  69.4368668
  52.0909500  67.9643402  69.5753632  53.3731689  67.6294174  70.3066177
   6.0151844   7.9045730  27.0284748   6.0373139   8.0952644  27.9662266
   6.8232064   8.2876492  26.6870289  82.0557861  61.9453468  49.4226074
  82.7538986  61.4040680  49.0539742  81.2675476  61.4086266  49.3398552
  67.3904877   7.8583860  49.3100624  66.5504837   8.0245218  49.7378731
  67.1698608   7.3198457  48.5501099  52.2765236  14.3585882   9.1426830
  53.0888939  14.3870773   8.6372356  52.5173683  13.9198809   9.9586258
  66.0389557  18.1843510  56.2221718  66.8909760  17.8679752  56.5225067
  65.4324417  17.4738884  56.4310226   9.8220940  -0.2392291  49.4760208
   9.0164127   0.0965455  49.8689117  10.5022335   0.3673062  49.7688637
  70.7023392  32.0387077  40.1809235  70.1737900  31.7670383  39.4305458
  70.9483185  32.9429512  39.9858093  63.7929688  12.1979847  60.4765129
  64.2276154  11.7844353  61.2223625  64.4380188  12.8185291  60.1372948
  66.1523666  57.2530479  53.5980263  66.9197617  56.7195129  53.8046112
  65.8202057  57.5349960  54.4503212   3.4135265  67.2421722   3.3320811
   2.9821038  67.7715378   2.6613536   2.7231963  66.6690750   3.6656122
  31.9543591  61.5678596  42.1221161  31.3493690  60.8352661  42.2384186
  31.4288521  62.3449707  42.3123131  76.7511139  33.9082565  73.5350876
  75.9928665  34.1246376  72.9924393  76.8786545  34.6798363  74.0870209
  28.7783947  41.7609749   9.7030563  27.9193535  41.7884598   9.2817202
  28.5845547  41.7062683  10.6388264  20.9402790  27.6378613  53.0159988
  20.6726990  26.9056778  53.5714607  21.3515320  28.2577019  53.6184120
   9.8157883  27.4438496  55.1776772  10.0981092  27.9891777  54.4434128
   8.9314375  27.7506580  55.3777390  19.0174732  16.7479725  29.5719032
  18.8666630  16.8255024  30.5139637  19.5931530  15.9883947  29.4832115
  11.5165730  27.1189976   1.9820273  12.0870132  27.1008492   2.7504678
  11.1493769  26.2362595   1.9354165   0.7035171   0.1851220  21.5733166
   0.3195610  -0.2180483  22.3519459   1.4508563   0.6827660  21.9050789
  73.8779449  71.7198257  57.4115601  73.5276489  71.1224594  56.7507477
  74.7623749  71.3960419  57.5823593   5.5084004   5.2662621  49.7441826
   5.9124913   4.4142981  49.5795631   4.6603074   5.2183585  49.3029633
  37.9460793   9.1961365  62.1248817  38.7274933   8.8118534  62.5223083
  37.4952660   8.4558897  61.7186394  79.4781876  56.0630150  10.3377638
  80.2071381  56.2562981  10.9272585  78.9113617  55.4787636  10.8413401
   6.6278048   5.8205400  52.1339531   6.9649487   4.9551439  52.3655891
   6.0564303   5.6617475  51.3825874  16.0019894  55.1626549  56.5654449
  15.9990892  54.7241669  55.7145920  16.3356094  54.5031052  57.1736565
  21.0358810  18.7916431   3.1153245  20.3839226  19.3527718   3.5352263
  20.5991917  18.4640846   2.3290427  44.9953613  64.8674088  81.7875443
  45.4216003  65.5149612  82.3490067  45.0583305  65.2359390  80.9063797
  11.1901474  27.0192909  46.3476944  11.6432333  26.7476215  45.5494843
  10.2649717  26.8542233  46.1659393  21.4564857  36.5891266  14.3259001
  21.6715069  37.0545654  15.1342077  20.6518002  37.0052147  14.0167332
  21.1534157  53.6161575  65.2488861  21.6261272  53.0414581  64.6468048
  20.3613205  53.1280212  65.4737015  47.1413345  63.1009598  49.3806915
  46.3805428  63.5870628  49.0626831  47.7415657  63.7759552  49.6974487
  26.6578846   1.2249407  20.7961960  26.8441887   0.5174621  21.4134464
  27.5172806   1.4878572  20.4667320  37.4742279  31.6606808  25.4976406
  37.9991989  31.4771652  26.2767162  36.6024704  31.3289528  25.7126503
  47.1645393  68.7497482  82.7939682  47.3280411  68.9261475  81.8674850
  47.5827599  69.4776611  83.2538223  38.2817001  45.0907135  86.4860001
  38.1713142  45.7200508  85.7732697  38.7124825  44.3396950  86.0778046
   3.3257716  53.0174522  21.4971561   4.1645093  52.5888748  21.3266544
   3.5147836  53.6446037  22.1951466  79.7698212  44.1312828  14.2032633
  79.1557465  43.5213470  13.7944632  79.5705338  44.0812111  15.1381483
  33.4441223  44.8700943  82.4307251  32.5603409  45.1843033  82.6216049
  33.3113594  44.1158028  81.8565750  19.6042252  50.4467773  89.3573685
  18.8470097  49.8731575  89.2398300  19.6376553  50.9668427  88.5544739
  71.0521469   3.6576872  31.2856789  71.7521896   3.7886584  30.6461315
  70.5681763   4.4835186  31.2835217  22.6791744  17.7416821  16.3959179
  22.6778393  18.4761753  17.0097179  22.7766342  16.9669991  16.9496307
   9.5754538  22.1855450  62.6610527   9.2924452  22.1123390  63.5725250
   9.1990547  23.0121937  62.3590469  84.4325638  23.5186577  33.6524239
  83.8846893  24.2588081  33.3911934  84.8334351  23.7963467  34.4760895
  38.7755661  16.3798428  45.9266930  38.3784065  17.1765957  46.2783775
  38.3914185  16.2853508  45.0550652  15.9659243   8.2315683  29.9175282
  16.1503220   7.9109788  30.8003941  15.0967226   8.6270828  29.9830151
  17.0238342  29.5807590  20.5508575  17.2468338  29.5296669  19.6213989
  16.1637897  30.0005913  20.5680923  69.6883774  69.6675415  63.2881012
  69.2423477  69.2448730  64.0220184  70.4046021  70.1568909  63.6928139
  26.4909286  57.4713097  38.3998070  26.4467049  58.2556229  38.9467354
  25.6424046  57.4392548  37.9579811  43.0825729  45.8026123   7.6222701
  42.4000778  45.7608719   8.2921133  43.8774490  46.0310974   8.1041384
  16.7618313  11.6365709   1.7982795  16.4364643  11.3822556   0.9347444
  16.0161457  11.5043163   2.3836813  81.8515549   1.8519261  17.1211433
  82.3795166   1.9348445  16.3270302  82.2930984   2.4096465  17.7616310
  59.5092850  49.7084541   1.2482536  59.6664352  49.3780975   2.1327879
  58.5557899  49.7393188   1.1699936  44.5100441  63.4754257  25.0340233
  45.4522896  63.3086510  25.0583286  44.2220993  63.1018753  24.2010880
  57.2342987   8.9066792  20.6124477  57.1882210   9.7248392  20.1177540
  56.4063148   8.4653130  20.4230518  56.7820816  51.4923859  67.1187744
  57.6059418  51.0165825  67.2241058  56.2393188  51.1961823  67.8494644
  64.6633453  15.8782177  65.1086426  65.3967056  16.4685898  65.2814865
  63.9944572  16.4367371  64.7125702  64.5294113  63.3751755  50.3946037
  64.0718231  62.7111359  50.9102554  65.4195480  63.3803368  50.7465515
  54.9597168  55.8059425  80.3890457  55.1561012  55.0537033  79.8306503
  54.2033005  56.2209435  79.9745178  30.3075371  28.4084835  81.1442108
  29.4702034  28.5713291  80.7099457  30.3886147  27.4548264  81.1581955
  15.8170652  14.4802837  75.3555298  16.1312847  14.8297358  74.5216370
  16.5213642  14.6700363  75.9753647  63.8644600  39.7911911  41.0226250
  63.9589729  40.6130257  41.5041733  64.1063385  39.1141396  41.6545486
  69.3800507  61.7748947   5.6258492  70.0827713  61.1883812   5.9058809
  68.8341141  61.2376099   5.0518208  56.6551971  47.2731171  17.9769402
  56.4506340  46.5528526  18.5732651  56.4205856  46.9407120  17.1105118
  63.3159790  63.9479218  80.6439819  63.6865959  63.5851631  79.8394470
  62.9197731  64.7760696  80.3730164  26.7144566  13.1577673  69.0610428
  26.0813217  13.1063204  68.3450012  26.4797382  12.4331989  69.6408234
  52.0805359   2.0237045  50.9468307  51.6890526   1.5639343  50.2041435
  52.2962074   2.8912868  50.6047516  44.7825241  71.1363525  76.7046204
  44.7699203  70.2122192  76.4555206  43.8681450  71.4130402  76.6447449
  35.1140366  10.5153570  67.2592850  34.8906746   9.8960667  67.9541321
  34.4062195  10.4249849  66.6212692  11.3780632  66.6622086  84.4783859
  11.9833260  67.3953323  84.5898285  11.4432011  66.1712036  85.2974701
  55.0740204  17.5383396  84.6546631  55.4134521  18.0724506  85.3728180
  54.1600494  17.8086853  84.5663528  71.0877762  36.7322807  71.2322388
  70.8582764  37.5483398  70.7877045  71.0181351  36.0616455  70.5528030
  41.3710938  64.4062958  80.8463287  40.9072189  64.3502274  80.0109253
  42.1311951  63.8348656  80.7370605  82.5750732  57.6154861  31.8389397
  82.9828033  57.2138672  31.0716743  82.5858841  58.5542145  31.6521149
  80.0276947  55.9406967  17.5947418  80.8375549  55.4436569  17.4793625
  80.2621307  56.6431351  18.2012501  84.0714722  70.9914551  53.1388931
  83.6593552  71.2704544  53.9565468  84.5816650  71.7505798  52.8566284
  54.5866966  56.1926651  44.9870033  55.1963997  55.4971466  44.7405243
  53.9183388  56.1791840  44.3019142  18.6778469  23.7633324  66.1929779
  17.9930115  23.8295307  66.8584518  19.0847492  22.9116325  66.3519363
  23.5100822  62.7229500  39.2610359  22.9505634  62.1326103  39.7656860
  23.2214146  63.6001587  39.5128517  49.6120071  17.6672001  46.1185036
  48.7796745  18.0009346  46.4532776  49.3627357  16.9992294  45.4798241
  45.0217628  52.7218819  29.5580444  45.7207069  53.3581238  29.4066906
  44.7323074  52.4708595  28.6808701  27.7402878  70.8948975  33.7919502
  27.8870029  71.8348465  33.8977661  28.3123970  70.4884109  34.4428673
  33.9621811   7.7346611  18.2940483  33.9104996   6.8005819  18.0914230
  34.1573715   8.1513739  17.4547138  36.1997910  30.2597332  87.0526505
  35.2820740  30.5257664  86.9955978  36.2563934  29.4759865  86.5060577
   7.7011566   8.7917919  69.4671021   8.5351009   9.1721859  69.1912994
   7.7544570   7.8754358  69.1956558  39.7888832   9.4883099  42.9192810
  40.4140320   8.9272985  42.4602737  39.6067924   9.0250959  43.7369041
  72.8928223  52.5953941  54.7696457  71.9801178  52.3069382  54.7704391
  72.8996506  53.3670044  54.2032509  67.2702637  23.5777321  59.8284264
  66.4481049  23.8734341  60.2193832  67.3413620  24.0763054  59.0144234
   3.7830188  57.3485832  12.6199999   4.6819701  57.4478989  12.3065434
   3.5387113  56.4579010  12.3685522  10.9429035  33.6887436  81.9325943
  10.2707577  33.9390297  82.5664749  11.0204554  34.4471092  81.3537140
  18.1553555  12.6034012  79.3333511  18.6008720  13.2744837  79.8504486
  17.2323380  12.8557444  79.3577499  14.2415352   0.2208452  77.2628708
  14.2037296   0.5552986  78.1589432  13.3692122   0.3901423  76.9070282
  51.1413078  12.8281822  50.0344048  50.3204765  13.0588131  50.4694672
  50.8701210  12.4203205  49.2120094  50.0639839  37.0080490  30.2546101
  50.8329201  37.5031357  30.5372009  50.3984566  36.1301155  30.0713215
   8.6080208  12.9584637  60.6726303   8.5342607  13.8383389  61.0422401
   9.4386406  12.6250114  61.0119095  33.2505188  65.9436569  27.6077290
  34.1449013  66.0253830  27.9388313  32.9885368  65.0534973  27.8426991
  77.9584732   6.8038063  30.0403385  78.2644424   6.5302134  30.9050694
  78.6966934   6.6256776  29.4576454  10.9461660  33.3676033  85.1823730
  11.8908310  33.4941139  85.0938721  10.8446894  32.8885574  86.0048447
  68.5578690  55.3579941  10.6618385  68.5181427  54.7592392  11.4075909
  67.8429642  55.9763412  10.8127909  71.8379364   1.8566746  57.2219582
  71.0509567   1.7444242  57.7551537  72.4555588   1.2124138  57.5679398
  12.1490259  17.9326077  61.1984901  12.3409500  17.2720947  61.8641624
  11.6431217  18.5999489  61.6621132  70.9593124  37.4592285  14.5723858
  71.0598373  37.5818672  13.6284113  70.5491409  38.2687683  14.8767481
  38.0956345  36.3589554   7.0857229  37.5073662  36.5980606   6.3694844
  38.1634102  37.1533890   7.6153579  38.6681976  38.7775955   4.6087255
  39.3634949  38.1281166   4.5039878  38.6855583  38.9990196   5.5398011
  64.7991180  64.9061737  37.3886223  65.3577728  65.6827545  37.4211578
  64.3913651  64.8680344  38.2537880  15.3110600  70.0011520  39.8321800
  16.0316887  70.0291519  40.4615784  14.5208158  70.0131760  40.3721809
  52.8004990  56.4219284  24.5645733  52.8278313  57.0185394  25.3125954
  53.5316277  56.6974525  24.0116119  58.2384949  67.0897675  36.9141312
  59.1868362  66.9791718  36.8459473  58.1127586  68.0352936  36.9941063
   7.6151056  26.7219639  50.7658768   6.6762972  26.7238712  50.9526062
   7.7235222  27.3771191  50.0764923  55.2716713  67.1811600  60.3125420
  55.9586906  66.8115234  59.7579193  55.6379242  68.0068512  60.6292877
  25.4750385  15.8325701  53.0198669  25.8897686  15.0367470  53.3528824
  25.7658691  16.5220013  53.6168060  15.3003769  52.0315399  27.0031033
  15.8500814  52.1303749  26.2257442  14.7312832  51.2888527  26.8011665
  35.8886337  66.6482697  28.3760624  36.2823257  66.6889954  27.5045242
  36.5869980  66.9284821  28.9676743  20.5359077   2.5196359  44.5922928
  20.3495140   2.4397554  43.6568222  19.7067146   2.3072195  45.0207214
  73.5495605  21.9491196  20.7157097  73.8668823  22.7524300  20.3031178
  73.0541306  22.2505569  21.4772301  39.5329819  57.6178703  11.2422390
  38.9420395  57.3163338  11.9322367  39.0003853  58.2119904  10.7134752
  68.9843826   1.4308128  50.3872337  69.1464844   0.8963775  51.1646233
  69.7576828   1.2971368  49.8391724  -0.0589665  61.3497391  39.4747047
   0.0661430  60.7593002  38.7317657   0.6554920  61.1348572  40.0743790
  44.2290916  18.0108185   5.3613696  44.7713394  17.5913906   6.0294108
  43.4356422  18.2741470   5.8275571   7.6899419  54.0029831  24.8315468
   7.8117414  54.1230392  23.8897495   8.1085472  53.1635246  25.0221004
  63.3783188  22.2207947  62.6549644  63.4482574  22.0674458  63.5972099
  62.7228699  22.9135494  62.5730476  51.8459320  25.1165028   7.7179842
  51.9350548  26.0358982   7.9689832  50.9556656  24.8819218   7.9799585
   4.4479055  49.3438950  39.9704132   3.8278453  49.6405907  40.6365433
   5.0666256  48.7915077  40.4482079  19.5217800  47.2068176  19.9001865
  20.3840790  47.2231026  20.3154068  19.2001514  46.3179474  20.0508461
  61.9269600  42.3598976  27.2467422  61.2985382  41.7459259  27.6266842
  62.4575882  42.6494598  27.9889126  70.5747147   0.3026225  18.8148384
  69.9466019  -0.4196667  18.8156452  70.5539322   0.6391035  19.7107086
  62.5188141  69.7478714  38.6005440  62.2261429  69.9001083  37.7019882
  61.7516022  69.3863907  39.0443344  45.6005249  19.6875153  13.9951458
  45.0511208  18.9084396  14.0813274  46.3033447  19.4206161  13.4026566
   1.2724861  67.1786728  26.5605125   1.1719637  67.3526230  25.6246357
   0.7215614  66.4128189  26.7223072  35.2868652  19.9705029  13.4613342
  35.7719040  19.5162144  12.7724276  35.8772583  19.9630222  14.2147341
  55.0891228  47.3343315  24.3846474  55.0365715  47.7913513  23.5452423
  54.7091789  47.9464798  25.0148468  12.4428921  24.6451092   0.2712120
  12.7822132  24.5482101  -0.6185648  13.0124273  25.3001118   0.6747364
  26.0895405  15.5058861  84.3886185  26.8419666  16.0051403  84.7061539
  26.3604107  14.5908651  84.4634323  39.4982071  46.8089142  42.1660538
  40.0908051  46.1937485  42.5980568  39.6739082  46.6949387  41.2320442
  51.8957176   3.4938972  46.4059219  52.7480087   3.0600803  46.4463577
  51.9968338   4.1574106  45.7234573  69.1569290  36.2475319  44.9556694
  69.8587036  35.7260818  44.5660095  69.5536804  36.6400146  45.7333450
  19.1274357  32.1086578  40.4006805  18.4584351  31.9652424  39.7312775
  19.9462261  32.1787186  39.9098587   1.6267506  52.5292053  32.0784569
   1.0118487  52.4945183  32.8112068   1.4981705  53.3984451  31.6988297
  67.4024811  45.2987099  66.1552734  68.1374969  45.3628616  65.5454636
  66.8156662  44.6562653  65.7563324  37.7637482  46.8751144   1.0778079
  37.4221802  46.3031349   1.7651249  37.0929146  47.5497017   0.9722592
  84.0212555  17.4183426  48.3795853  84.3789978  17.1856194  47.5227928
  84.6252899  17.0214748  49.0071716  35.3513031  57.1702461  48.3451729
  35.8911972  57.8159180  47.8892632  34.5666161  57.6537285  48.6035233
  75.7542191  11.3082209   9.4600964  74.9409103  10.8201208   9.3315668
  76.2218170  10.8202782  10.1379576  58.9890900  51.8225403   6.2578235
  58.3508873  52.0641899   5.5866051  58.6091194  51.0543289   6.6840935
  82.2248993  26.7200089  12.1682940  82.1220551  25.9026279  11.6809111
  82.2492828  26.4500351  13.0863094  71.5750580  48.3638077  45.9477081
  70.7529984  48.6756516  46.3261299  71.3152542  47.6489029  45.3666306
   4.4099975  35.5892868  31.2961617   4.7123771  35.2525139  32.1395950
   4.2542453  34.8065681  30.7676506   9.0528002  32.5195923   1.0409260
   9.6422882  32.0454140   1.6273470   9.2010527  33.4424744   1.2471894
  66.5322571  26.8559151  64.0093613  67.4266205  26.6980724  64.3117371
  66.2055969  27.5512753  64.5803299  34.2332001  34.5754814  78.0164413
  33.9231529  35.2302399  77.3908310  33.6022530  34.6133957  78.7352676
  61.6298561  33.1535225  26.6604996  62.5029678  32.7974854  26.8252602
  61.3847923  32.8006477  25.8051300  60.3971710  43.8442879  29.3754597
  60.4972115  44.7285614  29.0229244  61.1690407  43.7176666  29.9272041
  54.3304634  50.5845108  13.8778877  53.6940155  49.9435005  13.5612268
  54.1919098  51.3531227  13.3244724  85.0045242   7.8519783   2.5173054
  84.8482895   7.7426023   3.4553142  84.1324005   7.8209734   2.1240213
  30.9283867   6.1436033   2.8523326  30.5999413   5.2567434   3.0001016
  31.5293026   6.3009105   3.5806088  37.6493835  53.0430984  41.1092873
  37.3281555  53.3465805  40.2602005  37.7889366  53.8449287  41.6130943
  54.7754402  55.8786049  15.8663950  54.2916069  55.4845734  15.1405325
  55.3574257  56.5139427  15.4494181  10.0096188  60.3377838  59.5083847
  10.5356331  59.7964134  60.0969887  10.5944052  60.5335045  58.7762985
  23.4196224  53.7574921  39.6442604  23.0448933  53.0926933  39.0664597
  23.5924053  53.2931366  40.4632568  40.2577057  11.2472878  26.0378036
  40.8378105  10.8452282  25.3912296  40.8497086  11.6407423  26.6788635
  69.1927795  22.8994961  41.9311371  69.8066711  22.2597122  42.2917442
  68.4902420  22.3706150  41.5530357  73.1930847  10.6130657  36.9090462
  73.3517990   9.7129707  37.1934242  73.8706207  11.1263103  37.3492279
  25.5021477  40.9709549  14.8582096  26.2699242  40.4227753  15.0202332
  25.5436916  41.6472130  15.5343628   2.0177484  18.1762943  77.4269333
   2.0974300  18.9084663  78.0383301   2.3450975  18.5212307  76.5962143
  59.3595848   4.8614821  34.5455017  59.2330399   4.3854041  33.7247887
  59.1060448   4.2376695  35.2257996  23.5635834   2.7834334  34.5145760
  23.2713795   2.1284883  33.8806229  23.3161812   3.6216824  34.1242371
  46.9535408   2.3548627  46.2622108  46.3012543   2.2388043  45.5713539
  47.2243843   1.4649370  46.4878387  34.9746704  14.2299223  72.6916428
  35.1392670  14.9078531  72.0362396  34.4284821  13.5870438  72.2392960
  43.6986504  40.0961304  18.2260227  44.3114586  40.7934494  17.9926834
  43.1690292  39.9693756  17.4388332  51.0334816  54.1232185  78.4993286
  51.2519989  53.3476257  79.0159912  50.1841888  54.4056168  78.8387222
  77.8390198  55.8097992  66.7579269  77.6212769  55.0171318  66.2675171
  78.5526428  56.2102432  66.2613144  78.9634094  44.3480415  46.4297256
  79.3651733  43.5262794  46.1477242  78.0227280  44.1714325  46.4171867
  48.5531502  37.6672440   1.3688022  47.7525253  37.3549461   1.7903421
  48.4866219  37.3542290   0.4666788  48.3197708  26.3262043  23.7486343
  48.0646324  25.4430218  23.4819412  49.1516418  26.4806404  23.3010082
  53.2987328  34.6389580   8.3560934  53.4389191  35.3144951   9.0195913
  52.6416206  35.0126572   7.7689137  86.6330032  11.7816296  19.1903057
  86.1285248  12.4680347  19.6268635  87.2900925  11.5202703  19.8354073
  24.3194370  16.2963562  10.0858297  23.7537479  16.8546124   9.5523701
  23.9317455  16.3285656  10.9604101  39.8860092  23.4519062  22.2657490
  40.3627319  24.2530575  22.4828320  40.5474548  22.7611923  22.3061867
   2.6344783  53.8814888   3.1907036   2.6271350  53.8739510   2.2335615
   1.8979338  54.4434280   3.4314544  43.1015816   6.6960187  64.7261429
  42.9248505   7.2011328  63.9325066  43.7280998   6.0271773  64.4498138
  59.2426605  64.7397614  28.9458256  60.0964546  64.3762436  29.1805992
  58.8971138  64.1348801  28.2893600  79.9674149  10.4978724  25.3796864
  79.1997375  10.6885366  25.9187202  80.6544342  11.0631065  25.7328720
  74.2212906  39.5515289  40.6441994  73.8282318  38.6953621  40.8136444
  73.4751663  40.1452026  40.5600929  81.9703674  22.3647861   0.3541323
  81.1606064  22.1661339  -0.1160395  81.7481766  22.2406216   1.2768711
  55.2567062   5.2970738   9.3218212  55.1356125   4.7779078   8.5268145
  54.4845161   5.1043954   9.8536396  57.9604530  12.9918633  49.3151817
  58.7773018  12.9939384  49.8141708  58.2167473  12.7090759  48.4373550
  18.4521008  39.8945923  77.6558990  18.8764610  39.6702003  76.8277664
  17.6402912  40.3314819  77.3983612  83.6333847  59.8296013   6.5871158
  82.7214355  60.0508385   6.7759018  83.6323853  58.8780823   6.4829779
  43.3364449  34.2271538   7.2983861  43.3971405  34.2626953   8.2529984
  42.3979607  34.2746468   7.1161246  11.1190472  24.3882790  29.8353062
  10.4474649  24.7997017  30.3793125  10.7432871  23.5429974  29.5892658
  57.6568794   9.2681723   0.5170388  57.3305664   8.4428778   0.8757038
  58.3166199   9.5587721   1.1467415  22.5165405   6.8849106  44.0836716
  22.0955811   6.6725044  43.2506599  23.0203457   6.1014338  44.3040733
   3.6531651   7.7304816  18.7458630   3.5606370   8.3106146  19.5015850
   4.0854459   6.9506578  19.0940590  39.4623833   7.5556526  24.0945034
  38.7802811   7.3333120  23.4608383  39.1028252   8.2956915  24.5836811
  54.7685776  23.5253105   1.1592581  55.6626701  23.1836433   1.1498593
  54.8412552  24.3971901   0.7709589  56.0183487  59.0627594   0.8721014
  55.9001617  58.3440132   1.4931260  56.0213051  58.6394577   0.0135914
  43.3316002  11.1996126  42.4508247  43.5388184  10.2707176  42.3486176
  42.7869720  11.2384186  43.2370224  72.4336090  45.7777290  42.0354462
  72.7465591  45.2571526  41.2956505  72.9494553  45.4694405  42.7804909
   0.8558396  15.1805153  47.6267548   0.8033887  16.0742626  47.9654198
   1.6263939  14.8071022  48.0545883  80.9193420  35.8807144  13.0866003
  81.1629028  34.9794312  12.8754101  81.1859207  36.3869438  12.3192024
  81.4406052  64.0902252  27.3783016  81.4916382  63.2840652  27.8918514
  80.6332855  64.0008774  26.8718548   6.5355406  50.4933739  17.4204292
   6.0782313  49.7284737  17.7697582   7.1619153  50.7308693  18.1041565
   5.2503805  67.9706421  80.2961044   4.5976152  68.6617584  80.1843491
   4.8321166  67.1864014  79.9407806  67.6720963   8.7681227  45.7397537
  67.5428238   8.7695446  44.7913246  67.2347031   7.9713588  46.0399017
   4.0887632   2.9037859  73.9778366   3.9857383   3.8534234  73.9161377
   4.0271606   2.7165368  74.9145203  59.2035484   9.5691557  52.7820816
  58.6576729  10.0381060  52.1509399  58.6701736   9.5276604  53.5758171
  77.5813217   8.9666214  58.8623199  76.9962387   8.2583666  59.1311760
  78.4185562   8.5345297  58.6933250  32.0214081  59.9296188   0.2205445
  31.2153358  59.4682961  -0.0111005  31.7579880  60.5418968   0.9075379
   2.1761293  22.3745174  42.1162415   1.7702428  22.0886993  42.9346504
   1.8207740  21.7826557  41.4531784  61.5305557  39.1147728  65.7162018
  60.6320992  39.4054222  65.5595856  61.9072075  39.0189285  64.8414536
   1.4129201  49.6984406  72.6182709   2.2469757  49.2313766  72.6676254
   0.8302755  49.2103195  73.2000809  14.5089846   2.6015263  41.1936455
  14.6354847   2.7385046  40.2547836  14.0507622   1.7632865  41.2537994
  77.1359253  36.4610672  27.6507111  77.9886551  36.0327911  27.5754128
  77.0095444  36.5792160  28.5921459  61.5979156   1.3337064  78.0399857
  61.4556007   2.2696545  77.8986359  62.1630020   1.0652689  77.3155212
  72.7471695  28.2135181   6.9821305  72.9725647  28.7428131   7.7471628
  73.3133240  28.5460167   6.2856097  64.8851852  30.8150406  21.3894978
  64.5203476  31.6538754  21.6714268  64.1197433  30.2739811  21.1956177
  75.2340546  11.4064598  54.8006287  76.1433258  11.1557961  54.9637794
  74.9433975  11.8016920  55.6225433  16.4491425  36.3761787  87.2450867
  16.5184917  35.4762764  86.9263382  16.1352406  36.8741112  86.4902649
  76.3886337  24.9902592  84.5492554  76.8298798  24.3365154  85.0916061
  75.6390762  24.5259418  84.1766891   2.0078921  29.7553024  83.3242950
   2.0096984  29.3140354  84.1737137   1.0939188  30.0033722  83.1852036
  79.0671158  50.4740829  14.2129850  79.4314270  50.4170494  15.0963039
  78.9873199  51.4134026  14.0470028  10.8910866  55.8697815   3.1242404
  11.3709106  55.5359077   3.8822169  10.0935555  56.2488937   3.4936321
  35.8667526  70.1382599  87.0088120  36.4694061  70.5269165  87.6428375
  35.9295349  70.7051086  86.2400665  45.0180626  24.1229763  75.3489456
  45.3280144  24.9985847  75.1177063  45.6093941  23.5295429  74.8859177
   7.5799737  60.7852402  78.3841019   7.2123857  59.9190407  78.5596237
   8.5124922  60.6248703  78.2394485  83.8857651  48.3053322  48.7912903
  83.8284912  49.2482452  48.9457817  82.9757690  48.0207939  48.7066078
  16.8131180   2.7369838  29.5102386  16.5886650   3.5094266  30.0290699
  15.9740953   2.4226239  29.1734142  70.6329117  55.1158142  81.6660461
  70.9939117  54.8127747  80.8329315  71.3923111  55.1870346  82.2443848
  35.1018867  59.2583923  11.9972420  34.4235115  59.1564522  12.6648073
  34.6221657  59.4879799  11.2013836  55.9189835  46.5464058  68.3793945
  55.5600471  47.2999229  68.8480148  56.0555916  46.8626328  67.4863281
  79.8816605  69.5533905   8.8460941  80.5685501  69.6933975   8.1943178
  79.2661591  70.2724838   8.7036533  45.9735031  45.0720406   8.3867788
  46.8731308  44.7559738   8.3031082  46.0058060  45.6977768   9.1104097
  47.7510300  21.7502384  67.9951859  46.9222946  21.4417286  68.3615875
  47.7623253  21.4034939  67.1030655  26.5367680  43.2427483   2.0122223
  27.4668388  43.4402351   1.9017793  26.2507744  43.8232040   2.7175658
  59.4155846  63.7429008  88.9798660  59.2879868  63.8216209  88.0344849
  59.5994377  62.8140678  89.1202164  73.3077240   2.5276306  79.5672989
  74.0223389   2.5826471  80.2017517  73.7209930   2.1988211  78.7689743
  56.4252472  26.3970261  22.1860847  56.1768799  26.1087723  21.3077602
  56.9542580  27.1812935  22.0401287  62.1687317  65.1889648  55.5675430
  62.8509789  65.6651459  55.0942345  61.6198349  65.8737488  55.9496574
  76.8659363  62.7087402  59.9438972  76.5812683  62.0445824  59.3161316
  76.6264725  63.5413246  59.5368385  28.3520241  25.5471973  77.5492249
  29.1906796  25.9250336  77.2844086  28.0247974  25.1141491  76.7607956
  30.8489971  59.0715370   3.5684969  30.5208607  58.6141891   2.7942939
  30.8781796  59.9922485   3.3083580  54.7931252  44.5828094  12.2071638
  54.6426735  45.4876938  12.4806204  54.0753059  44.0899544  12.6047316
  33.9050064  43.8415413   1.0164057  34.3358917  43.0615997   1.3660635
  34.6227112  44.4429398   0.8177740   7.0619659  59.2750587  63.1556396
   6.6986094  58.6711159  62.5079842   6.3058362  59.7681236  63.4740562
  74.2533112   8.0637712  84.2595139  74.6327438   8.8039093  84.7332840
  74.9982834   7.6529536  83.8207855  16.5756531  69.5817719  31.5527325
  17.1343479  69.7532883  32.3108025  15.6886063  69.7640610  31.8628101
  36.5528526  31.6515751  19.4899273  37.1405449  32.1828499  20.0271397
  35.7767563  32.1990318  19.3707790  83.2895432  27.8261757  16.2378540
  83.3102951  27.8735847  17.1936531  83.4121323  26.8974094  16.0413952
  57.8037682  30.2837906  73.6563187  57.0568085  30.5140266  74.2088318
  57.5650368  30.6024284  72.7858582  72.2183762  27.1526852  54.3369637
  72.6542282  26.4891510  54.8717461  71.4599533  27.4189243  54.8567200
  36.8864555  70.8163834  64.4379349  36.8162270  70.5928497  65.3660126
  37.5888290  70.2554321  64.1089478   2.4690742   7.3864532  58.6349716
   3.0090532   6.6733737  58.9758110   3.0856709   8.1029835  58.4845619
  25.6979465  50.2444992  45.0596352  24.9854145  50.7807922  45.4073715
  26.2107162  50.8473701  44.5212631  23.7621479  23.5876236  14.3709002
  24.3600140  23.1138973  13.7926521  22.9192200  23.1491089  14.2550983
   3.7572002  45.4879074  25.1223907   3.5520272  46.4141846  25.2494812
   4.6866083  45.4776535  24.8936386  80.5779495  39.8630295  60.0735283
  81.3161850  40.2972298  59.6460876  80.5811615  40.2083893  60.9662514
  74.0441513  67.5153809  62.3918686  74.1361160  66.7291183  62.9299850
  74.9337769  67.8609848  62.3187523  36.3124580  42.4576530  16.4968338
  36.9342728  42.0095024  15.9234753  36.7665443  43.2565842  16.7646885
  31.0825405  43.2401695  20.4351749  30.5878773  43.3771324  19.6272259
  30.5157547  43.5861320  21.1245918  55.4565964  14.2004232  49.6041870
  56.3435326  13.8438845  49.6537666  55.5243988  15.0676498  50.0036278
  58.3172226   7.0396547  68.2246170  58.6714439   7.7059755  68.8134995
  57.9267426   7.5377812  67.5065536  35.9383163  69.3018723  60.5586853
  36.3596878  69.1703568  59.7093430  35.8602219  68.4214859  60.9261856
  84.9934845  15.7484426  35.0357361  84.7510529  16.2258282  35.8291855
  84.3246384  15.0689306  34.9512634  41.2135391   9.0826979   6.9533849
  40.5168915   9.7304335   6.8468404  41.9907455   9.5043535   6.5867929
   2.6333055  45.0516167  43.0341225   2.6496685  45.6230087  42.2663498
   3.2689135  44.3642502  42.8347206  47.2766685  49.9150772  84.2561951
  46.6762810  50.2824783  84.9048691  47.3021889  48.9793854  84.4563522
  26.5098648  60.6539001  67.6472092  25.8899040  60.0984917  68.1198654
  26.8797569  61.2260017  68.3195953  22.8651104   4.1751308   0.8727457
  22.2614422   3.7395148   0.2710352  23.5905476   4.4621797   0.3181508
  85.1716309  48.0275688  61.6357498  85.8217850  47.3749008  61.8956566
  85.1936340  48.6796570  62.3361320  82.0854568  26.1645927  22.5334244
  81.8645630  26.2727528  23.4584846  83.0157089  26.3841877  22.4820538
  73.1187515  35.1174202  53.5293083  73.8352127  34.8275299  52.9646149
  72.3871841  35.2668915  52.9303894   9.4275522  56.9148293  24.5070248
   9.4805107  56.5601883  25.3945255   8.4963064  56.8765450  24.2889729
  18.9542370  67.9194565  30.9330330  18.6215363  67.3356400  30.2513390
  18.1690598  68.2500992  31.3693829  47.9595146  14.4148998  63.7478905
  47.7578163  13.5280914  64.0464249  47.9589615  14.3520155  62.7927589
  53.9829483  32.1282578  31.3401737  54.5034599  32.2359123  30.5441170
  54.1737328  32.9099464  31.8586292  70.2262650   2.1318042  24.0993328
  69.3351212   1.7991903  24.2063675  70.1131363   3.0632489  23.9100056
  10.5888338  36.6818542  23.6478977   9.8583059  36.2670250  23.1891212
  11.1994514  36.9277458  22.9529762  71.0623398  33.2542839  11.5155954
  71.5681229  33.9306717  11.9660578  71.7123337  32.7654457  11.0108433
  26.1482391  30.5585423  13.6244268  26.7507458  30.4005222  14.3512335
  26.4737206  30.0007610  12.9179039  59.7352791  50.8107567  39.5336838
  60.0923843  50.7484245  38.6477814  59.5589790  51.7436256  39.6557655
  44.0331802  63.0901985  62.9080849  44.9351158  62.7809906  62.9925766
  43.9702568  63.8173332  63.5273972  73.7860641   4.9752865  26.8944244
  74.6932907   5.0317121  26.5944405  73.3555984   5.7335320  26.4994621
   1.7569263  10.4208279  15.3109684   1.7608343   9.5923004  14.8316374
   2.6774049  10.5819035  15.5183468  40.0612221  19.3979321  27.7634811
  40.2072029  19.3740559  28.7091846  39.1350899  19.6208801  27.6696453
  47.8083153  60.6949272  36.5082512  48.2119102  61.4506760  36.0814171
  48.3897552  59.9635696  36.3002129  37.1140175  13.6427555  46.6342926
  37.0874786  14.3428268  45.9820442  37.4962769  12.8977232  46.1705742
  74.5537491  60.4241295   9.4992208  73.7439194  60.2588272   9.9820023
  74.2710953  60.5504913   8.5934772  49.3482170  55.3191147  11.5960293
  49.0550613  55.6041451  10.7305527  48.5475311  55.2794037  12.1190557
   3.8904402  11.5296383  26.2300301   3.4895899  11.0473928  26.9532108
   4.3794842  12.2346983  26.6542473  72.5387039  23.6009941  29.3478737
  73.0059280  23.3625126  30.1485348  72.0329514  22.8197670  29.1239777
  68.9747314  62.1122017  42.6471786  68.0373611  62.2772255  42.5454826
  69.0320511  61.1813583  42.8627625  70.0313339  57.0977249   2.2659080
  69.9248657  56.1728821   2.0432754  70.7968445  57.3782234   1.7643749
  50.7177315  28.9099197  76.7909546  51.6117172  28.8370094  77.1251831
  50.1659203  28.6221027  77.5182114  70.0727768  22.4492264  80.2568130
  69.1285095  22.6060047  80.2547684  70.1759415  21.6026020  79.8222809
  81.5328751  30.7456360  33.6184578  81.0578384  31.5422573  33.3818817
  81.4488144  30.6904144  34.5703583  82.5822906  11.0177708  74.9262161
  81.8245163  11.2657461  74.3965683  82.2103806  10.5392427  75.6671143
   7.8735518  16.4179935  21.6771011   8.5377579  16.9992390  22.0475292
   8.3389931  15.5985565  21.5094166  62.8338890  45.4961205  12.9866657
  62.2647171  44.7342033  12.8782587  62.6375465  45.8185425  13.8662825
  32.5549927  69.1016769  35.8865242  32.2525063  68.1937256  35.8677521
  31.7805271  69.6168671  35.6606636  44.8826981   2.9877102  38.1897278
  44.4156914   3.5577896  38.8005867  44.8055077   2.1133108  38.5714340
  73.2717819   9.8875217   9.2264776  72.8886948   9.4349823   8.4750242
  72.9925919   9.3729601   9.9837809  72.1162796  42.0622406  13.8937178
  72.9649048  42.1627960  13.4624949  72.1555786  41.1968575  14.3009081
  82.0138702   6.9759874  57.2547684  82.9241638   6.6809139  57.2317810
  81.7874146   7.1258364  56.3368912  60.4717369  70.3685837  24.6612492
  59.6924057  70.5937576  25.1693535  60.4599075  69.4125443  24.6155796
  77.1766281  64.9570160  40.8824501  76.4034348  65.4396515  41.1748009
  76.8519440  64.3811646  40.1902046  74.0041962   3.7315264  75.8470078
  73.4481125   3.0738559  75.4293137  74.8335114   3.2797565  76.0031204
  31.2455750   6.6521144  64.5853882  31.6752548   5.7967882  64.5805130
  31.1154194   6.8600421  63.6601524  84.7552261  53.1700630  70.4082489
  84.7304306  52.7622452  69.5426254  85.1889877  52.5236397  70.9652252
  76.7160339  10.2162170   4.7003264  77.1070251   9.6395960   5.3567333
  75.8345413   9.8669081   4.5692735  63.2133636  20.4836903  32.9440613
  64.0141907  20.8723736  32.5921631  63.2428741  20.6806812  33.8803062
  52.4897308  60.1365280  25.0471611  52.9372177  60.1425972  24.2010231
  52.5049934  61.0500069  25.3327370  46.4955750  28.8627644  87.6368637
  47.3408089  29.1133919  87.2640381  46.5102921  27.9056911  87.6417770
  36.2885628  25.2988758  18.4861393  37.2364655  25.2046757  18.5801716
  35.9709473  24.4055042  18.3548355  47.1931534  63.9165115  79.8886642
  47.7252731  63.1333122  80.0289536  47.3581924  64.1581192  78.9772873
  30.6697712  55.1069679  86.7166824  30.6387463  55.8304558  87.3426437
  31.3313885  55.3714676  86.0775146  20.7635212  12.2569342   0.4581532
  21.2753124  12.6474981   1.1665057  21.1124401  11.3698120   0.3715360
  34.7717514  19.9099369  30.8181267  35.5535774  19.5726795  31.2554359
  34.0826378  19.2851906  31.0440636  23.5181484  32.0600052   8.4593830
  22.8676853  32.4512711   9.0425138  23.0011940  31.5935955   7.8025327
   2.9202118  26.4763241  46.5778656   3.3216789  26.0257607  45.8348656
   2.5964050  27.2995510  46.2122459  74.1783142  71.1658325  14.5161858
  74.7807922  70.5940170  14.0405006  74.2111816  70.8501663  15.4192390
  65.9742737  17.7716560  -0.0089064  66.8799896  17.9742355   0.2253509
  65.5824966  18.6219730  -0.2081507  86.9224091  20.4588318  36.3877411
  86.5024185  19.8959332  35.7373695  86.1990662  20.9358997  36.7944603
   1.8217409  53.4047813  76.8784180   2.6394567  53.3521042  77.3731918
   1.4546150  54.2572060  77.1125641  69.8927994  64.0758286  13.4114323
  70.2084808  64.9641953  13.2459497  68.9390640  64.1571426  13.4139547
  76.6225433  44.5570793  65.4580154  76.9119110  45.4655762  65.5424576
  76.9307556  44.1321602  66.2584381  48.0204620  36.9895973  88.0834198
  48.6106186  36.9021492  87.3348846  47.1847305  36.6426353  87.7713318
  29.4485493  39.4058838  85.8300018  29.7405262  39.4115524  84.9184418
  29.3201103  40.3294830  86.0461121  48.3786507  40.2832565   1.8140869
  48.6718330  40.3397331   2.7235291  48.3767738  39.3457756   1.6208190
  75.8565140  19.2229748  45.2583046  74.9177017  19.0498486  45.3282547
  76.2681122  18.3691444  45.3916893  34.2900696  25.9116306  83.4211197
  33.4198074  25.8241062  83.8099899  34.1377754  25.8543396  82.4778519
   9.0492582  69.7873917  82.8571701   8.6469059  70.5672379  82.4748383
   9.0671787  69.9638062  83.7977982  43.2866364  48.2356873  24.5530300
  44.2406845  48.2660408  24.4816227  42.9805756  48.1738777  23.6481876
  44.3027763  33.0865517  87.5399323  43.5788765  33.0860291  88.1661911
  45.0196991  33.5200233  88.0029144  78.9583359  24.2886105  83.4424210
  78.2153549  24.7077312  83.8766403  79.7092438  24.4968452  83.9983063
  40.8313293  70.0665054  11.6728096  41.1047516  69.4914703  12.3875160
  39.8759460  70.0076065  11.6701374  86.2632065  69.6038437  40.5314560
  86.7812195  70.4051132  40.6080208  85.6311493  69.6578445  41.2482719
   4.8086023  17.5483093  31.5044651   4.9085817  17.7987347  30.5860310
   4.5078120  18.3464165  31.9389572  71.9487534  49.3575516  33.3648643
  72.3728485  49.1442223  32.5336838  72.6422043  49.7530785  33.8929977
  57.4487038  30.9140644  29.0885105  57.2246971  30.2519398  28.4345646
  58.2083015  31.3660965  28.7212105  47.4497948  35.5358124  84.2728348
  47.9169159  34.8369675  83.8149643  47.2257690  36.1639862  83.5862122
   2.5802016  65.7128601  87.5825043   2.4517581  64.9547729  87.0123901
   1.7968885  65.7345963  88.1322098  33.5119095  20.2558117  77.8432541
  33.2191544  20.4510574  78.7334213  33.9839363  19.4268951  77.9227524
  23.9870548  59.1245613  46.6716995  23.9475689  58.1832924  46.5023346
  23.7940502  59.2081985  47.6055031  81.3621063  40.4592819  88.8038483
  81.9261856  41.1309967  89.1870575  81.6383972  40.4079590  87.8888321
  11.9749060   5.2345095  88.7954788  11.5522585   4.4411359  88.4666061
  11.5188007   5.4268470  89.6147461   5.2750111  31.3881702  87.2871933
   5.7529931  31.6709728  86.5075836   5.6277728  31.9290638  87.9937515
   5.0051761  18.3831291   5.2856421   5.1702609  18.3186703   6.2262926
   4.4961605  19.1876678   5.1863818  60.6266861  33.3873215  86.5268936
  60.4426079  32.7286568  87.1965942  61.5201874  33.6754875  86.7135696
  78.1900101  66.0838470  88.2877426  77.3300629  66.2283173  87.8929596
  78.7662735  65.8999405  87.5459061  33.0220451  30.7137985  89.0913849
  33.4415665  31.4544010  89.5292664  33.2582359  30.8155804  88.1693878
  86.1305008  10.4235010  24.4231701  86.2034454  10.1447887  23.5103550
  85.3812408   9.9347324  24.7636909  72.7643051   9.1088953  70.1416092
  73.5173340   9.0068140  69.5595779  73.0880203   8.8403358  71.0014420
  61.4325485  62.0415192  19.2204113  62.2295723  61.6239319  18.8939075
  61.7447472  62.7071877  19.8333149  61.2421951  66.3402557  62.1368675
  61.5783577  65.6529922  62.7121048  60.3298836  66.4514847  62.4043541
  17.3070221  57.7775002  49.0383797  17.6018219  58.1289749  49.8784904
  16.8720207  58.5145836  48.6097565  58.6270447  53.8169975  28.8472919
  57.6975327  53.6085243  28.7535820  59.0273476  52.9991837  29.1425323
   9.1920128  64.2479782  49.5803757   8.8937006  64.4702225  50.4623299
   9.7338085  63.4680252  49.7002296  18.9978638  12.8717632  14.3167973
  18.1228256  13.1579647  14.5787640  19.0882568  13.1742191  13.4131489
  19.0091496  18.0163746  66.3166580  19.5574970  17.5533981  65.6832581
  19.5898132  18.6728897  66.7014313  22.1337471   8.0519581  52.9047279
  22.1130123   7.2958207  52.3181648  21.2887878   8.4815683  52.7716446
  81.2343903  58.9351921  15.5196352  81.9142303  58.2649994  15.5895195
  81.5361481  59.6427727  16.0892868  18.7647152   3.0353928   8.4834833
  18.3616867   3.8108549   8.0930252  18.2503319   2.3022721   8.1455870
  71.6901398  62.2854233  34.9935646  71.9074936  62.9646301  34.3550720
  71.2394714  61.6124916  34.4833717  29.4345798  14.9587126  30.0965710
  28.9297714  15.6632385  29.6903152  29.2169437  15.0139189  31.0270653
  78.2669525   3.8085113  42.4888878  79.0632401   3.5618544  42.9593277
  77.5943451   3.8615632  43.1678696  60.0943451   0.6105506   7.8167877
  60.7333870  -0.0448021   7.5368471  60.3637924   0.8436187   8.7052183
  19.4271507  12.1251087  54.0963593  19.2856007  12.5969315  53.2756424
  19.0746727  11.2501955  53.9335136  78.4075012  40.6868095  41.0468216
  79.1526566  41.1368217  41.4449005  78.5237808  39.7686577  41.2911797
  44.9808350  36.8721962  20.2002735  44.0448647  36.6834106  20.1327629
  45.0525665  37.4628105  20.9501133  28.3732777  41.6469307  80.5919800
  28.8002777  41.6687584  79.7355728  27.4449291  41.7796516  80.4001846
  78.7973480  26.9639072  86.2272873  79.0134583  27.1107082  85.3064270
  77.8512421  26.8186150  86.2310486  68.4533386  47.0791855  75.8245316
  67.9907837  46.7692261  75.0459442  68.7053299  46.2801285  76.2873917
   4.2265849  57.9352036  16.3619709   3.6943710  57.3605690  16.9122219
   4.8270845  57.3436775  15.9083996  12.9878473  24.1413860  37.0763969
  12.8094072  23.3401051  37.5686760  13.5453415  23.8581219  36.3516960
  31.0148830  56.8949432  70.0142670  31.5531292  56.1373978  70.2437210
  30.7690964  56.7463760  69.1011658  81.7532806  43.3778648  21.1402016
  82.0612335  43.6163597  22.0145683  82.0244904  42.4663963  21.0310955
  56.0780220  34.5015717  17.0247974  55.6738510  34.0835190  16.2644653
  56.9949417  34.6169968  16.7754536  51.8804359   0.8609957  42.5191689
  51.0494995   0.7029513  42.0710640  51.6664276   0.7976235  43.4499855
  79.1305771  45.3431625  75.8620300  78.3303604  44.9277725  75.5405807
  79.7338409  44.6156197  76.0136490  82.0796890  52.0196266  32.6625595
  81.5192795  52.7831917  32.5242310  82.9400101  52.3874092  32.8646011
  76.6181183  47.8700256  37.1553078  75.8764877  47.4902534  37.6264648
  77.3354568  47.2531548  37.3006363  84.7077179  68.6255188  36.0203590
  85.4232559  68.3606720  35.4423523  84.7819824  69.5784225  36.0723000
  68.4805222  62.5754662  22.1294422  67.7738419  61.9889526  22.3993435
  69.2773361  62.0563469  22.2382202  70.1831436   7.1130900  40.9349403
  71.0141830   7.3302155  40.5124931  69.5461960   7.1049953  40.2204742
  17.0363712  35.3812027  56.8068733  17.5074615  34.6795692  57.2563324
  16.8012447  35.0063667  55.9580841  73.2484131  62.9384804  49.6860695
  74.1709595  63.0564232  49.9124146  73.1614151  62.0004311  49.5165672
  28.6492119  57.6266022  41.1133118  28.4164391  56.8535118  41.6274910
  28.6439590  58.3452492  41.7455711  84.8910980  30.0536938  68.9248734
  84.5441284  29.7694588  69.7704773  84.1146240  30.2040920  68.3857040
  84.7535095  50.0727425  16.2146645  83.9467316  49.6869164  16.5559483
  85.3083572  49.3214226  16.0051537  40.0704117  62.6469383  54.3910179
  40.8685608  62.4866753  53.8875237  40.2515793  62.2719955  55.2528915
  57.5325623  50.4790688  87.7415924  57.2835541  51.1609306  88.3655243
  57.2826729  50.8327141  86.8879395  77.4915009  57.0804596  41.5586281
  77.5238266  58.0322685  41.6548004  78.3710175  56.8390808  41.2680702
  34.5216064  36.2010078   9.9535341  33.8356552  35.5443611  10.0740347
  35.1289711  36.0485229  10.6774750  13.2465448  55.4002533  60.3068047
  13.3581409  54.5730286  60.7752876  12.3115120  55.4371681  60.1053543
  72.0792389  34.5116234  29.5077209  72.3191605  35.2258072  28.9172859
  72.4902267  34.7415047  30.3410740  73.7038498  19.3063126  55.5102081
  73.0199509  19.5892029  54.9031715  73.4055099  19.6124554  56.3666573
  48.1235847  70.2183228  62.7519951  49.0576401  70.1475906  62.5551033
  48.0923882  70.5263977  63.6577263  66.8420715  64.2824707  13.2468948
  66.2836990  64.7534866  12.6283522  66.2740555  64.1077805  13.9972801
  39.0160980   1.1139213  39.5162010  39.6829910   1.6297133  39.0629425
  39.0589790   1.4123394  40.4246826  87.0919189   9.7947655  73.7024384
  86.1665268  10.0375290  73.6717148  87.1501007   9.1628752  74.4190750
  55.2770958   9.2382412  63.2865677  55.6373749   9.6171150  62.4847679
  55.1053963   8.3234692  63.0630913  57.5698051  30.8888531  82.5755768
  57.8004494  31.7882137  82.8083572  57.7283363  30.8372459  81.6330032
  45.1450615  20.6581287   5.0395160  46.0928993  20.5276375   5.0110617
  44.7813644  19.7727184   5.0420885  30.9126682   4.1237068  23.2786846
  30.1715488   4.5351572  23.7232971  30.9125195   4.5117717  22.4036770
  65.0983124  69.3397751  55.0848961  65.6739578  68.9834595  55.7615891
  64.2214203  69.2889786  55.4653053  14.7503834  22.0912743  21.9387169
  14.2181015  22.7787495  21.5383606  14.1210737  21.5443897  22.4089489
  80.2647095  67.7280884  40.8780823  80.0729294  68.6265335  40.6093063
  80.5794296  67.3016357  40.0810089  46.8538437  60.7955170  53.8317795
  46.0998077  61.1843681  53.3885384  46.6959343  60.9595032  54.7615128
  10.2326002  18.6440868  58.8317795   9.9781332  18.0775108  58.1034431
  10.6966333  18.0641403  59.4355736  67.7662582  40.8451385  52.2832756
  68.5382309  41.3278885  51.9878960  67.1087799  41.0077400  51.6068764
  29.0135269   5.7262292  24.2278862  29.7489891   6.3281980  24.3417244
  28.2668495   6.1847796  24.6131611   0.3726820  65.8119583  78.2120056
  -0.0793656  65.1520996  78.7378082   1.2980207  65.5750961  78.2742767
  66.3100739  35.9487572  63.5224724  66.7055511  35.0907593  63.6763153
  66.4163284  36.0964355  62.5827217  59.1309662  62.3333473  46.2671432
  58.9968300  61.7335777  47.0009766  59.1027832  63.2048988  46.6619034
   9.0587988  70.8920898  65.7445984   9.3190699  70.8544083  64.8242340
   9.7153120  71.4539413  66.1563492  68.8539658  50.2081413  12.2162685
  68.9945297  49.4303856  11.6762953  67.9915924  50.0740967  12.6094313
  11.2310038  69.6179276  81.3238449  10.5643587  69.4529190  81.9906235
  11.0838890  68.9393311  80.6649933   1.8872488   6.5941153  62.7066994
   1.4816358   6.9464622  63.4988899   2.6171594   7.1868320  62.5273972
  53.8190155  13.8799267  30.5303268  54.2122345  14.6630716  30.9154186
  53.4067116  13.4312239  31.2685032  17.5954990  26.1222839  31.1996021
  18.3651314  25.6208725  30.9303684  17.3220978  25.7177792  32.0229225
  75.6435318  56.3263588  56.7798233  74.8771896  56.4888458  56.2297859
  76.3769913  56.6861954  56.2810402  53.3132095   2.6370246  16.6695442
  52.6001549   3.2512665  16.8441582  54.1072807   3.1678715  16.7318935
  84.0136490  33.1836929  81.2817841  84.0429230  33.7763405  82.0328751
  83.2840042  33.5045776  80.7517929  80.4489899  11.5106354  40.7132416
  79.4981384  11.5398340  40.6071472  80.7909164  11.9355831  39.9266434
  55.1779861  61.7347488  26.1328964  55.6362762  61.2872200  25.4216175
  55.2540932  62.6646690  25.9191570  40.9373436  62.8883896  13.4994888
  41.6467514  62.5517464  12.9520922  40.1535492  62.7993355  12.9573002
  68.3823166  66.6607132  26.3545856  69.1319351  66.5615616  26.9415016
  68.7635956  66.6584778  25.4766064  21.7791843  44.7204514  11.8840265
  21.5489979  44.2707100  11.0710211  22.0824242  44.0234108  12.4657555
   2.5396235  50.3623505  41.8409958   1.7441462  50.5785446  42.3275223
   3.0473776  49.8173370  42.4421425  23.0563354  28.4728699  84.0104904
  22.5178566  28.9073124  84.6719513  23.9389896  28.8117485  84.1598663
  74.6918945  32.0943222  52.6760406  75.5926666  31.8220978  52.5007133
  74.1557770  31.5022202  52.1485748  32.6291580  47.2690430  87.1251526
  32.5074387  47.3959618  86.1842422  32.1090927  46.4923439  87.3313217
  34.3225250  11.5561514  75.4981842  34.7410851  10.7179623  75.6943436
  34.3829994  11.6371107  74.5463333  49.1167679  45.5913963   7.8331242
  48.7093391  46.0066338   8.5932636  48.6791000  45.9883804   7.0800757
  26.0384521  34.0219688  75.8617554  26.7128773  33.7696915  76.4924240
  26.4657269  34.6685257  75.2999420  51.8006859  54.3250198   8.3940287
  51.1843605  54.2840004   7.6628017  52.6531372  54.4635887   7.9812841
   8.2441540   7.0586762   9.8840914   8.6879263   7.4354401  10.6439247
   7.3188596   7.0464015  10.1288605  16.6597271   9.6415634   5.5457425
  16.6019573   9.0679674   6.3098645  17.1798153   9.1460857   4.9130955
  69.8047638  58.0612717  20.8746910  68.8674393  58.0904655  21.0665283
  70.1035767  58.9615936  21.0026035  43.9565125  47.8014488  81.3130341
  44.1922989  48.1998787  82.1508255  43.1576271  47.3080215  81.4988785
  39.7691803  60.1386871  60.5495377  39.8820724  60.9340248  60.0290298
  38.8207130  60.0251579  60.6108055  67.7769623  27.5783882  68.6922302
  68.2294083  28.4078407  68.8456497  68.4618073  26.9141235  68.7695618
  84.9394379  62.9972267  49.4148979  84.5339584  63.2547455  50.2428474
  85.7812500  62.6184235  49.6680832  18.2130775  51.0868111   3.0039706
  18.9646015  50.7187080   2.5392697  18.4081192  50.9394951   3.9294376
  52.7071381  70.6091003  86.5021820  52.1951408  70.7109528  85.6998672
  52.8188782  69.6631393  86.5965347  15.4546356  39.2587471  84.6623764
  15.7099180  39.9213791  84.0205154  15.6725149  38.4250679  84.2455597
  67.7610016  55.4988213  38.3265152  66.8078537  55.5441818  38.2510757
  67.9614105  55.9854622  39.1260414  66.7523651  66.1476746  89.0301590
  67.2685318  66.6616592  89.6511459  66.0514603  66.7384567  88.7545929
  81.4443817  65.2972488  39.2978363  81.5707779  64.8260803  40.1213951
  80.5900192  65.0028687  38.9821663   1.8547093  63.1618385  86.6631317
   2.6617365  63.0842705  86.1542892   1.1643099  63.2473946  86.0056686
  63.3202782  47.0833397  10.5085430  63.0712700  46.4724617  11.2021236
  62.8002167  47.8679237  10.6823139  38.9258766  62.7670059  72.0337601
  38.7238503  63.1412621  71.1762390  39.8020821  63.0941238  72.2374496
   9.6882114  31.4831028  23.2421703  10.0272799  32.0141945  22.5216103
   9.2854300  32.1156654  23.8370361   1.7671340  67.8856659  59.4102859
   1.5260037  68.3155441  58.5897408   1.7785103  66.9524918  59.1974602
  55.1248436  58.2247658  46.4651527  54.9545326  57.4356651  45.9508095
  54.5240784  58.8783226  46.1071358   4.9263158   9.2234278  83.1349258
   5.7171597   8.6867914  83.0818253   5.0071459   9.8416271  82.4086151
  79.2661057  -0.1902537  58.5623665  80.1077728   0.0991471  58.9146271
  79.0873947   0.4141697  57.8419724  59.8121872   9.6407547  72.9558182
  60.2160416  10.2875280  72.3771820  59.9100418  10.0102892  73.8333740
  12.5279703   9.1933203  66.9725723  12.3417778   8.6732435  66.1908569
  13.3859215   9.5822935  66.8027191  48.2857895  40.1633339  20.7834988
  48.0405350  41.0807152  20.9039001  47.5248642  39.7655258  20.3604488
  67.0010834  30.7786598  66.9090347  66.8694305  30.4043884  67.7801361
  67.0057220  30.0227833  66.3217850  65.3346634  43.1838837  34.5905266
  65.3757706  43.0994911  35.5431137  65.2474289  44.1246490  34.4369659
  65.9052963  39.4126434  45.6375427  66.7275162  39.0188484  45.3457909
  65.5384827  39.8129730  44.8492470  55.3848953  26.1092434  88.8112869
  55.3253975  26.7867260  89.4848633  55.0163307  26.5174084  88.0278320
  64.8434525  67.0050735  21.4503193  64.9378815  66.0571518  21.5438480
  64.1214676  67.1139374  20.8313522  78.2287445  50.4018860  35.0689697
  78.6180649  50.5614624  35.9287376  78.7288208  50.9589806  34.4724770
  83.1749954  21.2378178  22.6209965  82.7976913  21.7840805  23.3105412
  83.1479950  21.7877998  21.8380394   2.6920402  43.0537415  83.4635468
   2.7194440  42.1645851  83.1101608   3.5042405  43.4579391  83.1582794
  81.1605453  60.0500603  37.0548096  81.8276291  60.6267929  37.4271164
  80.3522034  60.5610695  37.0957870  56.9156265  64.2022171   1.7396677
  57.1315804  63.6214104   1.0101067  55.9862061  64.3987808   1.6223154
  32.1648254  55.9079170  42.5942345  32.0163116  56.0252876  41.6559410
  32.6704407  56.6777687  42.8548431  18.1089287   9.4350500  83.6059341
  18.6466751  10.1315584  83.2291946  17.2088795   9.6934595  83.4075165
  32.5803986  32.6885262  15.4464617  32.0581741  33.1156883  14.7674589
  33.1578789  32.0949020  14.9665089  79.0229874  58.1050873  83.4335251
  78.5690689  57.6244850  84.1257782  78.3511963  58.6729584  83.0560989
  65.7412109  44.7149277  26.8681145  65.7988434  44.2291412  26.0453606
  65.6604385  44.0384750  27.5405121  57.6678543  29.2368069  16.7494564
  57.4393501  30.1088009  17.0713902  57.4400215  29.2573395  15.8199930
  50.0143547  51.5650101  27.2304020  50.4379654  51.7852249  28.0600357
  50.2509689  52.2826004  26.6427746  17.9997406  19.0483437  36.4803238
  17.0870533  19.3232403  36.5678825  18.4112167  19.7438869  35.9673538
   8.7469549  21.1245155   5.7719049   8.4783669  20.5243816   6.4675560
   8.3193626  21.9523010   5.9913778   4.2813611  20.5554790  25.1138363
   4.0880895  19.6366081  24.9279461   4.9771166  20.7833824  24.4972191
  75.7982025  26.6285763  17.9990025  76.2363205  26.4471416  18.8304863
  76.2396545  27.4075947  17.6606541  44.0411148  10.5647087  17.4527588
  44.7424965  11.2033749  17.3246880  43.2574577  11.0951977  17.5966072
   3.3079925  70.1681671  56.5987892   2.4207997  69.8470230  56.7599907
   3.6612687  69.5738144  55.9368401  34.3647156  13.0281477  46.9111328
  35.2446709  13.1603413  46.5583801  34.0802956  13.9019747  47.1790199
  38.8586998  66.4381638  59.5541611  38.4360619  67.0104218  60.1945724
  39.5772400  66.9630127  59.2013741  71.5410614  11.0918732  85.1154175
  71.9223633  11.8125124  84.6138992  71.9777451  10.3090401  84.7797012
   9.6862679  47.7481079  30.8594437  10.0175953  46.8726730  31.0596218
   8.8575735  47.8051147  31.3350964  40.2946663  51.7694130  13.9177284
  40.0028229  51.4250603  14.7618122  40.3004036  51.0081215  13.3375254
  82.9777527  19.0642109  38.9118996  82.4442978  19.3453045  38.1685028
  83.7927017  19.5582447  38.8223038  55.5507240  44.4153671   0.3954128
  55.5974998  44.5150452  -0.5554332  54.9146080  43.7132034   0.5316238
   6.0092220  21.7480412  72.0306854   5.7924743  21.4364815  72.9094238
   6.4800525  22.5685234  72.1768265  14.3407021  69.3696213   5.1823597
  15.2495193  69.6384201   5.0480819  14.3782749  68.7563171   5.9163094
  80.0622177  49.5989647  16.6138210  80.8325653  49.4731102  17.1678562
  79.3500214  49.7718697  17.2295475  82.1542053  70.9502945  34.9560318
  82.0713806  70.0752335  34.5770302  83.0854111  71.1577835  34.8783760
  66.1573639  13.9131384  84.7997360  66.4733887  14.8148127  84.8575439
  65.2332077  13.9978199  84.5652161  22.8455029  25.0854473   8.7293940
  23.7171459  25.0262070   9.1204987  22.9151840  24.5906506   7.9129672
  46.5780983  59.0137787  60.7451515  46.8038483  58.7650757  59.8488197
  47.3024216  58.6816597  61.2755127  24.5103989  16.5972748  44.6598511
  24.2426529  15.7589931  45.0364494  24.5023670  17.2053967  45.3990097
  34.3396301  57.8677101  43.1152534  34.8051186  58.6985245  43.0188255
  34.8772621  57.2352219  42.6386604  44.5861320  68.9126511  47.6219597
  45.3858719  68.6584244  47.1614990  44.3623199  68.1484070  48.1530724
  61.6981087  23.5544968   6.4645119  62.3725891  22.9535942   6.7810926
  62.1490860  24.3937778   6.3725529  21.8087254  16.8872623  11.8357382
  21.5980854  16.7491455  12.7592030  20.9885941  16.7122478  11.3742323
  48.9182281   6.6883435  31.3406124  49.7935562   6.7722454  30.9624710
  49.0058098   5.9962997  31.9960785  14.1888847  56.3849449  64.7389908
  13.9836149  56.1604233  63.8314209  14.2065678  57.3419075  64.7508621
   5.2821999  46.9201431  41.0443268   6.1018987  47.0828514  40.5775795
   5.5013785  47.0526390  41.9666252  66.3031540  26.3924847  10.5807858
  66.0836411  25.9065323   9.7858667  66.3442917  25.7251625  11.2657824
  33.2522087  46.5817490   1.8568450  33.3692551  47.5248985   1.9708519
  33.2578621  46.2303429   2.7471902  65.8770676  34.4538727  58.0527267
  66.8006134  34.3765602  58.2921219  65.4733047  33.6564255  58.3951874
  63.3718529  66.9278030  80.5182343  62.7853699  67.5672379  80.9224548
  63.9051208  67.4417267  79.9118195  82.4572983   1.0698733   5.9987540
  82.0054550   1.4868404   5.2651286  82.4913101   1.7465481   6.6749101
  68.2242126  19.0735607  76.6215515  68.5471878  18.5546780  75.8848877
  67.3542480  19.3635235  76.3471069  33.2169991  68.8283463   8.3916483
  34.0116043  69.3620453   8.3898497  32.6892700  69.1868973   9.1052103
  55.2953949  46.2167931   6.2213950  55.1327896  46.6886406   5.4046016
  55.4463425  45.3116341   5.9491315  78.6085815  18.0440483   3.8450155
  79.2013702  17.3417721   4.1126671  78.2016525  17.7206745   3.0412309
  40.8300476  14.8878717   1.6987108  41.7742462  15.0260658   1.6237321
  40.4496269  15.4723597   1.0430540   7.3566461   3.2392764  49.6514702
   7.2708392   2.3179760  49.8965721   7.9860282   3.5962183  50.2781296
  74.2694016   2.4326682  51.7704926  74.4480743   2.4330244  52.7108688
  74.4711685   1.5404165  51.4886971  30.7194939   1.7179136   2.6473305
  31.3196526   1.5720891   3.3786154  30.2400055   2.5113685   2.8855591
  56.4296036  50.6770363  59.2257957  55.6971092  51.0787659  58.7585754
  57.0695839  51.3825989  59.3198128   7.9973259  69.8720932  40.9848251
   7.7495737  68.9882431  40.7134209   7.5488806  70.0005188  41.8206711
  21.6593075  11.6694593  42.2393570  21.8352242  12.0245600  41.3680420
  22.4654999  11.2124462  42.4789925   8.6127291  18.8163910  24.9989872
   8.1383390  18.1610775  25.5106030   8.3718004  19.6523342  25.3982143
  26.6785316   6.1331906   3.3133218  26.1014404   6.8387947   3.6054189
  27.4791718   6.5781379   3.0354180  15.3690405  22.9907532  55.4898109
  15.3832369  22.8866940  54.5383911  14.4819870  23.2932091  55.6844597
   6.8897219  51.5887299  28.9792233   5.9867558  51.8868980  29.0886726
   7.0818648  51.1065063  29.7834473  29.0013046   3.5276062  77.3442917
  28.4271240   4.2722659  77.1653214  29.0872517   3.0832851  76.5008316
  78.0916977  15.2009668  53.2516899  77.4017410  15.1255407  53.9108543
  78.4881821  16.0564041  53.4167786   4.5073447   1.3884270  19.2844353
   5.2796488   0.9134874  19.5913734   3.9202626   0.7060901  18.9588852
   0.4290264   7.8866420  75.6248932   0.8532862   8.3612385  76.3397293
  -0.2668469   7.3853602  76.0499878  23.1091232  37.8658524  73.5107117
  22.3355637  37.7512627  72.9587097  23.7130623  37.1817741  73.2217026
  71.4432449  18.4143620  42.5471802  71.0331268  17.7344990  43.0818062
  71.4337692  18.0585556  41.6586189  79.2670975  54.3431053   1.6058803
  80.1505432  53.9821129   1.6795592  78.8517838  54.1325035   2.4421794
  84.3918076  68.0278244  67.9851227  84.4669952  68.9806976  67.9340363
  85.2427597  67.7376938  68.3136520  57.5397720  52.2367668  70.1477966
  57.4477348  52.8581810  69.4255753  57.8712044  51.4386292  69.7362671
  13.1729593  11.5633755  40.4029617  12.6945343  12.3871918  40.4960594
  12.5305300  10.8875551  40.6192589  53.8963776  53.7322807  64.0321198
  54.7048492  53.5367355  64.5057983  54.0245552  53.3412132  63.1679039
  67.1595993  50.5521698  47.9183426  66.2554550  50.5970230  48.2293587
  67.6889877  50.5877571  48.7150307  22.0650444  54.2589073  25.2912369
  21.3022614  53.7067184  25.1195278  21.8299351  54.7550468  26.0753288
   8.4878454  58.6768379  65.2106552   7.8767629  58.8811302  64.5027924
   7.9378490  58.3124428  65.9041672  62.3848190  21.2348213  25.5332050
  63.0938034  20.7268906  25.1387672  62.2803955  21.9899578  24.9543304
  49.5040665  65.9870224  72.0756836  50.3776970  66.1379242  72.4365540
  49.1949539  66.8574753  71.8247147  85.7913361  44.7151871  80.4035110
  85.5237961  43.8903809  79.9981155  86.2997971  44.4512978  81.1703644
  66.3393097  57.4160652  66.6406784  66.3981934  56.7154083  67.2901764
  67.1142807  57.9551353  66.7989731  26.5289497   5.4100604  21.1149063
  26.0220966   4.6644816  20.7932758  26.5851879   6.0026784  20.3653240
  38.8817444  64.7604218   8.0174170  39.1614075  64.7977829   8.9320889
  38.7031136  63.8334312   7.8592553  25.5062428  55.4772720   2.9984937
  24.9204082  56.0314522   2.4828260  25.0477009  55.3519249   3.8293111
  66.2761688  20.0504951  48.9262314  67.1465683  20.3546238  48.6690636
  65.6807404  20.4834423  48.3144646  27.1391926  66.0020447  34.1483650
  27.4707718  66.0946732  33.2552223  27.0285873  65.0585785  34.2661362
   6.3559842  64.5644531  29.2246971   6.0365500  64.7863007  30.0993271
   6.2054744  63.6223984  29.1465511   9.6672897  29.8247242  68.8342285
  10.3770266  30.4151859  69.0869370   8.8778725  30.2333870  69.1892624
  69.6701355   2.6109540  46.6868591  68.7993240   2.3936989  46.3541069
  69.5220642   3.3432832  47.2851944  82.0051498  27.6198235  88.7616196
  82.4559174  28.4463196  88.5885925  82.7099075  26.9862938  88.8964844
  33.5580292  49.0900612  12.4319086  33.9343643  49.9671783  12.5045052
  33.7938805  48.6594772  13.2536173  30.8702793  33.3298721  25.3834038
  30.8973312  33.6945152  26.2680130  29.9431305  33.3459167  25.1459770
  86.1265869  40.7117462  20.1766815  85.8119736  40.2324753  19.4101620
  86.7698441  40.1270103  20.5773621  35.8450165   8.1292162  49.1558609
  35.1578140   8.6654510  49.5513840  35.5182076   7.2321630  49.2245979
  31.8989620   4.3148146   0.0473826  31.9006557   3.4017396  -0.2398852
  32.4940948   4.3311944   0.7969028  37.5621452  24.3939209   3.4236701
  37.0586319  24.9446945   4.0231290  38.4491196  24.3968697   3.7835300
   9.3826466  69.8364410  56.3772964  10.2076063  69.5149384  56.0135536
   8.9442806  69.0519104  56.7068062  16.0505180  55.6118965  18.5909309
  16.5871906  55.9733810  19.2962990  16.5972519  54.9310188  18.1988621
  17.7287922  39.5196915  80.6237793  18.6403008  39.6079369  80.9023438
  17.7602386  39.6048584  79.6708984  32.5457878  34.2401505   8.4236803
  32.0366898  34.8115807   7.8487692  32.2210503  33.3597260   8.2349272
  31.1845341  22.5535259  27.3348713  32.1012421  22.6090832  27.6046638
  30.7259998  23.1577854  27.9186935  34.0677452  59.8247185  53.4423561
  34.7123947  60.1675034  54.0613518  34.3011436  60.2273827  52.6059265
   8.4702492  70.2473068   9.3028326   7.5795527  70.2614288   8.9525595
   8.8027039  71.1313934   9.1476202  84.1399460  67.3491745  26.7709026
  83.9157791  67.4949570  25.8518124  84.4015274  66.4292679  26.8106327
  17.0926666  53.3218155  58.2982712  16.8767147  53.2495613  59.2279892
  17.2990170  52.4264412  58.0300255  26.3883686  69.9720840   7.2971058
  27.2440243  70.3949890   7.2247176  26.5789261  69.0354919   7.2449694
  39.5221786   4.2523451  10.7606039  40.2384300   4.2252717  10.1261892
  39.5659027   3.4069593  11.2074175  55.2521706  46.7147636   1.6985935
  55.1220551  45.9016342   1.2106144  56.1396294  46.6437187   2.0501559
  85.2104874  13.1353312  58.5753250  85.9007950  12.5784683  58.2153130
  85.6079102  13.5418320  59.3454170  76.5750351  48.5692024  34.5769348
  77.1343842  49.3454666  34.5491562  76.5246735  48.3433876  35.5057526
  81.9535217  36.9940224  49.8991318  81.8832092  37.0043907  50.8536911
  82.4910126  37.7580223  49.6902504  20.5031261  29.7478924  88.4037399
  20.0890331  29.5030861  89.2312851  20.4596634  30.7039719  88.3877869
  36.8035240   4.1990490  49.6513405  36.5723991   3.2702453  49.6396255
  37.5667229   4.2632108  49.0771904   3.6255131  63.5910225   3.6415193
   4.3341675  63.0924644   3.2347240   3.1849153  64.0221176   2.9092197
  71.1402512  29.3579140  40.8355980  71.8588638  29.1927032  41.4459572
  71.0224228  30.3076210  40.8557701  25.5956726  63.8383293  14.1124573
  25.0032845  64.1489334  14.7971706  25.9917717  64.6348267  13.7590084
   4.1751657  22.1821899  30.6158943   3.6331809  21.6593723  30.0250092
   4.6913080  21.5379715  31.1004677  64.7813644   2.5267584  58.8440132
  65.3616257   2.2766113  58.1250191  64.3687973   3.3380497  58.5476570
  47.3399048  62.9637947  25.1813889  47.3930855  62.2723999  24.5215607
  47.8771019  63.6732368  24.8287601  84.6193695  14.1912546  83.5806808
  84.4735489  14.6403551  84.4133148  85.4732513  14.5067263  83.2847214
  75.1965790  41.4899292  81.2779160  74.8413239  41.8809204  82.0761337
  74.4673309  40.9901772  80.9109344  80.8717194  61.7082825  24.1914330
  81.3376923  61.2576561  23.4871387  80.9346771  62.6361656  23.9649277
  32.8547363  42.8551445  80.7610474  33.0699959  43.2295609  79.9068222
  33.1961136  41.9616623  80.7238388   9.1216421  56.4683037  38.1679955
   9.1303797  56.3572540  39.1186905   9.9612665  56.8818703  37.9674339
  48.2886429  69.8009262  14.4241037  47.9552803  69.4809494  13.5858221
  47.6106796  69.5649490  15.0572767  64.1031189  47.0592079  69.9973526
  63.4878769  47.5223007  70.5659103  64.2099075  46.2013741  70.4083862
  39.2021103  53.3550568  74.9477692  38.9499168  54.1888161  74.5509338
  38.5061684  53.1696663  75.5782623  40.5748749  11.3142166  78.2826004
  40.3536758  11.5866289  79.1731644  40.3421593  12.0658112  77.7374649
  20.7864437  67.8224106  72.4075546  20.7470074  67.1637955  73.1010284
  19.8884239  68.1451187  72.3323746  60.6424599  26.0034561  75.6283798
  60.1071014  26.6752567  76.0506439  60.5919609  26.2087479  74.6948166
  61.9335365  60.1645622  49.5676956  61.1376724  60.2572517  49.0440140
  62.2351227  59.2737656  49.3894806  24.8315201   0.1870556  27.2906818
  24.0417442  -0.3183918  27.0983067  24.5854969   1.0941236  27.1092110
  70.9195328  66.9616699  52.6182976  71.4626312  66.4068756  52.0584030
  71.5279922  67.3163300  53.2665482  50.7020416  47.9487991  79.0991745
  51.3765106  48.5199089  78.7315369  50.6964569  47.1837082  78.5239944
  76.1717606  59.5956497  73.2528992  76.4409637  59.9400444  74.1044617
  76.8892517  59.0191841  72.9899902  16.1219692  69.9063568   2.7071428
  17.0044155  69.8457642   3.0729961  16.0231895  69.1090851   2.1867182
   9.0630150  43.0998001  84.1892395   9.8976011  43.4145737  84.5365372
   9.1210470  42.1465340  84.2536469  67.8631363  45.6798363  18.2838097
  67.2303009  45.9058151  17.6021328  68.6850204  46.0701790  17.9865322
   2.7707269  42.3682442  72.6972580   2.9935305  41.4534111  72.5250092
   1.8297478  42.4211769  72.5299606   8.5813761  32.8087463  61.7106552
   8.7907486  32.6724396  62.6346779   9.4128418  32.6778755  61.2548370
  42.3154678  45.1104698  61.3095436  41.6351891  44.4652176  61.5021515
  43.1304359  44.6871223  61.5794220   0.2609151  51.4839897  70.9737167
   0.9339695  50.8733864  71.2743683   0.3971420  51.5440407  70.0281677
  59.8928642  14.2072725  67.4938049  60.3611069  13.3753967  67.5642624
  59.1662025  14.1261702  68.1115570  79.9234161  33.3124466  16.3322411
  79.9000854  33.4902687  15.3919935  80.6685333  33.8201523  16.6535969
  76.5509338   6.5853825  80.3331223  76.7923508   7.1084991  81.0975189
  75.6325989   6.3580565  80.4788055  63.7185555  40.8086243   5.7495384
  63.4436264  39.9873352   6.1571293  64.3340454  40.5427017   5.0663910
   8.0027933  49.7088509  81.3901978   8.8055496  49.7992439  81.9036636
   7.5749536  48.9315834  81.7494278  51.8577919  65.8915939   4.2528310
  51.1044464  65.3106308   4.3585939  52.0071449  66.2516937   5.1270461
  60.0616493  68.7246628  38.8421974  59.3874855  68.9602890  38.2048454
  59.7619667  69.1150055  39.6632042  61.8309860  66.6902313  44.8293991
  61.0904388  66.9622879  44.2873535  61.5508080  65.8622894  45.2195854
  81.2619705   7.4868889  54.5781250  81.8755798   7.8195539  53.9231110
  81.3197098   6.5347428  54.4986572  24.8249226  64.9004288   5.9855638
  24.5953808  63.9940567   6.1905770  24.6907959  64.9736099   5.0406370
  76.3711929  41.4785309  86.0524673  75.6614914  40.9773979  86.4542389
  77.0670471  41.4775238  86.7097473   0.4343313  57.2436562  72.2706528
   1.2055542  57.8065224  72.2026291  -0.2822295  57.8432770  72.4785538
  19.9189587  64.3690643   0.3920550  20.8639774  64.4017487   0.5407276
  19.5522366  64.1111145   1.2377552  49.1924744  44.1783485  82.0282593
  48.5290070  44.0903053  81.3439407  48.7283554  43.9725914  82.8397369
  13.1080914  71.3956604  73.4175262  12.7085705  71.3948364  74.2873611
  13.9401140  70.9373932  73.5356827  25.3973656   4.7445779  62.4599152
  25.5352497   5.3782554  63.1639557  24.5422611   4.9734764  62.0957260
  66.9346008  38.3336182  64.8863678  66.1523819  38.5648499  65.3872681
  66.7547760  37.4542427  64.5538025  81.2500610  36.8938789  29.2349415
  81.4219742  35.9744186  29.4380970  80.3556671  37.0436783  29.5412788
  31.2955761   7.2634754  24.1416264  31.7246361   8.1055346  24.2935371
  31.6131020   6.9843473  23.2828503  68.7778473  36.8634911  57.9347687
  68.2665710  37.4137268  57.3414116  69.6766586  37.1783180  57.8386269
  55.8211899  69.5162506  61.8317833  55.1124191  69.4395065  62.4705200
  56.6179962  69.5501938  62.3611107   0.5057735   7.9614048  20.2532711
   0.7705851   7.0959468  19.9416790  -0.2552845   8.1861515  19.7180023
  36.9678535  64.1306686  49.4280281  37.8280525  64.3177414  49.0521355
  36.4892273  64.9562607  49.3535118  82.6220093  57.8711853  71.9105148
  82.1330643  58.6175995  72.2569656  81.9664917  57.3495865  71.4474030
  65.6038513  19.1034794  36.9494820  66.2407761  18.5000019  37.3320656
  65.4127197  18.7348804  36.0870209  22.4516087  61.4409866  21.0360641
  21.8079338  62.1301994  21.2000828  22.7633591  61.1924095  21.9062672
  73.3022156  10.6197071  27.0895252  72.4038315  10.8980503  26.9116058
  73.6508102  10.3734932  26.2327309  16.6094646  36.5130615  65.4736099
  17.0811710  37.3406334  65.5676956  16.5180531  36.3956375  64.5280533
  37.7822533  58.9010582   5.8114119  37.3633614  58.4461250   5.0807958
  37.5481644  59.8207817   5.6867309  62.3256607   1.6069897  53.2322235
  62.5579491   1.5507632  52.3053398  61.5531082   2.1718001  53.2516975
  42.1158714   6.1459231  26.9443226  42.6516724   6.5330682  26.2520313
  42.4864998   6.4923091  27.7560406  67.6553192  10.1010303  23.0442696
  67.9776993   9.8632326  22.1749268  67.5316391  11.0492973  23.0027332
  73.2445831  25.6142387  46.4658356  72.6655502  24.8611965  46.3479958
  73.0632324  25.9190006  47.3549156   7.8872633  55.2967873  53.7333984
   8.2819433  55.2594147  54.6046410   8.6296949  55.2430077  53.1316223
  60.6732864   7.7687507  69.8115692  61.1165848   7.1594362  69.2212677
  61.3114204   7.9377594  70.5047150  21.6944962  33.8373947  14.4779959
  21.5984745  34.7752075  14.3121119  22.6199017  33.7262344  14.6959372
  81.5923691  32.8299484  53.8479729  80.9213028  33.5072174  53.7630997
  81.2060699  32.1825943  54.4378357  25.3884754  67.6916351   9.7507172
  24.9075356  67.8091125  10.5699406  25.9559708  68.4603577   9.6937828
  82.9760513  21.5657444  30.4393787  83.6963272  21.6906548  29.8214569
  82.5692215  22.4292450  30.5107307  13.1848421  17.9937630  24.2270813
  12.4077072  17.5297737  23.9156208  12.8737917  18.5093975  24.9711246
  60.9372940  32.6672668  54.5982285  60.1221924  32.1691208  54.5374641
  60.9259796  33.2395935  53.8310623  83.1704330  26.5181751   9.0136251
  83.8284988  26.1478748   9.6018858  82.3327942  26.2782001   9.4098768
   7.0601153  23.7438202  84.3178940   7.0747466  22.7880268  84.3676682
   6.1863251  23.9862690  84.6243973  74.8555832  18.5524406  87.7394867
  74.0205460  18.8847599  88.0688858  75.3793716  19.3374462  87.5793381
  66.5664825  -0.0055005   8.4196711  66.9892960   0.6118007   9.0166636
  65.7712555   0.4441532   8.1339045  31.2023106  19.0448265  34.0218811
  31.4572716  18.6023197  34.8314552  30.3270645  18.7080040  33.8302307
  50.5319901  70.0449829  69.1018753  50.1725731  69.2465897  68.7150726
  49.7688942  70.5084457  69.4470139  20.5271378  67.3029785  57.1659851
  19.8485680  67.2195740  56.4960480  20.0467377  67.4988251  57.9704056
  40.1943283  22.3875160  84.4770279  40.1549835  22.8479385  85.3153000
  40.0423203  23.0688858  83.8221588  49.4571800  55.4508018  58.0475807
  49.3295517  54.7226410  58.6556320  49.1335220  55.1220322  57.2088966
  71.9447403  12.9181004  12.1357203  71.5072784  13.1422262  12.9570761
  71.3988724  12.2310505  11.7533360  75.8001328   7.4206781  68.9571686
  75.3764877   6.9458647  68.2421036  75.4190445   7.0469375  69.7517319
  42.8310013  28.3590546  12.0425291  42.4896202  27.4897900  11.8325968
  42.5909576  28.4957314  12.9590063  82.1525116  53.8035393  23.6053410
  82.3526840  54.2965431  22.8096581  82.1593857  52.8875313  23.3276463
   8.6244707  54.4106674  15.5296049   8.1703749  54.6307716  14.7162285
   8.0335226  53.8054314  15.9776039  83.4547653  13.6869612  76.5517960
  82.9536819  14.1539202  75.8831406  83.5871048  12.8127861  76.1850052
  43.2380943  60.2704391  30.1402855  43.4470406  59.3585205  30.3427105
  43.6716347  60.4353180  29.3029728  81.8099823  12.2010260  25.6616821
  82.6194763  12.2653036  25.1548996  82.0783463  12.3721218  26.5644226
  49.7544441  57.5354004  50.8641663  48.9960747  57.1210289  51.2757568
  50.5060844  57.1948853  51.3492584  42.5499573  58.4030685  12.6266403
  42.6363220  58.6803207  11.7145519  41.6862869  58.7189217  12.8922310
  20.6269665  66.4631119  61.8795853  19.8392353  66.1067734  62.2903595
  21.2862740  66.4487762  62.5733719  61.3059464  30.9295883  76.9975739
  60.5859566  30.9749413  76.3684540  62.0836334  30.7764530  76.4609375
  83.1003799  13.2498531  31.0077419  83.4488754  12.9950609  31.8620605
  82.3505249  13.8086567  31.2119274   0.0991468  34.8011971  82.5148621
   0.3820246  35.5316467  81.9647217   0.5121037  34.0319252  82.1225357
  53.1417580  13.1489954  82.1042099  52.7650490  12.6257734  82.8117142
  54.0584145  12.8759794  82.0663376  50.8097343  62.6493797  78.8987198
  51.5106163  62.7899895  78.2621536  51.1583900  62.9970932  79.7195587
  55.2475357  56.3737640  83.0655975  55.3338127  56.2421608  82.1214218
  54.4037857  55.9792862  83.2862930  48.9733009   4.0695515  41.8947029
  48.4375725   3.2915814  41.7398224  49.8731613   3.7706316  41.7638245
  28.2971039   3.1720352  66.9615860  29.0156937   2.5459180  67.0501099
  28.6271553   3.8305719  66.3503342  23.4601192  69.3121643  23.5176506
  22.7664909  69.3642044  24.1752224  23.2864704  70.0457306  22.9277763
  80.5414505  33.3063507  76.0050507  79.9969177  33.0627098  75.2564774
  80.1277466  32.8749123  76.7526703  75.8470230  51.6592865  16.5099411
  75.2065887  52.2789421  16.1605186  75.9220581  50.9856987  15.8340082
  44.9547424  71.3690033  31.4236622  44.0705299  71.1222534  31.1525326
  44.8271942  71.8700409  32.2292175  40.0257874  49.7376785  75.1831131
  39.8303146  48.9140472  74.7362900  39.4290237  50.3726006  74.7869186
  45.6640968  64.1651611  76.9734955  45.3401909  64.9516754  77.4124908
  46.6171684  64.2372055  77.0253830  18.5317593  59.3402786  15.3283930
  19.4478416  59.0676231  15.3801966  18.1436882  59.0329208  16.1476402
  78.6849747  36.9507217   8.3525476  78.1583557  36.1747055   8.5441294
  78.0464859  37.6590500   8.2699146  71.9218063  23.0991325  52.2654381
  72.3213425  23.7717323  51.7138863  70.9803619  23.2534161  52.1872787
  17.0152893  53.3797684  50.0945587  16.9327412  52.5197525  50.5066147
  17.3326225  53.1925964  49.2111015   6.9013743  41.3670769  10.5516186
   7.0929971  40.4487381  10.7417936   6.9352403  41.4260674   9.5968380
  36.8049850  24.9266987  30.2822094  37.0842438  24.6816444  29.4000549
  36.7497330  24.0963936  30.7552567  13.5166941  51.4624863  88.3988953
  13.6095219  51.5297585  87.4485855  14.1925888  52.0438614  88.7473221
  81.0374832  34.7024536  57.7610168  80.1103668  34.8629875  57.9368134
  81.1323166  33.7521057  57.8248520  17.4815235  69.7074356  49.9808846
  18.1575241  70.2753525  49.6111183  17.2577248  69.1071091  49.2697182
   3.7063501  20.5333824   6.5333838   4.4632683  20.7517815   7.0770836
   3.2273393  19.8787403   7.0415392  47.4972992  63.8606567  62.1745872
  48.2411575  63.8390579  61.5725555  47.2491035  62.9424171  62.2816734
  76.8633499  14.8454437  22.3583317  75.9933014  15.2373381  22.4336491
  77.2418518  15.2507029  21.5781193  47.1031914  25.9564228  74.9235229
  47.1770363  26.7394218  75.4691315  48.0041275  25.7547798  74.6707687
  77.0965195  27.7324677  75.0627899  76.7166214  27.5020409  74.2149582
  76.6835632  28.5650425  75.2919540  73.3554993  38.8845749  84.0051193
  72.4891205  38.4799194  83.9618149  73.1987457  39.8079071  83.8073349
  46.0088844   3.1588633  20.6886292  45.2346764   2.8176663  20.2409477
  46.6878891   2.5042322  20.5254059  49.9660301  28.9396667   1.6171631
  49.7840271  29.8450680   1.8688647  49.1372871  28.6186905   1.2616507
  78.0474777  10.1277580  86.1302795  77.6591721  10.1909142  87.0028915
  78.6220779  10.8907747  86.0680161  79.7687683  16.4763699  15.9435987
  79.1619644  16.0416584  15.3443918  80.2782669  17.0630493  15.3846264
  53.0525398  57.3879814  55.2086639  52.7171898  57.7926292  56.0086861
  53.6470413  58.0417099  54.8406448  39.1888466  36.9189377  39.2687340
  39.7565651  36.6788559  38.5364189  38.4551620  36.3066368  39.2137527
  86.6981277  47.5230103   1.9359345  86.1895828  47.7302780   1.1519371
  87.2293320  48.3041763   2.0903127  79.6247177  63.6471176   7.6495085
  78.7910156  64.0033493   7.9565544  79.6962280  63.9508743   6.7446051
  80.7990036  13.2164869  50.1813545  80.8742447  13.5437737  49.2849960
  80.0680008  12.5993042  50.1504097  49.5721092  61.8018303   7.6755619
  48.9207268  62.4927444   7.7962861  50.3781281  62.1659584   8.0415878
  21.6364498  22.3178139  25.2431698  22.1047401  22.5963917  26.0301456
  20.7529831  22.6694298  25.3530922  25.6111565  12.8603735  56.6881332
  26.4985523  12.7292423  57.0221481  25.0514011  12.7904749  57.4614487
  72.7560120  10.5879927  48.5727196  72.2130203  10.1938047  49.2553673
  73.1961060   9.8457947  48.1583633   9.1446342  19.2339230  43.2682190
   8.5543261  18.6166096  42.8361397   9.6280355  19.6447525  42.5514374
   9.2932520  12.6991158  54.5222168   8.9479456  12.5125618  55.3952522
  10.1953630  12.3801346  54.5482597  85.8572540  30.0710220  83.0620499
  85.1769180  30.3276348  82.4395370  85.4961853  30.2987156  83.9187927
  12.6253939  14.9150543  80.7011795  11.7048721  15.0874567  80.5033188
  12.9992809  14.6261864  79.8687134  15.5971031  22.9749870  81.7926407
  15.9113655  22.9313793  82.6957321  15.8079119  22.1171436  81.4239960
   1.0308111  61.4357681  29.9632816   1.1325581  60.7306252  30.6025410
   1.4363332  61.0961647  29.1655006  16.2228603  28.9030304  72.8933334
  16.4867153  29.6696606  72.3845215  15.5654001  29.2357540  73.5042953
  80.7872314  62.0512543  52.4939880  81.1830978  61.1996040  52.6789589
  80.4489822  61.9695587  51.6022797   3.0155013  14.2040186  83.3759308
   2.5643375  13.5940084  83.9595108   3.8065987  14.4523106  83.8542023
  56.9181900  60.4872742  11.5289536  56.6901665  60.8471794  10.6718044
  57.8726959  60.4172554  11.5130978  12.8287516  68.9429855  41.9561806
  12.7939396  68.6461029  42.8655090  12.2177277  69.6789474  41.9209480
  11.1363020   9.7515602  38.5964546  10.4272470   9.2733555  38.1665802
  10.9539270  10.6718874  38.4067955  84.7403564   2.0168197  88.2098083
  84.5535660   2.9288399  88.4324341  85.4374847   2.0678461  87.5558701
  80.5448685  56.3196678  86.2887497  80.4644623  56.2398911  85.3382721
  81.4835281  56.2378578  86.4574203  45.7167244  58.6744080  32.7149925
  45.4138870  58.2378883  31.9187679  45.9806900  59.5472641  32.4239960
  46.5254402  24.0110836   1.2431819  47.0519638  23.3194542   0.8423618
  46.7555199  23.9795628   2.1717842  78.5913544  19.9691887  38.8909454
  77.8178558  20.3883781  38.5138321  78.8148193  20.5137024  39.6457977
  39.9286613  22.3029175  87.8248749  40.2890854  23.0222054  87.3062668
  38.9964142  22.2948742  87.6078949  84.3033371  15.5481768  22.9087791
  84.7137375  15.4493971  23.7678738  83.7994690  16.3592548  22.9758778
  36.2836418  59.8907738  46.9936333  35.9285011  60.5600319  47.5786133
  36.1793633  60.2595558  46.1165047  61.5710220  33.4508972  73.9354858
  61.8797531  34.2029305  74.4408264  62.1469650  32.7329674  74.1983566
  48.8401108  48.6812286  17.8077221  49.3047714  49.1169739  18.5221786
  48.0399818  48.3455963  18.2119160  29.0995846  38.4766312  18.1403103
  28.8833160  38.1803551  19.0244370  28.3677692  39.0410690  17.8911362
  32.7918892  55.2792854   4.7758837  32.9973946  54.8490334   5.6058731
  31.8385849  55.3654404   4.7803607  56.0742760  42.6038399  74.9986496
  55.6137733  43.4373322  74.9014053  56.1114845  42.4596596  75.9441986
  22.1571903  15.1654129  17.4722481  22.2592392  14.7020340  16.6409245
  21.2417355  15.0248985  17.7139740  74.7143326  10.8000154  29.3851452
  74.2796783  10.7178993  28.5362854  75.2117767   9.9876385  29.4790993
  46.5502243  43.5339699  77.1947098  46.4537964  42.5842705  77.1239548
  46.8165092  43.6807098  78.1023407  40.5221672  32.1018181  18.9301434
  40.3400497  32.5894966  18.1268787  40.0096474  32.5493011  19.6034298
  56.2966919  38.9957886  10.1664324  55.7081490  38.6376152  10.8309336
  55.9047737  38.7341309   9.3332663  28.2434711  30.0794411  52.0586929
  27.6868038  29.3080769  52.1652260  28.8209038  30.0653610  52.8219757
  53.4501076  68.4254150  41.8051491  53.8120880  69.2921982  41.9892311
  54.2174530  67.8664856  41.6826401  46.4561653  11.9029989  38.9452057
  46.1583824  12.7964058  38.7737885  46.3197937  11.7812061  39.8847809
  27.2190456   3.5872436  59.5205231  26.4412880   3.0295010  59.5047531
  27.5215893   3.5507503  60.4279175  27.3671837  23.3242149  81.1962051
  26.7682323  22.5828819  81.2851639  26.9363499  24.0379868  81.6664658
  42.0756836  34.5744781  74.6783829  42.7343025  35.2092247  74.3963394
  42.0495911  33.9272346  73.9736710  47.4875336  28.5434570  28.1535950
  48.3382607  28.9664593  28.2700634  47.6716881  27.6079216  28.2378082
  47.3621750   9.2218990  79.9434357  47.7018318  10.0891199  79.7225494
  46.4865417   9.2021351  79.5572891   8.0747509  48.2722130  44.0174942
   7.2639613  48.1795349  43.5172310   8.4766932  47.4040947  43.9851646
  55.0948181   6.9141135  61.4853897  55.6759911   7.5339952  61.0446892
  54.3579826   6.8073936  60.8837967   1.9789524  56.8460007  82.8119812
   2.3633268  55.9720306  82.7437057   1.2515101  56.8369904  82.1899033
  57.5522346  66.8744965  10.4942284  56.9476242  66.7046738   9.7718439
  58.0242043  66.0498886  10.6104279  75.9453659  61.9801483  54.9014511
  76.8869553  61.8310547  54.8153267  75.8661957  62.5980110  55.6282310
  31.6714287  30.6069183  80.4032364  31.2542114  29.9254532  80.9302750
  32.3365059  30.9823971  80.9802322  49.3105927   0.8013239  77.0968399
  49.6111488   1.2380402  77.8938141  48.9271126   1.5022572  76.5697021
  71.2276459   5.9812932  70.4574890  71.8153763   5.2633719  70.2221222
  71.4147568   6.6647730  69.8140030  39.3441277  17.4603977  10.4151115
  39.1646576  17.7971115   9.5372486  38.4899902  17.1789665  10.7429457
  50.0973778  14.0416155  46.8122368  50.9822159  14.1732283  46.4716949
  49.8697166  14.8784485  47.2173462   3.2006602  23.3283691  73.1659622
   3.4077294  22.5825348  72.6028595   2.2681239  23.4872284  73.0197678
  50.2569962  68.6381226  65.4688339  49.4834518  69.0593109  65.0940475
  49.9601479  68.3006058  66.3139343   3.2606318   1.0399308  22.7358952
   3.8482533   0.3207804  22.9677486   3.8325088   1.6993384  22.3429966
   9.0254192  10.5155210   9.7557096   8.5894346  11.3308744  10.0033979
   9.5457878  10.2793217  10.5236015  53.3386040   6.5138850  33.8840103
  52.3955345   6.5096135  34.0478210  53.6391716   7.3514352  34.2367134
  62.4406929  55.4776077  87.9045410  62.3315544  55.8621826  88.7742691
  61.6721344  55.7705956  87.4149475  28.2056599  62.0481949  18.5866623
  27.7189617  61.2650337  18.3297310  27.9268532  62.7187691  17.9630985
  66.1880875  51.7864723  52.8596306  66.7751923  52.5130157  52.6506424
  66.1383667  51.7860680  53.8155403  71.7537231  42.1402092  46.5784264
  71.6290588  42.9804649  46.1372261  70.9679794  41.6377335  46.3631248
  53.8521385  71.0282211  13.1999664  53.6123543  70.6739502  12.3436794
  53.6719856  71.9657288  13.1302729  72.7310104  22.7513084  75.9858017
  71.9901428  23.3048725  75.7390060  73.1274185  23.2005138  76.7323303
  23.2748356  18.9412212   5.0951114  22.5176544  18.8353024   4.5191860
  23.0111046  19.6213913   5.7148261  68.6397476  54.3144417  58.5756264
  68.4373932  53.9725189  59.4464760  69.1016998  53.5989113  58.1387672
  63.6129646  48.3060684  63.3885765  64.2045670  47.6880760  63.8179016
  63.5437088  49.0372162  64.0024643  41.8486671   3.7739615  62.6963272
  42.6339149   4.2558355  62.4366913  41.6846123   3.1736596  61.9690361
   8.2697659  49.1563911  84.1948166   7.7810287  48.4850845  83.7186737
   9.0943947  48.7309151  84.4297409  48.9075546   1.6236550  27.1303120
  48.4381294   2.2205660  27.7130375  49.7413826   1.4637794  27.5723572
  83.7695389  30.7289715  62.1940498  84.4943085  30.1056786  62.2434616
  83.7009430  30.9432812  61.2636757  29.0748692  66.7899704  55.3513794
  29.8521996  66.2324600  55.3856010  28.3738995  66.2060547  55.0616951
   1.2320663  24.3754807  84.0219116   2.0235269  24.8425159  83.7541428
   0.5181741  24.9825554  83.8268509  78.7138596  51.7447281  45.5853386
  78.5864639  51.4664803  46.4922981  77.8445129  52.0209084  45.2951736
  81.0439148  43.3012123   2.1107049  81.8313370  42.7839546   2.2799103
  80.4109421  42.9930077   2.7592328  21.7582321  16.5113811  77.8051605
  22.2719040  16.5515900  78.6118546  22.3733463  16.1914482  77.1452332
  55.6732597   0.3624440  55.3464317  55.4102325   0.2303783  56.2572594
  54.8489227   0.4737085  54.8728065   8.3184109  55.3362694  18.4387169
   8.7096949  56.1674957  18.7074013   8.8003006  55.0886917  17.6495914
  44.6305122   9.2481775  84.7040405  44.2447968   8.4482651  85.0612488
  45.5715790   9.0738983  84.6881256  11.1083717  57.3344994  32.7034035
  10.5356464  57.8515930  32.1369820  10.6996040  57.3848724  33.5674629
  76.2420502  49.3405571  32.0476303  76.5252838  48.8176575  32.7976875
  77.0139999  49.3881416  31.4836521  82.7239075  22.5385628  20.2087669
  83.3043289  22.8281059  19.5048447  81.8458557  22.5882740  19.8309040
   5.0307283  48.6638908  55.3810463   5.8916669  48.5983238  54.9678650
   5.0330224  47.9786949  56.0494270  17.7645321  65.9296799  62.4972420
  17.6718540  65.4842682  63.3394089  17.9350395  65.2257233  61.8714600
  13.3279762  53.2129211  50.1628342  13.3561049  52.8837090  49.2644691
  12.4076004  53.1407204  50.4156723  85.5417023  20.8951435  55.0667152
  84.8789291  20.7161121  55.7337341  86.3756332  20.8106174  55.5289345
   3.4336615  28.2849197  14.7527485   3.9680212  28.3309517  15.5455742
   3.8878024  27.6541119  14.1941166  23.3027134  49.1527977  37.3833199
  23.8514137  49.1696053  38.1674614  23.8642044  48.7754593  36.7061348
  61.2883224  52.0751152  71.4714813  62.2137794  52.0737610  71.7159271
  61.2133751  52.7735367  70.8212280  33.6664848   9.3356209  62.1509361
  34.0705223   8.5346603  62.4847755  34.1773109   9.5547295  61.3716545
  58.9755478  26.6661816  70.5287628  59.0149612  26.7542305  69.5764389
  58.1704903  27.1199722  70.7781372  72.2761612  65.7359238  29.7179565
  73.0452805  65.4358063  30.2023296  71.9691620  64.9589691  29.2507153
  82.0385742  57.0008736   0.8624514  82.8521652  57.3011055   0.4572845
  81.8852463  56.1368332   0.4801489  30.0021076   2.0996654  74.9259186
  30.3709126   2.9752111  75.0426865  30.7524643   1.5527610  74.6933441
  32.0169716   1.5742055  23.2544823  31.6852055   2.4541049  23.0757694
  31.9304085   1.4735484  24.2024307  41.3317833  12.8082695  54.8301926
  41.5987320  13.4804468  55.4572067  41.3361359  13.2550926  53.9836922
  18.1253815  14.4921293  66.8337784  17.2793350  14.8674564  66.5897141
  18.0322418  14.2744503  67.7612305   3.3595536  62.1007309   5.8618054
   2.4890175  62.3271713   6.1891036   3.4399443  62.5850410   5.0400929
  70.2947922  43.8431702  40.8375168  70.1450729  44.7824402  40.7298813
  71.2473831  43.7544250  40.8679848  16.6623383  47.9502220  81.3925323
  16.4978619  48.0937271  80.4605560  15.9472942  47.3810310  81.6770782
  53.9870110   9.3728523  31.3153076  54.8983498   9.4409990  31.5999966
  53.5637360  10.1506310  31.6788044  11.3793058  19.4870472   5.3913589
  11.4522324  18.5333405   5.3545322  10.6429033  19.6483498   5.9812102
  52.5578346  14.9282904  66.4961319  53.2513618  14.2973099  66.6887894
  52.0335083  14.9596539  67.2963409   5.1398563   5.0532179  31.8308582
   4.8725896   4.9270406  30.9204292   4.6795139   4.3663082  32.3130112
  53.4870110  44.5481377  71.2913055  53.5933914  43.6832619  70.8951874
  52.8190079  44.9762840  70.7558670  10.9370117  57.5836182  84.2062912
  10.1218014  57.5837059  83.7046280  10.8509045  56.8402138  84.8030930
  28.2396755   6.5204668   6.5753207  27.9906807   7.4018650   6.2971649
  27.4494057   5.9961734   6.4456191  37.9882545   9.9504595  15.2139339
  38.5616684   9.4169388  14.6636753  37.1195068   9.5655031  15.0985193
   9.0317450  30.0533142  34.7320480   9.1638384  30.9093952  34.3247261
   8.0814848  29.9697762  34.8111572  80.4809418  48.4201660  69.5774841
  79.8077393  48.8836555  69.0792770  80.0798492  48.2614517  70.4319839
  50.9688377   4.9750242  50.3043365  51.8665771   4.7158446  50.5119896
  50.8892441   5.8630152  50.6527176  54.2307930  60.6592369  64.4234238
  54.8785286  61.2204971  63.9972115  54.1338730  59.9131927  63.8316040
   6.5372915  39.8367348  44.1358147   6.9406810  39.5574760  43.3139153
   5.9583101  40.5568466  43.8859177  82.3675613   9.9486446  89.5073624
  82.5142899   9.1303244  89.0329590  82.2335815  10.6025257  88.8212662
  64.8358231   6.1016188  51.9709053  64.2341309   6.5616846  52.5561676
  65.0629349   6.7492080  51.3036118  86.0056229   6.7699852  39.6857567
  86.0391159   7.6263037  40.1121712  85.1119537   6.4620733  39.8366432
  29.1519299  15.4642773  10.3429928  29.0365791  15.2843246  11.2760220
  28.3854713  15.0701742   9.9265099  23.5947971  62.2746506  55.6444550
  24.4558392  61.9437447  55.9000664  23.3251743  61.7077293  54.9218636
  10.2338619  48.9974251   1.4391308  11.0447817  49.4196358   1.7226429
  10.0169287  49.4267731   0.6115839  86.4830704  33.6966324  77.2050018
  85.8530960  34.1588249  76.6520615  87.2316055  33.5341225  76.6309738
  38.8214989  17.2435112  19.4175129  39.7211418  17.2512074  19.7443390
  38.4966164  18.1273079  19.5895195  65.6610565  34.8884392  46.5472336
  65.5939255  35.5037651  47.2773705  64.7549286  34.6517143  46.3494263
  82.7905197  55.5363846  69.4097366  83.2568283  54.7408714  69.6665421
  82.0347900  55.5708961  69.9961777  16.3036423  48.3811684  29.1041183
  16.3641376  48.6421280  28.1851673  16.0776234  49.1875343  29.5677090
  13.8605509  58.9063034  75.9385834  13.8240271  58.7247009  76.8776932
  13.0188093  58.5987625  75.6022491  18.8734818  35.2483749  20.4607925
  19.1257477  35.5530891  19.5891590  19.3285542  35.8382874  21.0617466
  10.8986816  24.6009388  53.1998024  10.8795910  25.5484104  53.0650253
  10.0947952  24.2841778  52.7879028  75.4772415   5.0274534  40.9292984
  74.7391357   4.6086144  41.3720322  76.0697479   4.3062754  40.7170181
  24.0035114  11.5911627   2.9472332  23.2537823  11.9534435   3.4193468
  24.5903072  12.3368406   2.8212719   4.1049991  64.3933105   7.9547610
   4.1633468  64.9912796   7.2096043   3.7806230  63.5744629   7.5799246
  26.8294334   7.4761600  49.2784386  25.8973370   7.6939387  49.2774200
  27.2718048   8.3173265  49.3923531  56.8148422  21.0012703  84.5025864
  56.6169930  20.1886368  84.9681168  56.7146759  21.6863918  85.1635056
  38.8559875  51.8470230  20.1010914  38.7003098  52.7897758  20.0443726
  38.2485809  51.5441475  20.7760410  43.4982529  15.5599270  53.5975304
  42.9687004  14.9695225  53.0615921  42.9381256  16.3233604  53.7377396
  41.2557411  18.0871449  20.3607826  41.8703232  18.0009441  19.6320210
  41.8120651  18.2091351  21.1301041   4.8634458  26.6501007  68.2133942
   5.2307172  25.7764015  68.0792542   5.5793462  27.1540222  68.6004105
  43.7555542  24.7523232  21.8834953  43.0819092  25.3793983  22.1465759
  43.6859436  24.0436001  22.5231018   3.3170424  20.4099903  79.8022919
   2.6226790  20.5943623  80.4348221   3.9464893  21.1208401  79.9236221
  25.7084846  68.2976227  77.5100479  25.6376457  67.3699570  77.7350845
  26.5551720  68.5665665  77.8664474  57.2817497  18.3306465  14.6194563
  57.5845261  17.7433529  15.3120193  56.4923630  18.7365360  14.9777260
  69.0403900  37.9790840  85.7109070  68.6895370  37.2949181  86.2810364
  69.0103149  38.7736664  86.2437973   8.2060184  68.0293427  20.4983120
   7.6408949  67.8185349  21.2415657   8.0701256  68.9654846  20.3520489
  58.0663795  68.4619522  83.6766434  57.2991714  68.0460587  84.0699081
  57.9164581  68.3978806  82.7334290  13.2328091  68.5810165  83.4133835
  13.6778164  69.4190903  83.5391998  12.8957949  68.6207809  82.5183563
  75.2907867  42.4486923  36.6295891  75.9709320  42.0883636  37.1986237
  74.7057266  42.9187927  37.2236748  22.4418011  52.3112144  59.1959381
  22.3883247  52.6933289  60.0719261  22.9956055  52.9172020  58.7036896
  86.0811310  65.3215866  61.4377060  86.0771027  66.2564621  61.2322159
  85.5724487  65.2517319  62.2455368  71.1447372  33.7806473  65.5266190
  70.5193481  33.3204994  66.0864258  70.8247452  34.6824074  65.5008316
  74.5173416  62.1416969   3.2407544  74.6581573  61.5622253   2.4920115
  73.8005066  61.7345810   3.7272112  29.5607109  59.3783340  56.2645988
  30.2853127  59.9407272  55.9909286  29.9840965  58.6291695  56.6837997
  13.6247253  16.3791142   7.9262805  13.7570734  16.7808342   8.7849646
  12.9100533  15.7566795   8.0606365  10.7278585  17.6986980  26.5743351
  10.2046719  17.8239346  25.7826138  10.4663162  18.4170380  27.1503696
  14.1078777   5.5411735  45.6621742  14.9870119   5.2343383  45.8840027
  14.1351767   6.4840770  45.8247185  67.3987503  34.8029060  35.2309418
  67.3415375  35.4035606  34.4878540  66.4880524  34.6274109  35.4677238
  85.5306396  45.7743759   3.8203726  86.1400833  46.2533836   3.2588015
  84.8678360  45.4343567   3.2192836  70.1190414   3.6496170  35.1660423
  70.5770950   4.4408808  34.8826447  69.2934952   3.9684324  35.5308304
  16.0912151  33.0997658  86.6103363  16.7504349  32.7858849  85.9913483
  16.1258698  32.4748116  87.3345337  49.4507828  15.0025196  65.9421616
  50.0640488  14.2681475  65.9132996  48.6771278  14.6869879  65.4751205
  72.9092407   0.1018783  11.6910267  72.1961212   0.4979939  12.1918049
  73.7058105   0.4413078  12.0990677   9.6495180  23.6521835  17.2291927
  10.5097342  24.0073051  17.0052547   9.0280619  24.2852020  16.8695946
   2.7147067  24.0014248  23.9860802   3.6243453  24.1724396  23.7420635
   2.3129869  23.6585388  23.1877804  53.5267410  11.1553402  35.2372971
  54.3676796  11.4515934  35.5855598  53.0002136  10.9637403  36.0133743
  70.5341034  40.0119476   5.4187036  70.9221115  39.1499023   5.5688968
  69.5899353  39.8549309   5.4302087   8.9086618   4.4827170  13.1743908
   9.3298206   3.7575703  13.6359301   8.8652105   4.1935306  12.2629547
  71.1934204  23.1807213  56.1391029  71.9170761  22.5646591  56.0249863
  70.6032791  22.7456608  56.7544746  62.1534462  69.5741119  51.5753288
  61.2217064  69.5842667  51.3562622  62.3459854  68.6549072  51.7603264
  38.3712273  21.7332439  16.8579693  38.9588051  21.0113201  16.6347828
  38.8315735  22.2125072  17.5468941  37.2073975   8.2227449  73.6012497
  38.0122719   7.8380384  73.9482574  36.7998276   7.5152993  73.1016159
  51.9355927  21.9949188  20.2310295  51.9657059  21.1664371  20.7095070
  51.0452728  22.3185387  20.3682632   7.0735083  65.6901169  32.2020416
   7.8067040  65.9841614  32.7425919   6.6527090  66.4983826  31.9090061
  69.6565094  42.0788879  16.6388054  69.9139099  42.0164452  17.5586300
  70.1475906  42.8287811  16.3030472   3.6070640  44.7980843  17.7434769
   2.8105950  44.4639091  17.3309288   3.4084213  44.8016243  18.6798306
  32.0124168  15.5087833  62.5857544  32.4746666  16.2126274  62.1306038
  31.0960331  15.7853222  62.5864220  16.3854027  54.5313034   0.3048386
  15.8300047  54.7931862   1.0391294  16.4549637  53.5799675   0.3845227
  15.2772923  71.0808029  88.5630112  14.8439970  71.8875809  88.8415680
  15.2488976  70.5149994  89.3345642  59.1235847  59.1031837  28.2849636
  58.5197411  59.8431168  28.3490391  59.9222755  59.4078407  28.7156715
  49.4255753  68.6332855  80.3094940  49.3615761  69.4840698  79.8755569
  48.8554230  68.0597458  79.7974243  69.5592499  47.1689835  10.9563894
  69.9636154  47.2600899  10.0935926  70.2589188  47.3850784  11.5728359
   7.5671391  65.3423080  17.1126995   7.7342973  64.4959488  17.5273838
   8.1903648  65.9392014  17.5268707  17.8257427   3.1285236  11.2135029
  18.6825314   3.2654395  10.8092737  18.0026340   3.1244550  12.1542082
  74.8654327  18.2218494  33.1260338  75.3273010  18.8074303  32.5260277
  73.9405212  18.4375191  33.0066452  33.4514580  69.5210114  38.2641411
  33.0660210  69.3492126  37.4049797  33.9031448  70.3585968  38.1608696
  43.7664986  57.6071472  30.7382641  44.5859108  57.1208382  30.6471691
  43.0869370  56.9330406  30.7409286  68.3914108  49.9714050  70.5604095
  68.8118057  49.7276077  69.7357483  68.3014755  49.1459427  71.0366058
  45.8214684   5.5885043  50.3760185  46.2308998   5.2916965  49.5633087
  46.1423340   6.4826760  50.4932060  77.6595993  29.3656731  72.4444733
  76.9908905  28.7278881  72.1948776  78.3572693  28.8403225  72.8362503
  64.5160141  43.9188881  85.1806107  64.6622391  44.7671204  85.5993576
  63.6245308  43.6779518  85.4324799  78.5587463  57.4513779   7.2452083
  78.8453369  57.2885437   8.1438637  78.8301163  56.6708565   6.7621202
   8.4598475  66.4090500  89.0024033   8.3766050  66.9426041  88.2120667
   8.7610216  67.0210724  89.6739349   3.2914333  55.5719948  43.7373314
   3.1124172  54.6814575  44.0392036   2.5395374  56.0824547  44.0378571
  69.5414734  59.2404671  50.1053848  69.7281952  59.9934616  50.6660728
  68.6553574  59.3983002  49.7796288  48.8823624  67.7248917  67.7239304
  48.0903206  67.6955719  68.2606201  49.2542801  66.8459854  67.7976074
  61.4476013  36.5213890  36.1988754  61.4618492  36.0225449  37.0156860
  60.5982132  36.3165932  35.8079414  10.3911343  47.9397011  85.9958115
   9.7669401  47.2382011  85.8100357   9.9380894  48.5036201  86.6226883
  73.9190063  44.0678482  12.5427771  73.6421814  44.8175812  12.0159941
  74.6533585  44.3972549  13.0608997   2.0990767   4.6892605  20.9815350
   2.4546270   4.9998708  21.8142052   1.1513965   4.6765676  21.1155987
  44.4484062  30.1628761  86.9116898  45.2898750  29.8257790  87.2191391
  43.9439430  30.3129368  87.7112045  42.4667168  11.3070660  14.4043512
  41.9036903  10.5451393  14.2675915  43.2752304  11.0941629  13.9382963
  11.8651590  52.9434547  65.8027649  12.6395769  53.4784584  65.9767685
  11.1267490  53.5267601  65.9780884  82.2742996  19.1575508  54.4599495
  82.5200577  19.8385258  55.0861320  83.0242691  18.5629196  54.4461479
  72.5964355  20.4754543  26.4403973  73.0844193  19.7511005  26.8320827
  73.1670074  21.2360382  26.5507927   4.8551168  26.2969818  37.6202660
   5.6496744  26.2618408  38.1528778   4.2926159  25.6131458  37.9838486
  82.0190811  39.6060638  29.6423607  81.8220520  38.6712646  29.5826931
  82.9471970  39.6409111  29.8739376  76.2183456  15.7576447  29.0012627
  76.5040970  15.1343050  29.6691151  75.3976364  15.3936234  28.6693745
  22.9662476  68.0896683  86.8560257  22.6742020  68.9859161  86.6896744
  22.4880924  67.5596924  86.2182693  18.0765057  12.7464104  68.9830246
  17.6017399  12.1995916  68.3570709  18.9691563  12.4009781  68.9739990
  78.2271500  13.8829126   3.0233483  77.8338165  13.7866230   3.8906729
  78.6788177  13.0527191   2.8716819  28.9486427  63.6257935  86.5767212
  29.6305103  63.3047523  87.1668243  28.4467335  62.8448677  86.3433151
  21.8077679  22.9459629  75.1851730  22.1992149  22.9807587  76.0579834
  22.3981113  23.4630413  74.6371231  59.4669533   9.6796188  10.6157780
  58.6646080  10.1706066  10.4385567  60.0605011   9.9266567   9.9066210
  11.3121767  34.9217033  36.8636322  11.0798521  35.8055534  37.1483612
  11.1039963  34.9085388  35.9294395  59.3418083   7.4743490  45.6819763
  59.0304451   7.4391484  44.7775154  60.2108917   7.0743294  45.6518364
  81.8303146  48.4644966  40.5893021  82.5655365  48.9436684  40.2070999
  81.1280289  49.1120567  40.6500587  61.8507233  48.1763649   7.3133745
  61.4891624  48.4516869   8.1558151  61.8573723  47.2201653   7.3565903
  45.3516655  64.6105194   9.9674740  45.4672470  63.7545815  10.3800726
  45.2856064  64.4185333   9.0320549  21.4866657  40.8131447   9.2546701
  21.5147400  41.7641144   9.3600292  20.7080593  40.5412216   9.7405319
  65.4449081  23.3133564  68.7482758  65.4110718  23.6979294  69.6241684
  64.5314178  23.1231861  68.5347443  36.8887863  68.3009186  82.4006195
  36.4523697  68.6237640  83.1889954  37.4772186  69.0111847  82.1446915
  34.9593124  49.2731094  23.4538841  35.0599327  50.1379890  23.8514862
  34.6682701  48.7115898  24.1723690  20.2414589  55.7879791  36.3563843
  19.7725468  55.6543884  37.1800995  20.5719204  56.6846275  36.4115982
  37.9262848  13.7988281  77.2093658  38.7300758  14.2432489  76.9398346
  37.9652405  12.9478140  76.7729187  69.6934433  70.2314682   8.4125776
  69.2960968  70.2317810   7.5417471  70.1728973  69.4041824   8.4567823
  27.0748444  53.8051872   1.7675989  26.4246311  54.4295197   2.0895679
  26.5590782  53.0612297   1.4565625  40.3682823  55.6642151  52.6615143
  41.1814575  55.5151711  53.1439743  39.6838264  55.3142662  53.2318497
  73.7420425  36.7231483  40.5972519  73.7937088  36.1734848  39.8153114
  74.2430573  36.2461662  41.2588463  84.5642471  37.6479378  36.2685890
  83.6960983  38.0472641  36.2130890  84.5880661  37.0246849  35.5424881
   3.3186533  66.8017349  43.9666214   2.4658363  66.9264526  43.5502319
   3.1401870  66.8736725  44.9042816  68.7570801  60.0055389  80.0890503
  69.2519989  60.7251015  80.4808578  69.3328476  59.2454376  80.1725769
  22.9303875  26.3060074  19.9603291  23.5665894  26.2347946  20.6719532
  23.1504421  27.1289501  19.5237827  32.4016647   6.0163479   5.5297694
  32.4484062   6.4594121   6.3769655  31.5709991   5.5413065   5.5534244
  51.9736671  12.4291630  87.0687103  52.8863487  12.1427784  87.0336761
  52.0183983  13.3819952  86.9890747  55.8819542  57.2172203  31.8681374
  55.6502533  57.4696350  32.7619133  55.6082840  57.9605637  31.3307552
  49.2484207  66.6769714  59.0085182  48.6905632  65.9485931  59.2814598
  49.8730087  66.2847214  58.3983803  29.5238819  68.9533005  16.4659348
  29.9025288  69.4260864  15.7247658  29.3728142  69.6276550  17.1282463
  42.3209381  65.2204437  20.3543148  41.6995087  64.6082077  20.7482967
  43.0718994  64.6778488  20.1137257  34.6396637  40.9255753  80.0715179
  34.8581581  40.0145454  79.8752518  35.3439064  41.4330368  79.6680832
  52.9858017  61.9417839  87.0180206  52.4178925  62.7085304  87.0942535
  52.5162544  61.2488327  87.4823303  73.1206665  70.5995407   3.6671333
  72.2663498  70.9825058   3.4678516  73.0880508  70.4167786   4.6061578
  39.2508545  47.1753082  21.7182674  38.3071594  47.3349876  21.7050495
  39.3322983  46.2330933  21.8660011  67.4565048  45.8649750  54.4268379
  67.4535980  45.1308174  53.8126411  67.6038666  45.4611626  55.2820892
  45.0432243  66.9331665   6.0410872  44.3851662  67.4911652   6.4556150
  44.9054794  67.0574646   5.1020403  75.2947083  63.9956894  68.5890732
  75.0600586  63.1206665  68.8981094  74.8697968  64.0698395  67.7345657
  22.7177582  45.7765198  32.5479164  22.9099483  45.8910332  31.6172276
  22.5712891  46.6647263  32.8732910  64.7751465  55.8978844  36.6500816
  63.9702263  56.3249207  36.3568726  65.4735718  56.3574486  36.1839905
  18.2385387  22.1550026  32.4449577  17.2923355  22.0127678  32.4714317
  18.4670334  22.4130306  33.3379517  81.0010910  56.8219414  12.6741962
  80.5675583  57.6073112  12.3403158  81.8772659  56.8502808  12.2898245
  74.5739288  31.9877453  29.1534805  73.6928406  32.0830078  29.5152035
  74.8990326  31.1687069  29.5272655  67.1226578   8.7662420  64.9101715
  66.5966263   8.9745722  64.1380844  67.3378677   9.6179581  65.2902985
  17.0847015  26.3928337  64.5875702  17.7624454  26.6290512  65.2208939
  16.7270718  25.5679169  64.9159622  51.3576050  55.6833916  19.0406513
  50.4355850  55.4270859  19.0610466  51.5969276  55.6432686  18.1147213
  11.9491787  43.6987305  67.1174850  12.4013710  43.1347275  66.4900665
  12.4525833  43.6086998  67.9266281   4.3370562  49.7313576  72.9623108
   4.9945359  49.9328384  72.2964554   4.8112803  49.7875252  73.7918777
  35.5690460  45.5741463  18.2504673  35.0400429  44.7807922  18.3340015
  35.1755219  46.1905479  18.8680553  10.1213837  70.4567490  38.9099960
  10.3354435  71.1858521  39.4920731   9.5050602  69.9229431  39.4114227
  50.8764534  59.0338516  61.4180717  51.5951996  58.9546432  62.0452576
  51.2865791  58.8929634  60.5647392  62.4746475  32.2646523  17.2159119
  61.6698723  32.5026360  16.7555485  62.2166672  31.5463085  17.7935467
  21.1970768   7.9478493  62.5942726  21.3650360   7.0259614  62.7895775
  21.4839783   8.0567226  61.6875954  13.1898594   4.3446503   3.3821607
  13.0784855   4.7619605   4.2363739  12.7845917   4.9526978   2.7638824
  55.9937172   2.9731116   7.4213572  56.7227859   3.2257922   6.8549242
  55.4086990   2.4746952   6.8507738  75.6715698  17.1366310  37.0828743
  74.8588943  16.6629314  37.2600861  76.3170090  16.7294521  37.6606674
  40.9163361  25.5485897  12.2892580  40.4092369  26.1637478  11.7594843
  40.4661560  25.5321426  13.1338272  34.4766731  10.1699162  36.4938316
  34.0704422  10.2827177  35.6344833  35.0219574  10.9487104  36.6050758
  57.6859398  33.8644714  77.3044510  57.6496925  33.8412971  76.3482132
  58.5576210  34.2065773  77.5028687   4.1164269   9.4353228  86.6863480
   3.4602995   9.9479399  87.1585236   4.9537382   9.8168812  86.9500809
  45.1308365  51.8885117  24.1555710  45.3330727  52.0019684  23.2268829
  45.8704643  51.3897324  24.5025635  55.3324432  36.0483170   6.3350177
  55.9868431  36.0621796   7.0334430  54.6419754  35.4734116   6.6651187
  28.4507923  65.3994446  80.0737000  29.3342438  65.7464371  79.9498672
  28.5864410  64.5085907  80.3965149  84.3058701  31.0067253  20.5369415
  83.5511856  30.8393078  19.9724426  83.9247360  31.2395210  21.3835678
  15.2150679  16.3256874  25.1544418  15.7071924  17.1385117  25.2700443
  14.4464588  16.5815105  24.6445141  29.1664410   2.0313194  35.6827660
  28.4320431   1.6216164  36.1399727  29.9055729   1.9364007  36.2835236
  81.1023102  28.7669888  72.9698334  81.4647141  29.6503925  72.9027710
  81.8560028  28.2138824  73.1753845  31.6443119  21.2122002   9.6449919
  30.7035561  21.0876102   9.7702379  31.7799759  21.0841618   8.7061453
  35.7361717  68.4795456  43.4985542  35.8070030  67.9930115  44.3198357
  36.4811668  68.1798401  42.9776039  64.0587234   0.7351363  63.7372437
  64.9691086   0.7322589  63.4415512  63.9198761   1.6193701  64.0764847
   7.0133467  34.2698479   5.9174232   6.5337887  33.6157608   5.4090676
   6.8239541  34.0502396   6.8296371  83.1711502   6.9836602  34.9726295
  82.3439331   7.3710175  35.2587967  83.6650696   6.8490648  35.7814331
  60.8186684   2.5379174  14.3933105  60.8288269   3.4746823  14.1968412
  59.9128418   2.3553877  14.6430912  25.1358318  25.4049053   5.4329691
  25.6515255  25.7964764   6.1379261  24.7713337  26.1524811   4.9591517
   8.0566101  58.3377457  56.6310806   8.9140139  58.3050003  56.2067947
   7.4328427  58.3897133  55.9068947  73.5092545  54.2693863  69.1950989
  73.4080200  55.1701431  69.5027008  72.6270370  53.9006462  69.2392197
  62.8722191   8.0065174  31.8829937  62.1927452   7.4169674  31.5559196
  62.4579811   8.8694201  31.8891106   7.7317486  20.2607231  70.5725861
   7.0939207  20.6472702  71.1725769   8.4314651  20.9113598  70.5151443
  11.2680273  34.4433823   9.7550125  10.8061714  33.7595329  10.2400646
  12.1934490  34.2870483   9.9431238   0.3623825  21.4445095  24.3747501
   0.0737130  20.6025429  24.0226192   0.5314570  21.2715054  25.3008785
  71.5730743  57.6333504  23.5661392  71.1359177  57.7320213  22.7203293
  71.7970276  56.7038994  23.6130161  37.6568108  61.5485420  21.2656803
  38.2341042  60.8275452  21.0144253  37.9421349  61.7876701  22.1475182
  20.6799374  56.6692276  46.0376167  20.9192581  55.7491913  46.1493797
  20.8212852  57.0599365  46.8999367   6.7127271  68.8684845  25.1690044
   7.5864711  69.0890808  25.4917126   6.3118062  68.3727417  25.8829613
  61.4490623  13.7277927  14.9510002  62.3082314  13.4823465  14.6077566
  60.8434372  13.1058369  14.5477362  11.6584873   2.5323625  43.7738724
  10.7193584   2.3940063  43.8968620  11.9360495   3.0036640  44.5594063
  54.0373039  13.2983465  78.9928436  53.5773888  13.9454355  78.4580688
  54.1393242  13.7212181  79.8454895  35.4782562  10.5542088  87.5461960
  34.6226883  10.1573343  87.7096786  35.2770996  11.4046679  87.1557007
  54.2865372  19.6822624  76.2321472  54.6430740  18.9920368  76.7913437
  53.5102425  19.2897892  75.8326874  14.3030481  31.5511951  34.0603104
  15.0910082  31.7387486  34.5703812  14.6233702  31.0879364  33.2863503
  60.7133904  37.4692917  15.4700060  60.8703346  36.8696747  14.7405815
  61.4742165  37.3574219  16.0399723  38.0956764  57.5687599  25.5420933
  38.4039803  57.1228333  26.3309746  38.8875656  57.7149086  25.0246124
  72.1579208  40.3294678  55.2926979  72.1186905  39.3788261  55.1879616
  72.0688095  40.6722794  54.4034424  77.1071472  57.2858276  13.9979696
  77.8193436  57.6044960  13.4434757  77.3856964  57.4951553  14.8894987
  31.2608547  60.9850426  31.9992943  31.5806217  61.7333870  32.5032349
  31.1153927  61.3332253  31.1196117  41.4994736   1.6159717  76.0462570
  41.7312241   0.6986712  76.1914597  40.9765930   1.8549458  76.8115768
  45.2532196  66.3759232  49.2272987  45.8655281  65.8069153  48.7608795
  45.6404533  66.4834137  50.0960503  10.8337183  65.0742950  63.7935104
  11.5215025  64.4170303  63.6877098  10.7572393  65.1906357  64.7405319
   5.0394263  39.2910385   5.1979785   5.1426444  40.2319183   5.3405290
   4.0955100  39.1424026   5.2542057   3.6359997  54.6442032  82.2214127
   3.3669214  53.8269958  82.6409378   4.5895834  54.5822906  82.1659546
  48.4854736  70.0984344  57.0844879  48.5159798  70.2352600  56.1376076
  49.3843536  70.2485352  57.3772583  62.9796944  63.7784386  87.5874634
  62.2845001  63.6638031  86.9395447  62.5298347  63.7368774  88.4313431
  75.3170395  46.2253304  26.8932724  75.9948883  46.2324486  27.5690708
  75.5844193  45.5291862  26.2931690  86.3147736   1.2990134  82.7419434
  85.5997238   1.9325250  82.8018723  86.0682602   0.7276874  82.0145874
  80.8221741  55.9896393  71.2752380  80.0139160  55.8474503  70.7825623
  80.8275146  55.2938957  71.9326172  72.7131805  22.9416676  23.1009064
  73.5532074  22.9588909  23.5594864  72.4730911  23.8634109  23.0061493
  59.2187843  53.3066483  56.7293282  59.5034790  52.4020195  56.8590393
  58.4727516  53.4099998  57.3200798  79.5109634  57.3894539  50.5276985
  79.7079926  58.0635147  49.8772774  79.3671722  56.5950813  50.0133781
  38.9931221  69.4585342  43.9144135  38.9284935  70.2723923  43.4147224
  38.1408730  69.0382996  43.7990112  53.1970978  60.2946281   2.3094296
  52.3474426  60.3352890   1.8704948  53.7923203  59.9436569   1.6470414
  52.5640793  29.1908321  62.1967239  53.2358017  29.8376350  62.4127426
  51.9487381  29.2309189  62.9288330   5.8767056  51.1446190   4.0374517
   6.6849651  51.2313843   4.5428433   5.8296552  50.2139053   3.8188505
  57.7645302  49.6597862  40.8118858  58.3013039  50.2880363  40.3287621
  58.2705498  49.4700699  41.6019363  22.1217003  25.9444103  74.7266464
  22.8403397  25.3178387  74.6418152  21.8127270  26.0772629  73.8304749
  10.8051157   1.0499825  66.9349976  11.3414888   1.5946364  66.3589020
  10.4526548   1.6607747  67.5822525  15.4223585  31.7568913  79.9789658
  16.0725136  32.2586288  80.4706879  14.9841633  31.2203789  80.6395493
  52.6953430  64.1385269  63.4227104  51.9159355  64.6881561  63.5043411
  52.5496712  63.6336594  62.6226349   8.4786043  21.4847717  15.1707420
   8.6605759  21.7570477  14.2713070   9.0470877  22.0367527  15.7077465
  52.3368340  11.2135620  37.7722702  51.5638504  10.8341064  37.3542480
  52.5481415  10.6062107  38.4812889  78.3694382  27.6977024  55.9838524
  78.9613571  28.0561905  56.6451721  77.6578827  27.3030453  56.4879990
  71.3811722  32.7972755  33.0688171  70.5854950  32.8810005  32.5433540
  71.0743484  32.4847221  33.9199333  45.4604034  17.6607838   2.8582945
  44.9390373  18.0962162   2.1838989  45.0138245  17.8701191   3.6786470
  47.5347939  40.8413162  66.2255173  47.5413094  40.4747658  67.1097336
  47.0704536  41.6735840  66.3146744  25.2894230  67.9599075  80.9072800
  25.6634140  67.3189545  81.5118866  26.0295525  68.5124664  80.6560440
  10.7014217  50.6682510  36.7657738  10.8387718  50.7033234  35.8191299
  10.0212479  51.3205452  36.9334373  24.1222706  34.0771103  81.7474594
  23.9989414  34.6839180  82.4773941  23.2539749  33.9979820  81.3524475
  45.6112785  25.0910110  62.4941559  45.6904259  26.0436096  62.5443687
  46.4866371  24.7904873  62.2498894  67.5913239  53.1318588  80.9661102
  67.7455368  52.7660675  81.8371201  67.4414139  54.0644569  81.1211014
  61.4401283  43.0865593  13.1252632  61.2661095  42.5955048  12.3222580
  61.4252472  42.4260559  13.8179007  80.2302475  60.1596870  65.8312988
  81.1227722  60.4524918  66.0154495  80.1759338  60.1431999  64.8757858
  83.7324600  14.9238710  27.3731632  83.4871674  14.0487070  27.6734161
  83.0820923  15.5039549  27.7690830  83.6464920  53.6546783  34.5944901
  83.9935150  53.4824371  35.4697838  83.7072296  54.6048012  34.4954491
  39.5425072  57.3866882  16.8972149  40.0456123  57.0953407  17.6576309
  38.7320404  56.8789825  16.9374199  38.8608475  21.7303028   8.5027933
  39.7625771  21.4344292   8.3779888  38.8736000  22.1898880   9.3423471
  45.8054237  70.6216812  35.0233612  45.3067474  71.2756882  34.5336418
  45.4357529  69.7828674  34.7477341  21.4440079  67.6308746  76.7696075
  20.7573471  67.1955261  76.2644348  21.4777451  68.5184097  76.4127197
  33.2014084  52.5630836  67.2332535  33.2024155  52.3974915  68.1760254
  33.1718292  51.6921921  66.8371429  78.6691971  10.7590952  67.9240417
  78.7093430  11.4928951  67.3107300  79.2657166  11.0049963  68.6311035
  81.5935364  49.9499893  53.6215630  80.7968521  50.1460571  53.1285286
  82.1830750  49.5572968  52.9777718  66.9771729  21.0084171  81.5413666
  66.2865143  20.6517410  82.0999374  67.7349319  20.4485264  81.7103577
  39.5134354   2.0416961   6.0845351  39.6507416   2.9060884   6.4720984
  39.3125114   2.2202868   5.1658587  36.5632324   4.1616259  82.7615356
  35.7989693   3.7803502  83.1937027  36.5175896   5.0940661  82.9729691
   0.4842993  53.3989220  16.9829063  -0.1469319  52.8656693  17.4660416
   1.1933198  53.5548019  17.6067848  34.5763969  14.8675470  28.2959709
  34.0827789  15.5555468  27.8496208  35.4588470  15.2268820  28.3875847
  18.6847172  25.5109310  83.2426605  19.1284580  24.7409153  82.8871307
  19.3428116  25.9328709  83.7950287  48.9058456  36.6914978  61.4943352
  49.5020828  37.0434875  62.1552696  49.0365906  37.2531967  60.7303772
  19.7701950  23.2279110  82.3039703  20.4090919  22.5302277  82.1580963
  18.9213276  22.8086491  82.1629944   5.4967098  41.9357567  28.8465824
   5.0964770  41.7944145  27.9886379   6.0227933  41.1505051  28.9977512
  43.1115189  65.0048599  48.5499001  43.9221992  65.4976578  48.6771126
  43.1973457  64.6240616  47.6759148  65.3694611  63.1888618  83.1121521
  65.1634140  63.7900162  82.3963394  65.2480011  63.7105064  83.9054794
  76.1170578   0.4287716  69.3546448  76.5580750  -0.3157129  68.9454041
  75.9851913   1.0515485  68.6398087  70.0429077  11.4068680  41.1198769
  70.4712296  12.2096081  41.4171600  70.7261505  10.9319048  40.6467857
  16.1176453   7.8645101  48.8279572  15.3728085   8.3015881  49.2407722
  16.2636299   8.3535757  48.0181847  51.2469826  50.2844963   9.8609028
  50.3518333  50.2804375  10.1999121  51.2027779  49.7596703   9.0616331
   5.9549389  43.4614487  68.6112671   5.1223941  43.5275307  68.1435776
   5.9274879  42.6004944  69.0286865  78.3606720  46.9538002  45.5917320
  79.1113663  47.2235260  45.0626373  78.6781464  46.2022514  46.0923500
   3.4695039  64.4218445  84.1275482   4.3282843  64.0083160  84.0396500
   3.5544341  65.2522125  83.6590347  66.1234512  19.8534412  62.2042809
  65.7952042  20.6394081  61.7675438  65.3563919  19.4848671  62.6424522
  63.0840759  69.3727341  68.1741409  62.1355972  69.5006943  68.1584244
  63.3875504  69.7278900  67.3386765  64.1184235   6.8432474   6.5828629
  64.6617126   6.3887591   5.9390407  63.5895195   6.1517582   6.9807792
  44.6450081  71.4399872  64.2382965  44.6070328  70.6454468  63.7058487
  43.7292480  71.6484756  64.4230804  18.2765522  19.8310394  77.2619247
  17.7908039  19.9309196  78.0806503  17.6137123  19.5775833  76.6195602
  14.3178358  36.2597771  73.7559891  14.8158302  35.5100899  74.0818787
  13.4273615  35.9262962  73.6460953   4.6657023  55.0319633  59.8061981
   4.8665438  55.4035797  60.6651459   3.9409575  55.5644226  59.4783859
  29.0074139  68.9435806   0.5634443  28.4071884  69.6554642   0.3416756
  28.7046280  68.2026901   0.0384398  74.7605591  60.4770546  37.8749695
  73.9382706  60.0788193  37.5895042  74.5505066  60.8838997  38.7155571
  59.6977081   8.3823023  85.2008209  59.8531914   7.5425448  84.7685394
  60.5419769   8.8316679  85.1618881  40.7765274  62.8462296  28.6278439
  40.6353302  61.8995934  28.6147442  41.5481453  62.9809380  28.0776672
  71.3000412  45.1203842  34.2289009  70.5279541  44.7046356  33.8451576
  71.7474899  44.4126930  34.6927910  73.2701035  12.5204086  46.6672630
  72.5546570  13.0955658  46.9384766  73.3847733  11.9179039  47.4021568
  74.2513123  31.1818810  66.3422775  74.8791962  31.3546314  67.0438156
  74.5576553  30.3683262  65.9416351  73.1136017  68.4974442  68.1759872
  73.3397446  67.5769958  68.3096313  72.2370300  68.4754257  67.7921066
  15.8302794  26.2815762  19.9242477  15.7285700  27.1551876  19.5465050
  16.6180344  25.9310970  19.5085087  84.9107895  24.0358143  71.9381790
  84.0711365  23.9216061  71.4930115  85.5653763  23.9041920  71.2523041
  72.0512161  66.3748016  79.1333466  72.8427582  66.3221817  78.5976868
  71.4190369  65.8153534  78.6821213  55.6033669  66.8646851  41.5330200
  56.1868629  66.1065445  41.5645332  56.0302505  67.4704514  40.9271774
  82.8648605  70.7452698  78.5144348  83.1760330  70.2687988  77.7447739
  82.7876511  71.6525879  78.2194061   9.3879528  43.6662331  73.7316437
   9.1963930  42.7367935  73.8568573   9.5417643  44.0002594  74.6153870
  39.7617912   6.8760443  40.2896996  39.3063316   7.4360104  39.6610298
  40.1937447   7.4875507  40.8861122  22.1749687  39.9289818  15.7688961
  21.6929951  39.2440834  16.2324104  21.7133217  40.7379379  15.9895840
  58.5430031   5.0460992  30.7769299  58.3957024   4.1825519  31.1627007
  58.1329384   5.6556535  31.3905430   5.2892666  31.9614906  49.7993813
   5.5485659  32.5854454  49.1213875   5.1037850  31.1526833  49.3222466
  15.4643221  13.6850662  79.2302551  15.8493357  14.5613575  79.2407532
  15.1652479  13.5440865  80.1285400  49.5613556  69.8152008  11.4896727
  50.0436554  69.5775223  12.2815886  49.9420128  70.6507416  11.2191114
  83.3230286  33.4855843  65.2092056  83.1058426  34.2898254  65.6806488
  82.7503967  33.4954605  64.4422455  74.0024490   4.6409554  83.7357254
  74.6977768   4.7802696  84.3786392  73.1916199   4.7354016  84.2355881
  30.4116058  13.4038706  16.2026253  30.7179604  12.4993401  16.2674446
  31.0343800  13.9059267  16.7282906   2.7909527   4.3843994  53.8556290
   3.4411654   4.9981956  54.1972580   2.1566963   4.9369812  53.3988991
  47.2164688  55.5353508  36.6044846  47.6122856  54.6784210  36.7633286
  46.8339043  55.4640732  35.7299576  51.3496552  58.3962402  57.3057098
  52.0744057  58.6188011  57.8900337  50.6719322  59.0411224  57.5083237
  14.3176432   5.7849469   5.8474073  14.4805689   6.5135884   5.2484350
  13.5838680   6.0783653   6.3875108  29.6618118   7.9744372  84.8241119
  30.3980713   8.5671387  84.9753036  29.3537121   7.7466049  85.7012634
  15.6086168   3.7836432  64.3623734  16.2946053   4.4100256  64.1315079
  15.1703081   3.5920727  63.5332642   6.9339271  16.7771492  72.2155533
   7.2520008  17.4194508  72.8499908   7.4667573  15.9982386  72.3756256
  46.2692986  23.9696808  11.1727972  46.5433731  24.5129108  10.4338675
  45.3859406  24.2747917  11.3797197  24.9759636  21.8067989  81.7486496
  24.6695309  22.3379574  82.4836349  24.9940281  20.9128323  82.0903091
  57.2307053  15.0843859  76.1623459  57.9145050  15.7341366  76.3250504
  57.0028725  15.2022438  75.2401505  55.8069305  52.8579903  27.9136143
  55.8320427  53.6288300  27.3466873  55.1050301  53.0424614  28.5377407
  26.4592152  61.9618454  30.2976933  26.2482414  61.1725616  29.7989388
  25.6084023  62.3458900  30.5094967  37.6501999  67.0661926  62.3294487
  37.6067810  67.1249619  63.2838554  36.8630104  66.5804062  62.0833397
  72.0686646  42.0358925   4.3596678  71.5227661  41.3173370   4.6788893
  72.9632416  41.6998558   4.4148936   7.9427252  17.8380108   0.4192571
   8.3545513  18.6562386   0.1415279   7.4761167  18.0656281   1.2234324
  26.8106079   0.9992312   9.0760536  26.8035164   1.8438885   8.6257915
  27.6724682   0.9558282   9.4902325  54.8087502   6.7065930  22.3626614
  53.8904953   6.4368606  22.3796902  55.1531944   6.3327465  21.5515957
   7.6958170  61.4670715  29.5160904   8.1495676  60.7441139  29.0828762
   6.7666302  61.2571831  29.4223289  46.7921219  33.4667244  75.8233948
  47.0811920  34.2302818  76.3230438  47.5351639  33.2548943  75.2583771
  78.1107178  39.1748390  18.3131905  78.5589600  38.6239319  17.6714611
  77.5855637  38.5629196  18.8289394  72.0619965  10.7902260  76.9000854
  71.6859741  10.6435127  76.0321579  72.3236313  11.7109632  76.8952484
  49.9721107  16.3102493  12.7204828  49.5198364  16.7378120  11.9932470
  49.3628387  15.6342516  13.0172052  31.7054939  28.2745667   0.5217132
  31.6679039  29.0740223   1.0467734  32.5265732  28.3460999   0.0349426
  55.8016701  52.9043694  55.6694260  55.6432762  53.6710167  56.2202415
  55.5952530  53.1997948  54.7826614   5.8440528   0.6813474  86.3641052
   5.6865711  -0.2039372  86.0359268   5.5636435   0.6511098  87.2788162
  31.9468155   6.3374939  15.5038157  31.5513000   5.7723818  16.1674786
  32.8778152   6.1160431  15.5246372  17.2712536  71.4336319  79.5152817
  16.8920956  70.6863556  79.0526352  16.5195942  71.9807281  79.7431641
  37.6160965  49.9291458  13.3940372  37.6706429  50.8770828  13.2729139
  36.7158241  49.7757301  13.6807442  14.8495579  19.5543900  61.2393456
  14.0932865  19.2819710  60.7196617  15.6068859  19.2838039  60.7202415
  32.8446236  27.4335518  13.8279161  33.6025505  27.8209515  13.3900843
  32.4430008  26.8751659  13.1622314  28.6573105  14.5443497  66.5756836
  28.2421761  14.6869783  67.4263077  28.5143299  15.3621550  66.0992584
   3.5623889   8.5739479   3.4601073   4.2516689   8.0955915   3.9208672
   3.8073750   9.4946966   3.5519590  76.3348236   5.2259779  26.3677197
  76.5139771   4.9530392  25.4679203  76.8921127   4.6624079  26.9044209
   7.8293142  24.9730568  81.9050522   7.5282645  24.7379570  82.7827377
   8.7638063  24.7658348  81.9088669  21.0201416  11.3690491  31.3182564
  20.4405365  10.7393265  30.8896084  21.6254730  11.6445541  30.6298504
  25.5200367  69.4772949  52.0496140  25.4221783  70.3072815  51.5829430
  26.4656792  69.3703156  52.1523209  48.8709869  56.1365433   8.8955269
  49.6039619  56.3926811   8.3357315  48.2070961  56.8091393   8.7435484
  74.8155289  60.0305481  53.5304184  74.2388458  60.3882370  52.8553429
  75.0710373  60.7899399  54.0541229   9.4000130  63.0129089  60.3722229
   9.5565786  62.3409767  59.7087288  10.2658072  63.1951675  60.7374840
  53.6707153  40.9760399  27.4792004  53.1955261  41.5341644  28.0947647
  54.2110825  41.5830803  26.9735012  20.2369900  10.8761511  11.9980469
  19.5197525  10.9946260  12.6207571  20.6222076  11.7477503  11.9077463
  57.8927422  55.1873627  39.8513069  58.5722046  54.6720581  39.4165344
  57.8595848  54.8373795  40.7416115   4.6733232  13.7669697  66.9154282
   3.7613547  13.6969481  66.6332245   5.0475783  14.4431086  66.3506317
  62.5183640   1.2125328  72.6932068  62.6298370   0.2631826  72.7435989
  63.4042282   1.5511614  72.5635605  68.5831146  17.2595024  65.0237503
  67.6811676  17.5511112  65.1567078  69.1005936  18.0645027  65.0443192
  29.3693676   6.8744893  45.5446854  29.2608852   6.2896581  46.2946434
  29.5807896   7.7239242  45.9319763  17.9333992  56.8721771  37.7108612
  18.2092361  57.2910271  38.5261612  18.2627583  57.4491959  37.0217972
  45.9000359  13.6404915  80.9433746  45.7430534  13.3370962  80.0492020
  45.0648003  14.0188951  81.2180099   4.3922071  11.4930162  16.1406384
   4.1130805  11.7354965  17.0235462   4.5975327  12.3264427  15.7169952
  84.4636307  41.6245651  65.5021286  84.6908646  40.7798309  65.1135178
  83.7938919  41.9835739  64.9200668  18.5089874  53.1464920  72.6655273
  18.0289841  52.6397743  72.0104980  18.1290684  54.0236359  72.6153870
  71.3127518  33.9917259   1.0462675  71.1264038  34.1957474   1.9627179
  71.8956375  33.2333755   1.0834531   2.0241554  37.4215279  82.2374954
   1.1954899  37.3889732  81.7594910   2.5940349  36.8102417  81.7707977
  58.6391068  44.7528000   5.2586222  58.8051758  45.6819649   5.4176855
  57.6883087  44.6917648   5.1665049  55.3252220  38.3112335  31.2537117
  55.4556198  39.2577400  31.1957855  55.9872704  37.9420357  30.6692295
  13.2044926  66.9524536  20.0803204  12.3244047  66.6536179  19.8514595
  13.4172068  67.6045227  19.4126453  32.0549126  10.3582315  30.6435471
  31.9136410   9.4690084  30.9684410  31.4904556  10.4243116  29.8733177
   0.7641020  26.6095657  22.8631420   0.4662293  27.5061722  23.0167599
   1.2309300  26.3717060  23.6642208  46.1539345  11.6866674  21.2764816
  46.9743233  11.3080568  21.5924644  45.5082321  10.9895840  21.3921318
   2.6552658  55.9767113   5.8817992   3.2494690  56.2134895   6.5939031
   2.1607859  55.2304306   6.2206001  86.3322983  43.4130859  19.9679279
  85.6465988  43.9870834  20.3093643  85.9804459  42.5294151  20.0754032
  53.3722878  29.2420731  26.7527180  54.3256493  29.1615047  26.7817669
  53.0532265  28.3439198  26.8407822  15.3589487  51.0416222  80.9289856
  15.3046036  50.2934875  80.3343658  16.2841873  51.2867928  80.9215164
  55.6563225  56.3394737  76.4248352  56.3262901  55.7142067  76.7012634
  54.8283768  55.8781052  76.5585327  27.8649406  48.9390068   7.9044256
  27.9669857  49.8842392   8.0156031  28.7134647  48.5751419   8.1570854
  27.0830688  47.9347878   1.0450891  27.7172794  47.6734047   0.3774910
  26.3287430  47.3649635   0.8950001  50.0826492  28.9490776  28.4323997
  50.5190582  28.5820656  29.2012157  50.5122185  28.5265369  27.6886501
  68.9140320  59.6561699  30.1515579  68.8428955  59.3150673  31.0430851
  69.1689529  58.8986206  29.6249008  63.9182587  45.4396286  74.6824036
  64.2511139  45.0143967  75.4727325  63.0781479  45.8139763  74.9475555
  40.0803528   0.7330976  14.8321409  40.3256264   1.6575497  14.8703489
  40.9100266   0.2697095  14.7175064   2.1925223  65.2811279  47.3623276
   1.3850992  65.1046753  46.8794556   2.3495836  66.2164154  47.2327156
  57.0893745   9.9908628  69.4096146  57.3865395   9.5715628  70.2171478
  56.1343689   9.9413757  69.4514542  21.2611732   9.4853048  74.0156097
  21.4875355  10.3795090  74.2713242  20.3420238   9.5365915  73.7533722
  68.0463943  13.5209303  31.2996883  68.6267624  13.9344540  31.9387550
  67.1819077  13.8849277  31.4904900  80.4794998  36.5451202  78.7489700
  80.0015564  36.2797432  79.5346985  80.9651108  35.7625313  78.4882584
  47.0117950   1.3109726  25.0769558  47.6915283   1.4319785  25.7399406
  46.7678986   0.3882242  25.1496296  33.0734634   7.6537199   7.8293338
  33.8290215   8.1436901   7.5048409  33.3580513   7.3069696   8.6749144
  13.7040625  26.9121513  72.1459579  14.2787266  26.1493912  72.2106857
  13.4685993  27.1121979  73.0519257  79.6293869  53.5740891  87.0156479
  78.9665451  53.5089836  86.3281708  79.8392105  54.5070267  87.0584717
  85.8917465  12.7143431   3.7976689  85.8903503  12.5290384   4.7367601
  85.3327255  12.0359478   3.4188452  77.2723160  15.7629309  48.6903725
  76.4575500  15.6106100  48.2116470  77.1903915  15.2270050  49.4792328
  34.4652252  18.3502235  46.8833160  34.1980743  18.7355480  47.7178154
  35.2427368  18.8468323  46.6281891  41.2793655  38.7087784  12.6541338
  40.6234398  38.1727257  12.2084436  41.6608467  39.2465858  11.9602547
  12.7860231  12.0311403  43.3887253  13.2482882  11.2965307  42.9851227
  12.5732937  11.7249947  44.2703438  18.9935856  19.3062820  10.9666119
  18.2254505  18.7543983  11.1136694  19.0050259  19.4537773  10.0209131
  80.3606262  10.3669996  44.4361496  79.6754379   9.9594898  44.9659538
  80.6716690   9.6644297  43.8652916  66.0880890  10.3688526  77.4290619
  66.3170624   9.6784258  76.8068771  65.5967102  11.0056114  76.9101028
   7.9636779  62.0231819  84.9263611   8.8214512  62.3640862  85.1798172
   7.9677014  61.1152306  85.2294159  47.9029198  45.3469963  73.4325180
  48.0644188  45.5107613  74.3616714  48.5904427  44.7330208  73.1744919
   9.5156469  20.8949757  67.3900833  10.0987024  20.2344666  67.7642593
   9.4344492  21.5585022  68.0751953  50.6258774  47.9656868  68.9521866
  50.2951393  48.7439613  69.4006653  50.5731049  48.1847649  68.0218964
  35.4491386  12.8777237  30.3405285  34.9373550  12.3225965  30.9288673
  34.8965836  12.9786901  29.5654659  30.2737122  15.3188057   4.8803763
  29.6699829  15.9399338   5.2877369  30.7450409  14.9259872   5.6150699
  68.6830521  65.9572601  70.2766876  69.1657028  66.6053848  70.7897339
  69.0932770  65.1216278  70.4995499  17.3132801  11.2864609  63.8110733
  16.4807682  10.8915615  63.5518188  17.2949009  11.2774982  64.7680511
  79.3110199  37.4619751  48.6021194  79.1283035  38.2254219  49.1498337
  79.9940186  36.9861183  49.0746803  30.0277977  10.7266579  88.1248093
  30.2366714  10.9450264  89.0330582  30.4961281   9.9079800  87.9615173
  14.5170803  15.2296858  63.8178864  14.9604387  16.0131836  63.4926224
  13.5979700  15.4871120  63.8900070  59.8315277  32.2061081  24.5935097
  59.3610954  31.3725605  24.6045208  60.3062630  32.2022438  23.7623386
  69.9204102  47.5901794  28.4995708  69.8730774  47.2881279  27.5925121
  69.1438370  48.1387634  28.6101646  28.0846691  29.8724022   4.3747602
  27.7181740  28.9920120   4.4573817  27.3541889  30.4561119   4.5794950
   9.5920687  66.0673904   6.5285015   9.8039465  65.2267990   6.9343987
   9.9563885  66.0055847   5.6455050  26.4551182  64.1677704  17.3865719
  25.7042408  64.4757919  16.8790913  26.0772362  63.8589897  18.2100372
  55.4371872   7.6976118  35.3614388  55.6157074   8.6124907  35.1438179
  56.3028641   7.2967486  35.4398308   9.4203777  67.1846619  12.3269320
   9.7493610  66.4603882  11.7945585  10.0366707  67.2445908  13.0568790
  40.4793015  65.6893234  28.9227924  41.0039368  65.6021118  29.7186470
  40.4116859  64.7975616  28.5815773  62.0451584  16.6046600  54.9508781
  61.8578529  17.1264019  54.1705360  62.0929489  15.7037992  54.6308784
  69.9606934  50.7594833  65.5987396  69.7971191  50.2132835  66.3675995
  69.2238083  51.3700409  65.5775299  58.7363243  56.1990166   1.0218654
  59.1103477  56.9627876   0.5825548  58.7604256  55.5069466   0.3610404
  21.2107162  70.2806778  17.0785408  21.5151215  70.5019073  17.9586678
  20.8685608  71.1036835  16.7295189  57.8786392  67.0056763  58.5179863
  58.1547890  67.3632126  59.3618698  57.4558601  67.7403870  58.0733719
  43.1658363  68.2188263  34.4322777  42.5475616  67.4927750  34.3496704
  42.6394272  69.0014267  34.2690163  72.1971893  31.9779778  30.3152161
  71.5420914  31.5164528  30.8387280  71.9353409  32.8975601  30.3603115
  76.7805328  46.9513855  73.6671677  76.1359711  47.5292053  74.0756912
  76.5612869  46.0788841  73.9941330  23.5382290  61.8424454   3.9514933
  24.3839493  61.8967972   4.3965025  23.4515152  62.6812859   3.4986560
   2.7321966  14.1130743  49.2207260   2.4017913  14.4618683  50.0486183
   3.5914607  13.7520618  49.4388237  60.6356430  16.2465305  46.7563896
  60.3491516  16.2615261  47.6695862  59.9594536  15.7445173  46.3014412
  52.2865868  23.4419727   5.4784136  51.9638710  23.9986000   4.7697148
  52.3533783  24.0283375   6.2320361  66.1647873  40.7260628  50.1872139
  65.6185379  41.5108337  50.1427383  65.8352890  40.1647949  49.4853287
  30.3110828   7.7973442  20.1196022  30.2099514   8.7475777  20.0642872
  29.6127014   7.5161610  20.7107296  55.9111977  22.5242462  20.3471279
  56.7201576  22.2210655  20.7593079  56.2008133  22.9742165  19.5534782
  51.7849121  68.4424820  12.8490124  52.5864334  68.6122284  12.3540564
  52.0221558  68.6235657  13.7584944  71.6907349  44.3400192   5.8494725
  71.9402466  43.5419312   5.3836079  70.7388611  44.3829460   5.7582350
  14.5377502  46.8427467  82.5142517  14.0470610  47.3932648  81.9040146
  14.5352936  45.9753723  82.1094208  42.4076385  22.2292728  79.1295547
  42.6014290  22.5841274  78.2619400  41.4530869  22.2606850  79.1934357
  67.9284821  47.1655159  85.7278214  67.9139786  48.0502777  86.0928116
  67.4673920  46.6318550  86.3749924  29.4812107   1.7736881  87.5386047
  30.2746239   1.5297697  88.0152969  28.7669067   1.4031160  88.0569458
  75.3912659   2.0815241  77.5553589  76.0687866   1.4967971  77.2158051
  75.7866287   2.4820971  78.3296051   4.3953447  65.6093445   5.3921003
   4.1856971  65.0574570   4.6386452   3.9679000  66.4447556   5.2033920
  57.0237465  60.8244171  37.1817169  56.2021980  61.3055153  37.2808914
  57.4730072  60.9425392  38.0186424  40.3209686  17.0788288  42.0685806
  39.5711937  17.6481876  41.8956528  39.9761314  16.3972778  42.6454773
  28.1072845  61.8181877  44.3670731  27.2232285  61.7262344  44.0117950
  28.1257820  61.2267227  45.1194382  77.6868286  33.6018181  86.1262894
  77.6661530  32.7895279  86.6322403  76.7740250  33.8883438  86.0958633
  48.9831696  21.3762398  33.3984375  48.6288605  21.3788242  34.2876434
  48.2109756  21.3624935  32.8329659  59.3588829  41.8729935  74.3972855
  59.2827721  42.1329727  73.4792175  59.3171692  42.6963768  74.8836288
  32.4642067  13.8034430  73.6933517  33.2538757  14.2261181  73.3557129
  32.4948120  13.9580431  74.6374893  63.2017097  51.8846359  38.0493622
  63.0864487  51.4249153  38.8809891  62.8141785  51.3008499  37.3972549
  39.0273705  43.0510368  84.5949936  38.2939453  43.1706352  83.9916611
  39.6153793  42.4477119  84.1405945  48.4076347  32.9828720  27.4735546
  47.8938866  32.1757164  27.5017300  49.3069992  32.6893845  27.3278313
  14.5694761  10.8972969  30.1027222  15.4162016  11.2525301  30.3730869
  13.9357500  11.3229799  30.6801434  53.4141006  65.9501572  51.4630852
  52.8606682  65.4894638  50.8324432  52.8357773  66.6033020  51.8570023
  12.9794550  23.6215744   3.0836339  13.1120205  23.3518600   2.1748369
  13.1004324  22.8193665   3.5916297  69.7438812   5.3918047  42.9150658
  70.5548248   4.9992604  43.2383575  70.0259705   5.9855604  42.2192841
  78.1378937   8.6421280  69.4040070  78.2484055   9.2184753  68.6478043
  77.2978134   8.2085562  69.2539597   8.7961836  56.2471123  40.8259430
   8.4960804  57.0839081  41.1808281   9.4543915  55.9439697  41.4513206
  17.0187664  10.4589825  50.7020950  16.6584072   9.6546993  51.0755920
  17.8499222  10.1899624  50.3108902  23.8721962  17.9786758  86.8980026
  24.2532597  17.8724155  86.0263748  23.4259739  18.8247719  86.8628006
  26.3901882  13.4805126  64.3060837  26.3748817  14.3428364  64.7212906
  26.5817528  13.6611547  63.3858109  50.9949226  39.6804466  29.1793270
  50.2167740  40.2341042  29.1147079  51.7278976  40.2960472  29.1751518
   7.1349778  42.1401329  36.4764442   6.8302464  43.0345459  36.3234787
   6.3333826  41.6319199  36.6005287  25.1136932  49.6442261  71.6380234
  25.6205711  48.8323860  71.6231689  25.7686234  50.3335114  71.7484131
  37.6265450  69.4653931  21.7663574  38.2839012  70.1121521  22.0229092
  36.7956429  69.8388672  22.0602131  54.9516411  52.6255608  11.9603357
  54.4004097  52.2206039  11.2907209  55.2532959  53.4414825  11.5609512
  32.7722855  36.5221786  14.3077507  32.9488678  36.8912392  13.4423914
  33.0357094  35.6048050  14.2351952  42.4223289  11.6100292  24.4323711
  41.7031403  11.5524683  23.8033371  42.4594421  12.5366211  24.6696129
  79.7151108  24.3518715  72.1275864  79.8525696  25.2354279  71.7860184
  79.0999680  24.4680214  72.8516922  29.1478195  65.4534454  27.7297115
  28.3275967  65.1847305  28.1435432  29.4904957  66.1406631  28.3011436
  27.9490070  55.9974022  76.9595718  27.8403206  56.7171059  77.5812225
  28.5899887  55.4188423  77.3726654  17.4389477  59.9847374  20.3190975
  18.3499336  59.7240982  20.4547653  16.9265137  59.2685127  20.6941528
  55.9652863  66.6723251  85.0938339  56.4105606  66.1658096  84.4145660
  55.0560913  66.3752975  85.0568314  63.8753624  56.8813095  57.9654465
  64.6155319  56.8053246  58.5676117  63.1148949  57.0001793  58.5344696
  74.4986420   2.8287334  46.4934731  74.1325073   2.9635055  45.6193962
  73.7565842   2.5333953  47.0210648  14.4825401  68.7218399  46.8432159
  13.9659233  68.6439896  47.6452637  15.3653660  68.4557343  47.1001892
  60.8784027  24.7492085  57.8092995  60.8268509  25.6089306  58.2269745
  60.6218567  24.9084435  56.9009705  11.3787308  44.1969681  84.7925720
  12.0021782  43.6172523  84.3549957  11.8916550  44.6280823  85.4761505
  65.1068192  10.4476500  86.1810150  65.4641647  10.0558863  86.9779205
  65.8514175  10.8957033  85.7797012  25.3255768  13.3025074  43.7618790
  25.0594254  12.4085989  43.5466537  25.0847683  13.4091053  44.6821404
  78.8943863  58.6680107  12.3105621  78.4571533  59.5157127  12.3909264
  78.4812164  58.2564163  11.5515385  80.3172913  39.1271400  34.8080292
  79.8845749  39.9630661  34.9818573  79.7504654  38.6918793  34.1712494
  65.5570145  38.7466621  12.4563751  64.6049652  38.8418617  12.4285355
  65.8254089  38.7538261  11.5376015  29.1751938   3.9863307   2.8907840
  28.6790428   4.2694407   3.6588433  28.5616989   4.0788498   2.1618826
  35.5135460  15.3733664  54.0190964  36.3947830  14.9999990  54.0350266
  35.6368599  16.2644939  53.6921120  79.7114868  71.7566376  31.2473221
  80.1569672  70.9657059  30.9436703  80.2958755  72.1202621  31.9125328
   1.0964745  24.3592339  46.2838058   0.4945158  24.9920120  45.8920517
   1.7608509  24.8962631  46.7155914  79.1500931  17.7077808  48.2759857
  79.9079666  17.5215931  48.8302383  78.5616074  16.9663200  48.4179535
  62.5161362  55.4561234  17.7878799  62.3603745  54.5584564  17.4943447
  63.0859299  55.8320656  17.1168842  84.5679626   6.0160961  57.6355400
  84.2341232   5.2743859  58.1401711  85.5109634   6.0124683  57.7997360
  16.2590351  25.9498177   5.9641366  15.5515928  25.3060856   6.0011063
  16.4257450  26.1753120   6.8793373   1.4746462   5.3179336  12.3021317
   2.3718634   5.3818297  11.9747925   1.0626044   4.6581483  11.7443352
   4.6850467  23.9630966  85.9899292   5.1290460  23.8384418  86.8287125
   4.3926783  23.0862751  85.7410583  82.3991470  30.7194138  41.0850182
  83.2229233  30.9676876  40.6655121  82.5830231  29.8724670  41.4913483
  23.0853424  68.7683563  83.4743500  24.0196285  68.9723129  83.5160522
  22.6759548  69.3983383  84.0674362  57.6860161  24.9294281   7.2376933
  56.7423973  24.8069477   7.1337180  57.9268341  24.3395271   7.9520135
  58.8573265  66.0274277  14.7745686  59.7265358  65.7084579  14.5317383
  58.3232880  65.2362976  14.8462915  82.3576050  24.3725719  52.6982040
  82.7125473  24.4157600  53.5861130  83.1252594  24.2536621  52.1389160
  15.4601841  18.0112743  63.3571625  16.2482109  18.5336761  63.5066261
  14.9703560  18.5004463  62.6960945  69.8250580  57.7645950  44.0005951
  70.3802948  58.3195610  44.5482826  70.3623962  56.9936829  43.8184128
  80.0154648  22.2842503  63.9196243  79.7099533  21.7770844  64.6717377
  80.7308884  22.8180008  64.2653275  21.2387066  13.3357992  10.8893528
  21.9728756  13.1245852  10.3126230  20.5775223  13.7110567  10.3077631
  32.7715721   9.3247728  24.9951649  33.2324104   9.6922445  24.2409611
  32.4826622  10.0884638  25.4947052  41.3362007  58.5721245   3.7138004
  40.9646835  58.8144531   2.8655763  40.8336258  57.8038445   3.9847186
  20.1873627  68.9069214  10.3528919  19.3036461  68.5424576  10.4023485
  20.3236618  69.3211060  11.2050114  81.3827362  11.1249723   6.6540031
  80.4901657  11.2970791   6.9538794  81.3888779  10.1911860   6.4436765
  30.3340664  46.9417915   0.8950967  30.4101715  47.8604813   0.6373287
  30.7858829  46.8911552   1.7374330  25.1222420  44.9664955  13.9966955
  24.2400475  45.2525406  14.2336416  25.6958027  45.4258003  14.6101246
  21.0126572  66.0168304  68.7161102  20.1623440  66.3068924  69.0463562
  21.3701191  65.4741516  69.4189301   8.4701376  14.4886274  72.2261734
   8.1230869  14.2558956  73.0873489   8.9873619  13.7275133  71.9627075
  42.4639244   3.7885365  33.2074051  41.7659836   3.3445823  33.6890869
  42.6991081   4.5342464  33.7595253  68.7150040  68.7911072  46.7843361
  69.3820877  68.7721558  47.4705391  68.0546799  69.4032745  47.1090584
  15.2912722  17.4273510  19.5389538  14.6071396  17.6047955  20.1844845
  16.0869827  17.7912941  19.9270554  80.0246811  11.5423107  73.6479492
  80.1054916  12.1653996  74.3700714  79.1021805  11.5856810  73.3962784
  57.6049767  59.6085854   4.4805036  58.0079346  60.4348717   4.2138472
  58.1670494  58.9340172   4.0993714  71.2958908   8.2135391  67.9703064
  71.7480011   8.6443329  67.2448807  71.6417770   8.6392908  68.7547379
  49.2632751   7.1987987  40.7307167  48.5625648   6.6304746  41.0504646
  49.7581177   6.6498470  40.1224251  65.8366013  43.3283424  39.5571365
  65.6111755  44.1908417  39.9057121  65.8624496  43.4527168  38.6084023
  33.0021896  58.8835831  71.5211411  32.3950806  58.2771416  71.0970154
  32.4993973  59.6912460  71.6265564  73.9106369  55.2995872  62.2333260
  74.1002579  56.1057625  61.7533646  74.6968842  55.1413345  62.7558136
  21.4807682  70.2534485  57.6577072  20.8833103  70.3405380  56.9149475
  20.9062862  70.1507874  58.4164314  60.7127113  14.1706228  24.2738743
  60.4112549  14.4280500  23.4026184  61.6489105  14.3700104  24.2719955
  18.7447720   3.1506853  35.8321495  19.4937630   3.4263282  36.3606033
  19.1228886   2.5895808  35.1550789   9.0438309   6.2278547  35.9252510
   9.5291233   6.0831528  35.1129799   9.0327950   5.3718195  36.3534012
   5.0140638  32.8071594   4.6726174   4.1366830  32.4261131   4.7078061
   5.0558705  33.2335129   3.8166330  25.8199196  62.1539764  81.1991119
  25.5276909  62.9483223  81.6461639  26.7628670  62.2750130  81.0876083
  31.7491398  51.7885857  26.7248173  32.3486443  52.2685661  27.2961731
  30.9357529  51.7302246  27.2260456  81.7588348  65.3249054  66.4640961
  82.3225250  64.6522064  66.0820541  80.8693924  65.0005493  66.3229828
  42.7515106  44.6935883  19.0368500  42.9956284  44.4825363  19.9380150
  42.1654701  43.9835396  18.7749043   7.6032968  23.9060383  72.4113693
   7.6357307  24.8340759  72.1791458   8.3320160  23.7858963  73.0202713
  56.2489815  17.1831379  64.3071899  56.8466225  17.9019547  64.1013794
  56.5345268  16.8728275  65.1664963  57.3997688  24.1954365  18.7315559
  57.4641228  25.1149673  18.4735737  58.3065834  23.8901520  18.7583103
  82.5225906  63.7636452  20.8002434  83.1145935  63.7647934  21.5524216
  82.2583771  62.8485947  20.7047939  82.1568298  30.3666229  78.6135101
  82.3847733  30.9878788  77.9219055  81.4722443  30.8082256  79.1160583
  14.4516582  36.8597221   0.4653533  14.1746798  36.0188370   0.8292564
  14.9704971  36.6281013  -0.3049646   4.8726263  20.3187218  32.7012749
   5.5763426  20.2082176  33.3406525   4.0744104  20.3582573  33.2280769
  46.6487503  46.5895081  80.9310760  45.7633820  46.7688293  81.2476273
  47.1991348  47.2280235  81.3845139   6.4508667  35.5285721  47.8862953
   6.6724234  34.6284065  47.6478615   5.5807805  35.6681099  47.5125160
   9.5683193  10.9833040   1.7913870   8.7609758  11.1326828   2.2834394
   9.8066835  11.8469248   1.4543798   2.6537442  50.2656670  10.5662422
   2.1920710  49.4678268  10.8241978   2.0248437  50.9690437  10.7274141
  72.8289185  69.5048904  18.3318024  73.7234268  69.1714935  18.4020863
  72.4791412  69.0880814  17.5443020  74.3164978  16.4553528  73.3600616
  74.8424759  16.7770042  74.0922623  74.9579239  16.1219940  72.7326202
  77.6290817  30.1158180  84.1377563  77.6818161  30.4208031  85.0435333
  77.9475250  29.2137108  84.1698532  33.2130356  17.0803261  23.8804512
  33.0385208  17.9142590  24.3167248  32.4106750  16.5730915  24.0035744
   6.3843141  23.9641495   9.3611126   6.9632988  24.6597729   9.0494795
   5.5398145  24.3956451   9.4909697  26.3998623  32.5887146  16.1341877
  27.1771927  33.1471252  16.1471214  26.7317429  31.7117138  16.3264313
  82.4190826  60.5594177  81.3599548  82.3866882  59.9083405  80.6590424
  82.2810287  60.0552063  82.1617889  35.5305290   8.6378593  13.6477594
  35.6853218   7.7006655  13.5296984  36.2949638   9.0583496  13.2539854
  58.7958488  63.6764946  21.7395840  59.1936531  64.4511108  22.1370239
  59.0233727  62.9597931  22.3318672  82.7816849  33.5997467  23.8749866
  83.5386353  33.3177376  24.3885269  82.3729858  32.7847672  23.5834312
  39.7850609   2.3568807  52.4163933  40.7182083   2.4696321  52.5973778
  39.6961021   2.5558999  51.4843483  32.4435425  63.1973152  27.8699970
  32.2564812  63.2923241  26.9360733  32.2633972  62.2761803  28.0578537
  73.7525177  13.6985950  56.7789230  74.6893005  13.6771088  56.9744225
  73.6491547  14.4405727  56.1830902  70.9966278  32.2190132  27.3971844
  70.2045059  31.8662529  27.8025551  71.4665146  32.6406136  28.1166954
  56.6437950  18.4460888  27.4636688  56.8741035  19.0080891  28.2034988
  56.9758644  17.5819073  27.7068768   7.6345577  17.7524662  69.6664200
   7.4233384  17.3110447  70.4890747   7.5896010  18.6852055  69.8766785
  82.6864929  42.4996490  39.4205627  82.7938614  42.3694572  40.3627701
  83.2525024  43.2438622  39.2155762  44.9878349  66.2416916  79.3481064
  44.3079605  66.7096252  78.8632965  45.7790222  66.7638626  79.2154694
  41.2639885  26.5670033   5.0497437  40.5674629  27.1594715   5.3327050
  41.5208092  26.8937836   4.1874847  33.8383484  25.1392059  78.0025406
  34.6058426  25.6903114  78.1557236  34.1279564  24.5011368  77.3504410
  73.2691269  18.7419376  45.3705978  72.9618301  18.9254894  46.2583504
  72.4689560  18.6701107  44.8502159  56.2728729  48.7448807  80.6122360
  55.4139786  48.3250160  80.6596146  56.0850143  49.6453171  80.3473663
  10.0254345  22.0495491   9.1499577  10.0055676  22.8998222   8.7107859
  10.9234352  21.9666252   9.4708166   5.2252331  44.7319794  48.4238167
   5.8155746  44.4483299  47.7257690   5.5383863  44.2733459  49.2034454
  38.4150581  55.1890335  54.4144325  37.9112511  54.4861603  54.8247757
  37.8049889  55.5917282  53.7964668   2.2985129  18.6845226  87.3283005
   2.6036441  17.8662357  86.9364624   2.4879973  19.3513947  86.6682892
  15.0721865  50.5934906  29.8922005  14.8219976  51.5122185  29.9900837
  14.2417383  50.1174889  29.8951206  65.0196304  56.6238594  72.0429840
  65.9561539  56.4509773  72.1392441  64.8807983  57.4528809  72.5008926
  73.2325211  40.3761787  70.4629211  73.0491867  40.8800125  69.6699677
  72.5915909  40.6910896  71.1003113   6.9979630   1.8344991  43.0820732
   7.3413153   2.0188282  42.2077942   7.5407052   2.3614728  43.6685562
  79.1503601  70.2978516  82.3201218  79.9181366  70.1108551  82.8602905
  78.8915558  69.4459534  81.9686508  86.5560303   1.4525328   1.2037019
  85.8972092   1.5705523   0.5194019  87.3914871   1.4661384   0.7367352
  81.5679092  30.2930031  83.4568329  81.5434036  31.1916161  83.7856522
  81.8566284  29.7716560  84.2058792  33.7722855  16.5933666  84.5330811
  33.9355125  17.3786106  84.0106049  33.8321152  15.8721323  83.9066010
  30.0510387  58.4331894  38.7041779  30.4838963  58.8356018  37.9512291
  30.7688179  58.1069794  39.2469559  27.6801720  45.2745667  79.5489120
  28.5409756  45.2937737  79.1307220  27.5475426  46.1682205  79.8651810
  25.6593666  23.5389938   0.0248865  26.1393414  24.1587791   0.5741808
  26.3149986  22.8919277  -0.2352746  84.5862579  59.6936722   3.0299892
  84.6140366  60.3077087   2.2962186  84.9697952  60.1772537   3.7616205
   1.0725350  43.5984764  65.7852402   0.1262908  43.6874046  65.8990173
   1.1695668  42.9884109  65.0540466  17.1536064  39.0667953  20.6390285
  17.6060276  38.8782158  21.4612103  16.8180370  38.2181511  20.3501892
  36.6691780  56.9587708   7.9240198  36.0572472  57.6142807   8.2587976
  36.7833977  57.1868286   7.0014291  20.4637985  36.5309525  82.5953751
  21.1838207  36.0056305  82.9444275  19.6742210  36.0503197  82.8439560
  77.0687103  46.3928566  69.8442230  77.0551910  47.1263885  69.2294235
  76.4977646  45.7359200  69.4458771  61.1917038  56.4727516  80.3929291
  60.3540421  56.3310814  79.9519272  61.8186264  55.9543152  79.8885269
  22.9116173   9.9980087  23.7283726  22.5154705   9.2200794  23.3357830
  22.3651867  10.7234859  23.4261665  57.8303146  52.1393852  37.6141891
  58.4167938  51.3830070  37.6012421  57.5699234  52.2562294  36.7005272
  84.4210205  23.0697746  74.3459702  83.9579468  23.7350368  74.8551025
  84.4541016  23.4272671  73.4586487  42.1338806  12.7185364  87.8908691
  42.6840668  12.4617176  87.1508942  41.9666901  11.9011421  88.3600693
  64.6519394  23.5669937  48.6026306  65.0075531  23.3666744  49.4684486
  63.7592926  23.8671093  48.7739105  54.4098625  62.0087395  73.8402405
  55.0491333  61.6114159  73.2488861  53.8659973  61.2769547  74.1316681
   8.1843739  25.6866245  27.7632389   8.4971161  24.8736515  27.3663807
   8.4744883  26.3733311  27.1628208   7.5155182  36.5255356  45.6165924
   7.4261580  36.2154350  46.5177498   6.8134046  37.1679268  45.5136185
  39.6053963  24.4658680  25.7932606  39.1413651  23.8808365  26.3921299
  39.7014656  23.9572945  24.9880562  32.6908760   2.1007984  69.8113022
  31.9056187   1.8403922  69.3298569  32.6431274   3.0560756  69.8486862
   1.5165569  55.1277199   9.7788448   1.3565114  56.0711746   9.7562456
   1.4213328  54.8906631  10.7013235  -0.1085807  68.4451981  52.3624954
   0.6635689  68.5282669  52.9220619   0.2391346  68.4597855  51.4708023
  26.2484150  37.2720413  22.4013958  26.5900230  36.8819466  23.2059841
  27.0252666  37.4396095  21.8678665  34.4608612   6.9951720  32.7922440
  35.0947914   6.3084564  32.9990807  34.0621758   7.2146235  33.6343384
  84.2927017  18.0456810  26.0807915  84.0886536  18.2734985  26.9878159
  84.3354111  17.0894375  26.0778198  83.2712173  33.6940460  45.9970970
  83.4765854  33.7764282  45.0658226  82.7225342  34.4544067  46.1895409
  44.6607895  17.1902618  18.4412289  44.8857002  17.4813595  19.3249187
  44.5629921  16.2412758  18.5192909  81.0974884  13.4101553  42.9474106
  81.7541580  13.2276983  43.6195145  80.7733459  12.5474367  42.6887932
  86.6368484  68.0583572  32.2954979  86.5983124  68.1467209  33.2478333
  86.0195389  67.3547974  32.0950699   7.0577221  48.0403442  11.3514404
   7.5693216  48.8239937  11.5524130   6.3362732  48.3580284  10.8084688
  49.1955643  33.2802048  14.1177034  48.6427193  32.5193291  14.2956438
  48.8173180  33.9806519  14.6492395  50.4036598   2.8621202  13.9575901
  49.5302582   2.8413830  13.5664759  50.2490997   2.7460568  14.8950720
  76.7300491  30.0957260  11.8485174  77.3477783  29.9615707  12.5672979
  75.9350281  29.6418591  12.1281042  69.2610321  42.6365051  13.3196507
  70.1492538  42.3541222  13.1015615  68.7329483  41.8412132  13.2498722
  29.9814606  58.0689201   1.0771818  30.5324688  57.3496857   0.7684364
  29.4422340  58.2993393   0.3206279  42.3540154  30.2661743  18.6392822
  41.6855583  30.9428158  18.7467651  43.0854912  30.5640793  19.1800518
   9.4893370  18.0303688  39.7755508   9.9101019  18.8830585  39.8855858
   8.9703608  17.9148769  40.5715141  58.0433311  19.0646038  63.8218231
  58.6486435  18.7316246  64.4843597  58.6048088  19.5066586  63.1849823
  65.9909973   9.4462595  56.9525261  66.4635620   9.2719631  56.1385651
  65.1260223   9.7420425  56.6686707  82.8425674  18.0826340  65.6406326
  82.8903809  17.7725277  64.7363205  83.5556335  18.7169304  65.7143402
  67.3477249  69.8560486  88.6610565  67.3488388  70.8125992  88.6256943
  67.4511566  69.5825577  87.7496033  51.2367744  48.7386551   7.6724043
  51.1806526  48.0921898   6.9687233  50.5260544  49.3533821   7.4901471
  42.4828873   4.8201742  80.4572067  42.1208420   4.1134210  80.9916763
  43.2133141   5.1608739  80.9735718   8.7682781  43.4897995   5.2778020
   8.0851011  42.8817978   5.5603461   8.2937870  44.1968193   4.8405218
  76.0426559  50.4101524  23.2807312  76.0921707  49.8659668  24.0666332
  76.0824890  51.3085670  23.6086006   0.2261859  21.3439255  44.0219841
   0.5548972  20.6494370  44.5928345  -0.3241277  21.8816280  44.5914268
   0.3268357  16.1406860  12.8303223   1.1480559  16.6309013  12.7913733
   0.1382473  15.9165373  11.9190464  67.2307129  42.1048050  76.5381165
  67.8236084  42.1074486  75.7866516  66.9107132  41.2040367  76.5875549
  13.2396917  41.7519531  77.8297806  12.9713259  42.6185112  77.5243530
  12.8115444  41.6545792  78.6803360   9.3550625   1.3491044  30.1903667
   8.7605572   0.9720031  29.5418377   8.9595966   2.1908247  30.4169617
  58.8701897  20.4349117  35.3499451  59.2075500  20.4934540  36.2438087
  59.5873108  20.7537327  34.8019295  37.4635239  55.6338730  76.4723434
  37.2238045  56.2230873  77.1875992  37.4317589  56.1828995  75.6888885
  25.8377419  59.1150131  84.1917419  25.2220821  59.7763100  84.5077896
  25.7794724  59.1699486  83.2378998  27.2462349  40.8354416  11.9935665
  26.9230709  41.7231331  12.1478481  27.5141754  40.5244331  12.8582706
  52.1266098  58.1488838  26.8157253  51.3505020  58.4731293  27.2726173
  52.3615646  58.8540649  26.2126064  44.7603531   8.6527758  13.8928843
  44.9141693   9.4552250  13.3942385  44.0068359   8.2458134  13.4653082
  72.7447052  13.5745897  77.2636719  73.1018448  14.4429235  77.4499054
  71.9509583  13.7457333  76.7568207  66.1314087  50.8432579  76.8380051
  66.2410736  49.8968620  76.7455750  66.3166351  51.0168343  77.7609253
  46.6687813  66.4744339  34.3797989  46.3971748  65.7962112  33.7613602
  46.0404053  67.1843567  34.2479286  84.3038330  51.1416550  83.7830429
  84.2358170  51.8930130  84.3721695  85.0004044  51.3794098  83.1710815
  20.9259872  39.0145302  12.3565788  20.9461536  39.9165001  12.0367737
  21.5965271  38.9873657  13.0391254  15.2211523  14.7870846  49.9003944
  15.1129818  15.7381229  49.8927879  14.3426113  14.4474592  50.0708389
  20.0406685  13.2057037  86.7480011  20.3923283  12.5990458  86.0964432
  20.2853813  12.8213577  87.5897980  49.4705467   7.9096456  18.9855061
  48.9128647   7.4472690  19.6111469  48.8600693   8.4134054  18.4471989
  68.8899536  68.4456787  65.4088516  69.3760834  68.4832306  66.2325668
  68.0946426  67.9576035  65.6221542  24.1244793  36.6648827  24.4452744
  24.7841454  37.0576401  23.8735981  24.4651794  36.7967186  25.3300190
  28.9771938  50.1559067  22.0256767  29.7136002  49.7941628  21.5326462
  28.2632904  49.5351830  21.8798027   4.4074979  21.6048946  59.6936455
   4.5831962  22.5314636  59.8574486   4.9526038  21.3878002  58.9373665
  64.9135513   6.8244734  85.0774002  65.2380600   5.9314466  84.9614944
  65.6847382   7.3776073  84.9527206  45.4242172   5.5946045  31.3994026
  45.7203026   4.9890652  30.7197800  45.2343559   5.0351291  32.1525116
  39.9574814  60.2311554  86.1614151  40.1876526  59.7702217  85.3546982
  40.7962875  60.3892860  86.5945740  65.2845764  33.3869324  37.5678215
  65.6943512  33.2997932  38.4284744  64.3445053  33.3702927  37.7473450
  63.8379250  43.0216980  29.1439018  63.5838470  42.2598305  29.6647053
  64.7945251  42.9922333  29.1272793  15.6575289  19.1199303  56.6261520
  16.1651516  19.2226524  55.8211670  14.7533445  19.0206699  56.3281097
  63.0462723  51.9736137  79.1040344  63.9904633  51.8490753  79.0079651
  62.9416580  52.3459625  79.9796143  85.8747940   7.7426424  88.5600052
  85.2690048   7.3466792  87.9335327  85.5777512   7.4262552  89.4131699
  79.7389526  22.1322079  88.0869217  79.3878479  23.0202522  88.0210571
  79.9505539  21.8908215  87.1851578  47.6152916  41.1689072  86.2080154
  48.1314812  41.0933762  87.0105515  47.9997253  40.5238953  85.6143799
  58.9399223  69.0821609  14.4503851  59.0279274  68.1475143  14.2635107
  58.2844887  69.1265411  15.1465654  23.4371014  69.9614258  80.6242905
  24.0975685  69.2911835  80.7997513  23.2633991  70.3560333  81.4788895
  81.3170090  32.8769608  20.3226223  80.5999222  32.7623138  19.6990261
  82.1013184  32.6264648  19.8344231  33.4021225  48.3735771  35.8136559
  33.6859512  47.5425453  35.4327888  34.1349716  48.6468582  36.3654518
  19.8210716  61.3248787  47.0904732  19.0076294  61.7942085  46.9053459
  19.6020126  60.7441521  47.8191719  78.3739624  49.7084465  56.1636696
  77.8309937  49.5003700  56.9240074  77.7857971  49.6093979  55.4150162
  39.5923386  58.1821022  79.7418365  38.9157028  58.2091370  80.4183426
  40.3466339  58.6165161  80.1400223  11.5495138  58.8721962  40.8134308
  11.1474323  58.0052795  40.7584534  12.2868195  58.7566719  41.4128189
  21.6273174  33.3294220  18.4598598  22.5179920  33.5485573  18.1861668
  21.6076756  33.5313835  19.3953056  34.6217690  55.3648376  24.4797077
  34.8065872  55.3618088  23.5405235  33.8480072  54.8091774  24.5733414
  49.8814735  12.8774261  71.3028946  50.4734344  12.1366463  71.1722870
  49.1614571  12.5199270  71.8225174  70.9432373  49.2602882   3.6972384
  70.0459137  49.5409012   3.8769288  71.4899216  49.8939133   4.1618781
  24.0756683   2.0236044   4.4008274  24.4300232   2.8009636   3.9691131
  23.3688736   2.3576288   4.9531875  58.6884041   4.0274863  79.1041641
  59.3490448   4.3266525  79.7288895  57.9020996   3.8928595  79.6331558
  76.1771622  60.8934555  75.8890076  75.4842758  60.3550491  76.2714539
  76.6726074  61.2163200  76.6416855  42.5512390  60.2738991  74.6997910
  43.0441589  60.9939346  75.0932541  42.8048897  59.5038223  75.2085876
  75.9898834  33.2753372  81.7069016  75.6722717  32.6515541  82.3597794
  76.0731812  34.1005592  82.1847153  40.3477745  64.1744232  62.2104645
  40.7600365  63.3697357  62.5247002  39.4415970  63.9245300  62.0298233
  52.3143883  20.0948048  13.9454203  52.6235809  19.7160168  13.1225271
  52.9342537  20.7998123  14.1324043  57.5719223  37.4954643  69.1194839
  56.8190689  37.0592728  69.5184555  58.3249664  37.1759911  69.6165695
  80.5153656  39.3351135  56.8828201  80.8675690  39.6103592  57.7292404
  79.5965118  39.6021729  56.9074631  48.9370537  26.0525646  27.7961235
  48.8885727  25.7584972  28.7057419  49.7134628  25.6168461  27.4446030
  82.2187576  31.3919067  72.7896500  83.1457520  31.1628380  72.7230301
  82.2021790  32.3463173  72.7185440  31.2972698  40.3695908  23.4058971
  31.0505753  41.2424889  23.7115440  32.2489357  40.3413086  23.5047016
  66.6276703  17.3739738  46.5041084  65.7885666  17.8257904  46.5935707
  67.0271072  17.7624874  45.7258148   5.0104070  27.7319870   8.5722656
   4.6853929  28.0314007   7.7231784   4.2580509  27.8122540   9.1585665
  80.5355530   2.1759920  38.4429321  80.1863098   1.9343146  39.3007469
  80.4518051   1.3803487  37.9174118   1.5213581   6.2023993  17.3896980
   2.0975416   5.4564738  17.5565510   2.0568714   6.9690676  17.5938473
  65.8826599  66.6492081  30.4751530  65.1220245  66.7432251  29.9017181
  66.1368637  65.7305908  30.3871517  52.1937103  24.5280724  87.7641983
  52.9473190  24.8681965  88.2464981  52.0998573  23.6263752  88.0713806
  62.0011673  35.8307419  27.4554348  61.8395844  34.9420204  27.1387405
  61.2797394  36.3476524  27.0968552  19.1704578   6.8492599  85.7398682
  19.5762959   5.9846697  85.6765366  19.5800095   7.2505264  86.5063400
  53.7569885  20.1416664   1.5741197  53.7797966  21.0607529   1.8405659
  52.8324966  19.8995266   1.6280552   6.4346948  71.0354843  19.6473427
   5.9021306  70.5779266  20.2979145   7.2305894  71.2809219  20.1190910
  12.3587122  55.1642342   6.1022992  13.1006536  55.4534721   6.6334267
  11.6263857  55.7041740   6.3996119  66.1925659  68.9227982  13.4695644
  66.9992447  68.8266449  12.9633389  65.7067871  69.6125336  13.0173388
  13.0446768  19.1314297  39.5235329  12.9086132  18.3370705  40.0399742
  13.8284874  19.5309753  39.9006729  57.8374519  61.3902855  29.2548561
  58.0943642  62.0137329  29.9342251  56.9851341  61.7036095  28.9521751
  23.0859203  54.8612862  86.9032822  23.0462418  55.2612839  86.0345688
  22.1931763  54.9331131  87.2410355  54.9458504  71.0929871  44.8224716
  55.8827744  70.9770432  44.9804497  54.5490990  70.2759705  45.1246338
   8.2531261  54.7806358  47.0044518   8.9691801  55.2445297  46.5705147
   8.3525887  54.9995728  47.9309540  71.4545822  70.2847214  71.7811584
  72.2096329  70.3929520  72.3594513  71.6127396  70.8979874  71.0634460
  41.6107101  34.0028839  77.4001083  41.6661606  33.7242813  76.4860306
  41.2308426  33.2522278  77.8566666  57.0491066  36.4062462  82.2070618
  57.4826775  37.0738106  82.7386703  56.1570396  36.7337227  82.0921326
  16.6371727   2.4949219  82.4160156  17.4097786   3.0588200  82.3795395
  16.0255699   2.9630828  82.9843445  40.9319229   1.7132372  22.9835720
  40.6285210   1.2683299  23.7749233  41.7930679   2.0589538  23.2183914
  45.6304245  23.8669758  81.8452606  46.1422958  23.4688244  82.5493164
  46.2828751  24.1443768  81.2021561  36.0711937  39.8419037   4.6566396
  36.7525444  39.2353210   4.3667316  35.2503471  39.3824387   4.4796309
  10.3893757  10.7044134  41.4668770  10.5239973   9.7568064  41.4791489
   9.5690384  10.8236094  40.9882622  56.0778313  56.4657555   2.2555592
  56.8913498  56.3601990   1.7623299  56.3365974  56.3563194   3.1705978
  23.4468689  50.3329773  17.5131588  24.1365070  49.6778755  17.4060421
  23.6631699  50.7765312  18.3333454  54.6433067  11.2064333  26.8216896
  54.7743988  10.6040640  27.5539455  54.7846832  12.0751619  27.1979275
  50.6799660  66.1160660  13.8278542  51.5687561  65.8454056  14.0581360
  50.7997780  66.7733307  13.1423721  17.3771839  57.5215263  78.5132675
  18.2805462  57.2971802  78.7365036  17.0974979  58.1127090  79.2121964
  13.9565411  45.8538628  56.2520447  14.0457373  45.5111084  57.1413116
  14.6398335  46.5205956  56.1826820  72.0255280   7.5174384  60.5163803
  71.8858185   8.3305264  61.0017700  71.1573639   7.1177635  60.4636765
  28.7753220   7.3648615  10.4807205  28.7943592   8.2756414  10.1868677
  29.6967983   7.1269851  10.5833206   1.8140281  21.0847588  68.3197937
   1.7791328  20.3385677  67.7212906   1.4773780  21.8193245  67.8066559
  50.5460014   5.7559581  77.4499130  51.4365578   5.6247916  77.7753983
  50.2892799   6.6119237  77.7929153   4.5682597   6.3144403  54.1815681
   5.3343883   6.0577292  54.6947708   4.7943492   7.1745577  53.8275719
  40.6564140  11.2274904  41.1153603  41.5897789  11.0318632  41.1977806
  40.2477837  10.7554684  41.8409271  44.5327682  61.7493668   8.9929047
  44.5960770  62.1720695   8.1364317  45.3394241  61.2396584   9.0686493
  54.5906525  16.0164719   7.5293016  54.8175583  15.1348715   7.2334533
  55.0554581  16.1174011   8.3599634  74.9707870  55.3035393   4.7698650
  74.6952057  54.7765350   5.5198998  75.6804657  54.7999611   4.3711143
  50.9087753  18.4787273  67.3222046  51.8072395  18.4033432  67.6436157
  50.7493973  17.6551018  66.8612518  80.7578888  67.5937881  23.4156170
  79.9226685  67.4326324  23.8545628  81.2978058  66.8367233  23.6427193
  51.3721199  10.7035933  70.8048935  51.9743004  10.3175154  70.1688461
  50.5850525  10.1616993  70.7491074  23.0956211  22.7763481  77.7416763
  23.9400597  23.1714821  77.9585342  22.4599228  23.2707119  78.2590942
  26.5698891  52.4332123  35.6038666  25.9247913  52.8134689  36.2000923
  26.6403236  53.0678749  34.8907890  83.2312775   1.3944559  11.9585562
  84.1849594   1.3227147  11.9983044  82.9566879   0.6462107  11.4284992
  33.8240089   8.4945583  53.7166901  33.5564766   9.2921562  54.1733055
  33.1445122   7.8557796  53.9322815  41.0763016  19.9751377  88.7420349
  40.7769775  20.7066326  88.2020798  40.6871414  20.1368771  89.6014709
  85.1445389  31.4360409  46.5501404  84.8637466  31.7081108  47.4238472
  84.9111328  32.1715050  45.9837074  54.0880966  51.9733772  30.0751896
  53.2928658  52.5038071  30.1249695  53.7713852  51.0724068  30.0105591
  84.4224548  61.1651077  76.7306519  84.7862778  60.5925941  77.4059982
  83.6845016  60.6726685  76.3712769  18.5173912  69.8689728  54.7311401
  18.4473801  69.4963913  53.8522148  18.0141487  69.2721863  55.2850533
  79.8356857  10.5410872  17.6117554  79.0909729  10.0395660  17.9435806
  79.6639023  10.6332502  16.6746159  66.7579269   6.6206975  88.8299408
  67.2822571   6.7917027  88.0475922  66.3585434   5.7659135  88.6684723
   3.7955513  69.1844482   8.1993065   3.3962839  68.6397781   8.8776531
   3.0557461  69.5056381   7.6837888  40.3022003  23.0923805   2.2533650
  39.6472549  22.4794769   1.9192586  40.1444778  23.9008064   1.7657139
  68.0642700  41.3605576  47.6622124  67.6442719  41.9846725  47.0703430
  67.4249268  41.2264671  48.3618507  40.4187469  62.3173714  59.1157150
  41.2804947  62.6104927  59.4118576  40.5391197  62.1197243  58.1869087
  73.8361282  29.3777294   4.4394684  73.5560532  29.8674564   3.6661897
  73.3253937  28.5687599   4.4085979  44.1028061  66.3130264  61.3828201
  43.2669106  66.2381668  60.9224854  44.6824684  65.7022934  60.9275970
  52.6199455  11.3808641  84.4100723  52.3101158  10.4752026  84.4136887
  53.3901558  11.3727846  84.9783554  83.5025864  35.8617783  22.5905190
  83.0967255  35.1305046  23.0560799  84.4391251  35.6644630  22.6045952
   6.1470728  27.4091339  82.6935196   6.6696916  26.6202602  82.8376694
   6.7816377  28.1252232  82.7213364  37.6206818  30.1719246   8.2401295
  37.5570793  30.0896778   7.2885933  38.5370445  30.3974171   8.4003239
  84.8048706  34.5448914  60.7479935  85.1013794  33.6869164  61.0516281
  84.1881943  34.3493156  60.0425148  36.6238976  11.1326389  38.0642624
  36.1225586  11.9478388  38.0826797  37.5211220  11.4074593  37.8753395
  71.2887421  70.6853180  31.2763863  70.9273987  69.7990646  31.2615395
  71.4216843  70.9052505  30.3543301  82.5714111  43.1896400  26.7299423
  83.3848419  42.8841896  27.1315212  81.8866425  42.6696892  27.1506157
   8.5003567  38.0264091  31.7128906   9.2143736  38.3620415  31.1708927
   8.6757383  37.0882530  31.7859745   3.4770157  57.4003258  38.8625946
   3.3241956  56.5832825  39.3372688   4.2930641  57.7410965  39.2288895
  13.6488514  21.6790886  36.1413078  13.4943075  21.6866589  35.1966972
  14.6012478  21.6380844  36.2278671  61.8097229  30.4971104  29.1549282
  62.6169662  30.9852371  28.9926758  61.4680061  30.8636398  29.9704742
  45.5386391  66.7477951  83.8634720  45.9105644  67.5008163  83.4042664
  46.1942291  66.5219345  84.5233383  84.8687592  12.0547819  41.2411270
  84.1102219  12.6232347  41.1080551  84.7317810  11.6714983  42.1074791
  10.3187160  31.9422379  74.9034805  10.4501877  31.9349804  75.8515778
  11.1220102  32.3272972  74.5532227  76.1254654  38.6409035  81.0303879
  75.9935608  38.2721901  81.9038239  75.5929565  39.4362755  81.0232468
  27.8986168  57.5547485  67.1127625  27.9029217  58.5110626  67.0718765
  27.1748486  57.3434868  67.7024765  53.0936012  10.1559277  41.8596382
  52.7042503   9.7315826  41.0950661  53.9781380  10.3904533  41.5788879
  68.2483978   4.3967304  49.7831802  68.2808456   3.5153613  50.1551590
  67.4673691   4.3945398  49.2298012  11.5476961  66.3716125  61.4741592
  10.9651213  65.9190216  62.0840836  12.3631725  66.4860916  61.9621391
  53.2414055  43.0094986  85.2618332  53.0994720  43.3306999  84.3713760
  52.6212654  42.2866402  85.3573990  78.1028900  68.4701233  48.8949661
  77.6015778  67.6834259  49.1095009  78.5733032  68.6816635  49.7013092
  36.5000000  47.5993118  21.6867332  36.2167740  47.7610359  20.7868099
  36.1421700  48.3334084  22.1860256  32.7485847  12.9605179  63.3171501
  33.2893562  13.4302979  63.9520569  32.2998123  13.6501455  62.8280220
  43.3885002  65.1991043  29.8015938  43.7752190  64.3458939  29.9983215
  43.0840759  65.1213531  28.8974304  45.0366287  27.2282658  28.9038124
  44.4231758  27.4506874  28.2035007  45.7763023  27.8212490  28.7715836
  19.2084236  66.7255554  41.1997185  20.0250263  67.1566849  41.4517517
  18.5730343  67.4380493  41.1299744  63.3448753  28.3868370  22.1171303
  62.8167000  27.5886059  22.1268101  63.6805840  28.4410629  21.2223740
  19.5313931  53.3073959  25.4033394  19.0478077  54.0032539  25.8484917
  19.1289921  53.2527847  24.5365505   9.5334959  53.1270103  19.6249542
  10.3160925  53.4048882  19.1489754   8.9442005  53.8797913  19.5771885
  21.6129894   7.7289782  28.0615063  21.8168869   8.3807507  27.3907986
  22.4611187   7.3508234  28.2936821   6.6258879   8.3564062  20.2115097
   6.0093985   7.6244531  20.1910820   6.1410580   9.0662203  20.6326237
  53.0156021   1.9429667  13.5247650  53.5288086   2.4436760  14.1589098
  52.1093597   2.2014060  13.6925917  85.8460236  62.4204903   9.5348597
  85.1048813  62.4037285  10.1403761  85.4452591  62.4721069   8.6671314
  52.5491295  42.1974754  37.3733101  51.6159935  41.9909859  37.3198586
  52.5763474  43.1339226  37.5696754  38.0577927  31.4024239  11.7492027
  38.7507057  30.8135109  12.0480118  38.1604958  31.4298878  10.7979250
  10.1769590  21.5176392  47.7175064   9.4459591  20.9961338  47.3859863
  10.1318035  22.3354473  47.2221451  61.3322487   7.5096226  43.3071365
  61.4023209   8.2969027  43.8470573  60.4356384   7.5277324  42.9724770
  62.5945358  13.2214460   5.1023564  61.7548904  13.0161552   4.6911535
  63.1238174  13.5900793   4.3951058  40.0721359  24.5940170  86.1979370
  40.7399979  25.2620945  86.3524246  39.2412338  25.0604134  86.2890625
   3.2331638   1.2509631  10.2233706   3.1315632   1.7717237  11.0200624
   3.2434824   1.8954014   9.5156813  10.9040489  35.6234779  87.8875351
  10.4887619  34.8928871  87.4292755  10.4831867  35.6373291  88.7471390
  86.6083755  13.0275860  11.3854637  85.9305801  13.4215918  10.8362951
  86.7666168  12.1694736  10.9919729  43.3257523  59.4003792  72.3082199
  42.8865814  59.8091278  73.0540619  44.0937653  59.9498825  72.1519089
  23.7598724  57.3614578  70.8632507  22.9076614  57.7104607  71.1243362
  23.5662231  56.7842407  70.1246414  41.3857498  13.1639347  82.6257629
  40.8721046  13.4297028  83.3885040  41.7795677  12.3296957  82.8810806
  80.2781219  40.9000282  47.0989838  79.8300781  41.4322586  47.7564125
  79.7043304  40.9318047  46.3334885  14.5391350  59.0262146  21.3712997
  14.3099403  59.9425659  21.2163963  14.7160511  58.9790955  22.3108273
  20.1219425  55.2890930  70.9378662  20.7635670  55.3788757  70.2332382
  20.6166821  55.4708138  71.7368927  55.6481400  65.8695145  80.3151932
  56.2963448  65.1657867  80.2864227  55.5198402  66.1145859  79.3988342
  83.3136368  47.6072884  65.7580566  83.5649414  47.8711014  64.8729095
  82.8475189  48.3653374  66.1106644  63.5151520  49.1000862  89.1716156
  62.9143486  48.7796097  88.4988861  64.3771820  49.0706863  88.7565460
  26.4824905  49.7879372  34.0530357  26.2662239  50.5532761  34.5856857
  25.9665699  49.0774002  34.4340820  19.5678844   9.4571705  67.4822083
  19.5298443   8.9222765  66.6893234  20.4209080   9.8892717  67.4389267
  19.6055222  52.1729126  30.1311169  18.9508400  51.9004593  29.4881592
  19.8376255  53.0650406  29.8733139  78.8283463  32.7334366  50.0746727
  79.7712784  32.7105217  49.9116287  78.6350327  31.8888359  50.4815063
  57.7530251  12.3836308  39.7289352  57.7262611  12.9139004  38.9324875
  56.8465042  12.3663921  40.0357780  42.3054733  14.5924511  67.8075562
  42.9275360  13.8719559  67.7067642  41.5232735  14.1835060  68.1778946
  19.6322784  71.4966812  27.2542381  19.1889801  70.7335968  27.6249371
  19.1578274  71.6786804  26.4430637  12.5634661   7.0513654  37.9884453
  11.8676939   6.9164462  38.6318169  12.8305798   6.1676364  37.7356491
  33.4582710  38.2897949   6.9679995  34.4083023  38.2634048   7.0819283
  33.1170654  38.4729729   7.8433604  69.8014908  13.4756050  36.1200600
  69.3504028  14.2322826  35.7456436  69.9559021  13.7166357  37.0334549
  64.6493149  70.2083740  42.7546921  64.4478607  69.5052567  43.3721657
  64.3033447  69.8985367  41.9177132  80.4096985  51.1354599  19.7051983
  79.7001266  51.7546959  19.5340557  79.9799881  50.2805977  19.7332916
  65.4035034   3.4195256  42.2608490  65.8444519   2.5720417  42.2011337
  66.0625000   4.0529447  41.9767036  62.8232193  35.4110069  51.0738335
  63.0834579  35.6739159  50.1910057  63.5634422  34.8986893  51.3991547
  52.1201515  17.4072933  17.6758919  51.8579674  16.5241699  17.9358559
  51.7842674  17.5043106  16.7848225  15.0710697  61.8500481  69.3243790
  14.6826143  60.9929886  69.1489258  15.6367865  62.0155334  68.5701828
  52.7483215   8.7680244  44.0324097  52.9710541   9.2870035  43.2595711
  51.8833923   8.4072647  43.8375320  25.7717171  17.5513687   4.6567307
  25.6808033  16.7216148   5.1252103  24.8756428  17.8763046   4.5689783
  59.1946793   6.3956914  16.4526196  58.8821449   7.1081181  15.8949442
  58.8161736   5.6057410  16.0666885  57.1277199  44.4879227  71.5995636
  57.3779144  43.5750694  71.7421570  57.1540489  44.5978127  70.6490555
  14.1280975  29.4466724  74.5230179  13.9818077  30.0529671  75.2491302
  13.9278603  28.5843163  74.8869934   0.0938642  68.1218567   9.4403906
  -0.3979402  67.5340195   8.8669720   0.4191828  67.5563965  10.1408615
  78.1740265  23.9836712  74.4184570  77.7680893  24.2694378  75.2368546
  77.4667816  23.5537205  73.9376450  37.6906738   5.6253195  87.6969070
  37.7654991   5.2834616  86.8059692  36.9419785   6.2207408  87.6628876
  83.9007187  38.6108131  62.2206764  83.6619873  37.6985397  62.3849907
  84.6992950  38.7450676  62.7310524  28.2244682  58.6644249  21.8936138
  27.8177967  59.2198105  22.5587444  27.6453171  57.9050674  21.8288898
  81.7454300  36.2079887  42.4721603  82.1647720  35.5974312  41.8658524
  81.0726395  36.6421928  41.9477119  50.9658203  65.7481842  57.1393852
  51.9063072  65.7135468  57.3140678  50.8847618  66.3212433  56.3769798
  61.9890709  55.2466507  31.8466492  61.1945229  54.7145042  31.8048744
  62.0826721  55.6069450  30.9647999  62.2017174  65.2104187  72.1233444
  62.9480858  65.5120010  71.6054535  62.5647392  65.0464554  72.9937210
  23.7081375  56.9566116  75.0644531  23.6934910  56.9609947  76.0215378
  24.2146473  57.7339745  74.8291092  14.8195829  28.5555153  11.6671486
  14.3962698  27.7114048  11.5105658  15.7458906  28.3961754  11.4860487
  72.4554596   9.5283070  44.9797478  71.5539551   9.2087879  44.9418411
  72.6995468   9.4477377  45.9017906  17.0805435  64.2100830  71.7654343
  16.2786980  64.6747589  72.0049133  16.9656639  63.9955750  70.8396835
  59.2290764  50.3834534  20.4962101  59.7471313  49.6079636  20.7117710
  58.5982437  50.0766411  19.8449440  67.6612015  11.7834053  85.2274475
  67.9918518  11.5977345  84.3485641  67.3608246  12.6911926  85.1835175
   0.7415432   2.0870674  14.8966751   0.0166446   2.5270684  15.3406935
   0.5210393   1.1567284  14.9422731  77.1286011  45.6057129  57.5073738
  77.6652832  44.8568764  57.7670822  76.3795776  45.5815849  58.1028671
   8.3960743  17.7863350  45.6035156   8.7216606  18.0807934  44.7529144
   8.7885780  16.9216576  45.7239494  71.9211044  70.5186081  53.1934547
  72.5786438  69.8591309  52.9721642  72.2243042  70.8906555  54.0216331
  77.0042725  64.4950943  56.7133713  76.9982758  64.8741226  57.5923119
  77.8777618  64.6905899  56.3741951  25.5217762   5.5203619  25.4430122
  24.6120567   5.3759947  25.7034016  25.4641418   6.0956831  24.6801777
   3.8776646  29.2346745  87.1064911   4.4261355  30.0090027  87.2322922
   4.4572515  28.4971085  87.2970352  65.1182861  39.4950752  48.1591377
  65.3662415  39.5663528  47.2373619  64.1800156  39.6842041  48.1700859
  -0.2379047  11.0451460  47.5280266   0.1255478  11.2003756  48.3998260
   0.3180276  10.3609648  47.1551056   4.3838191  34.4152260  38.8434448
   3.9297457  34.3662224  39.6846619   5.2178931  33.9708023  38.9952393
  11.8380117  58.2026596  71.3427658  11.6935415  59.1331406  71.5147171
  11.4984140  57.7598305  72.1204605  83.0318909  67.9924240  38.0785141
  83.7477112  68.0668793  37.4474068  83.0716553  67.0847473  38.3797989
  54.5391159  50.8806000  37.1370773  55.3273849  50.9307899  37.6777649
  53.8196526  50.8315582  37.7665215  53.6233673  57.4604797   8.6028605
  52.9307060  57.8000565   8.0361681  53.1593781  57.0997047   9.3583632
  69.2616348  59.2499580  58.3349609  68.9222870  59.7054901  57.5645294
  69.3006744  59.9237442  59.0137253  83.8404236  45.0145149  65.6706696
  83.8248749  44.5672684  64.8245239  83.5152130  45.8948402  65.4822769
  69.8107147   9.5243196   2.6182384  69.7046661  10.0017443   1.7954071
  69.5354309   8.6306419   2.4138110   8.7161074   4.1587811  41.9823761
   8.9760056   3.3840327  41.4839287   9.2763882   4.8585615  41.6467781
  23.2355118   9.0593128   7.4451447  23.5205021   8.1740427   7.6716595
  22.2816105   8.9982224   7.3944187   4.6229634   4.4346032  29.1590519
   4.6998858   4.1062799  28.2632179   4.4659710   5.3733573  29.0574360
  78.8541565  28.4566975  42.1197052  78.5162735  27.7026768  42.6029510
  79.4606628  28.8788795  42.7280960  43.1297302  25.2478123  31.1559753
  42.2584686  25.1365490  30.7755089  42.9689102  25.6519737  32.0086327
  42.7215118  39.8585510   2.3715894  42.0071030  39.3496208   1.9883852
  42.5797310  40.7493134   2.0511730  80.0701141  16.0178032   4.8492603
  79.3624649  15.4915247   5.2214046  80.5657501  15.4038229   4.3074088
  79.4177246  51.2314987  79.8989029  78.9614639  52.0687141  79.8144836
  79.7198486  51.2138824  80.8070068  43.6219864  41.6038513  88.0165176
  44.4795380  41.7034035  87.6030807  43.1673851  40.9601974  87.4731216
  34.2255592   3.5525744  74.8110428  34.4292526   2.6209590  74.8937073
  33.4886818   3.5834091  74.2008820  72.2343521  52.8989944  40.6280060
  72.9436188  53.5275307  40.7626038  72.4948883  52.4069862  39.8493690
  17.4758644  68.8748856  24.7360287  17.3645649  67.9254074  24.7843552
  16.8222466  69.1604691  24.0977077  13.9338102  66.4552536  62.8936348
  14.3347073  67.2910233  62.6548958  14.2120047  66.3056030  63.7972069
  61.7624207  -0.1158291  55.0976982  61.9675903   0.5220929  54.4141808
  61.0753555   0.3020456  55.6168785  23.8427544  16.9947948  23.6232224
  24.4898014  16.9318142  24.3257866  23.8474159  17.9193707  23.3754921
  23.2202473  61.0909386  74.7361374  23.1839523  61.3873291  75.6455688
  22.6332893  60.3353882  74.7068634  55.6455536   5.0891070  73.6141052
  56.5318718   4.9229841  73.2930450  55.2972069   5.7554421  73.0217514
  21.6717300  30.0969772  14.2886868  21.7735882  30.5493298  15.1260843
  21.2335377  29.2757416  14.5118313  68.4114380  31.1306210  44.5356026
  69.0471420  31.4703045  43.9057350  68.1599121  31.8930092  45.0568810
  69.2070847  22.5635357   9.8816681  69.0987625  21.6829567  10.2409487
  69.6719666  23.0457096  10.5654974  41.8677597  35.7079697  83.0683899
  41.7581367  35.8485832  84.0088425  42.6449242  35.1536217  82.9980850
  57.2316055  63.3374252  18.0290203  56.4361382  63.8567047  17.9114971
  57.9049110  63.9787521  18.2561626  66.7761078  38.3286285  52.9151001
  67.0432739  39.0894089  52.3992844  67.4356232  38.2639999  53.6058235
  76.2481232  19.4760590  67.4858017  76.4263763  19.6127377  66.5553284
  76.4501648  18.5524330  67.6352234   8.4348450  17.9585648  61.6394768
   8.9939547  18.7338810  61.5893555   8.0291519  18.0113697  62.5048409
  15.9732256  70.1656494  71.3456802  15.8209267  71.0684662  71.0664597
  15.7236814  70.1553955  72.2697220  35.9483070  66.6930618  31.2800331
  35.1222305  66.2673340  31.5093517  35.7972260  67.6211548  31.4590473
  45.6387138   8.2489376   7.0502930  45.4558372   8.0788221   7.9743323
  46.5941544   8.2588959   6.9931107  21.6334057   5.8266292  59.1916161
  21.5750866   6.4805727  58.4950638  22.4743404   6.0011830  59.6142197
  52.6814957  16.1382885  29.3836880  52.6980133  15.3574753  29.9371223
  52.0467110  15.9321480  28.6975498  57.2553406  69.3679428  11.8273058
  57.3058662  68.4312973  11.6365900  56.5153618  69.6789703  11.3058367
  19.8742428  71.3919067  79.2106781  18.9834862  71.1382980  79.4524841
  20.0537453  72.1694489  79.7393036   6.3155198  29.2392101  37.7876740
   6.3922095  28.5025692  37.1812859   5.5522251  29.0283298  38.3253937
  33.3914032   8.2716532   1.5635819  32.8654251   7.4720783   1.5475098
  34.2882767   7.9656825   1.6985987  55.5831528  24.2498875  77.8453674
  56.3811150  23.7225800  77.8832169  54.9305191  23.6689854  77.4543991
   2.8996842  37.7674942  85.0215225   2.8020465  37.4324226  84.1302185
   3.0675504  36.9892464  85.5529251  77.7696075   3.4656124  27.7176247
  77.0255051   3.2967463  28.2955742  78.5030289   3.0115733  28.1325550
  15.7826061  21.6627827  10.2138758  15.9244719  21.5631390  11.1552458
  16.5119514  22.2075748   9.9180880  53.8779793  22.2967529  77.2367096
  53.6289444  22.2269840  78.1583023  54.0772629  21.3982086  76.9737701
  19.4586124  50.6851768  68.9769058  19.5668468  50.4454308  69.8972549
  20.2610302  50.3796158  68.5538406  78.9448013  31.4280987  71.3586426
  79.5066223  31.0185223  70.7007370  78.4166031  30.7084389  71.7040710
  44.7962723  21.5102310   1.7608433  44.6200256  21.6038971   2.6970034
  44.0992699  22.0091438   1.3348093  44.8999138   0.7312007  20.2441101
  45.8344498   0.5558986  20.3542957  44.4668846  -0.0417352  20.6064472
  34.4241257  15.2564449  87.4705505  34.5453758  14.3653059  87.1428223
  33.7234879  15.6179962  86.9277649  20.0614281  14.6707058  75.0578613
  19.3837223  13.9956226  75.0230942  20.5829372  14.4470711  75.8287430
   2.9856873  29.9584332  64.2714920   2.8624256  30.6970348  63.6752434
   2.4430969  30.1705875  65.0309753   3.8133874   1.8253611   3.2055883
   2.8721442   1.6718079   3.1236460   3.9509025   2.6863036   2.8104939
  50.4420853  51.5039215  67.0164337  50.0462837  52.3618584  66.8630829
  50.1214485  50.9601631  66.2968903  11.0539436  19.5800037  69.0261307
  11.3778801  18.7105408  69.2613525  10.7281437  19.9448910  69.8488998
  70.5734024  37.1187286  47.6227074  69.7845383  36.6818542  47.9437408
  71.2810745  36.5011177  47.8070564   1.9470026  24.3036079  52.7191353
   1.7246482  25.0716343  53.2453728   2.1694882  24.6590767  51.8586845
  62.9863663  19.8946037   5.7879457  62.9588013  19.0101604   5.4229350
  63.7514229  19.8925686   6.3631992  35.4663773  27.6111126  85.4644928
  35.3574448  26.9208069  84.8103943  34.6206932  27.6537418  85.9108505
  22.2410202  27.6886654  30.3104973  21.8296852  26.9785500  29.8177795
  21.6895866  28.4515228  30.1367035   7.9103751   3.6678815  30.2341671
   8.3586464   4.4996896  30.3870754   7.2753034   3.8612728  29.5445919
  39.6900330  44.0578156   0.6972569  39.2472115  44.7648773   1.1665158
  39.8059883  44.3955917  -0.1908269  68.0714722  26.2457314  60.2288742
  67.2096786  26.6495247  60.3313103  67.9027634  25.4430885  59.7353821
   9.4347410  65.9293594  47.4846230   9.7507181  66.7423553  47.8788719
   9.1872311  65.3821259  48.2299461  26.9040661   8.4984684   5.6035619
  25.9561462   8.3659906   5.5920944  27.0895519   8.9720068   4.7926440
  13.6282711  43.3276863  40.8104362  13.7440720  43.2504501  39.8634109
  13.5428886  44.2683983  40.9653587  77.9185791   0.8286272  36.7302055
  78.0193176   1.3335924  35.9233017  78.7754822   0.4252350  36.8688622
  72.2432785  31.8060131  19.2362442  72.6671448  32.6540604  19.1043930
  72.8925323  31.2845535  19.7082424  66.0179138  57.5224953  26.2142563
  66.8078766  57.9134865  26.5874958  66.1948166  57.4756012  25.2747154
  11.0116215   8.1024818  31.9893341  11.2395163   9.0217199  32.1282463
  10.4856415   7.8679390  32.7539062  53.9544334   3.9301853  70.6664658
  53.5386963   4.0533204  69.8130951  54.8082542   3.5477979  70.4639816
  45.8030281   4.3389330  26.4993725  46.1259689   5.2272835  26.3484592
  45.7190781   3.9625485  25.6232891   7.6394820   0.6907462  72.6291809
   6.7724175   1.0851098  72.5347977   7.8464751   0.3557047  71.7567520
  14.9989920  30.6175117   4.6076260  14.2817879  30.5972710   5.2412190
  15.3932695  29.7471294   4.6642861  74.7809448  17.1337318  52.1536026
  73.8867493  17.0431347  52.4828949  75.3044739  17.3252773  52.9317207
  33.4392548  60.6571274  46.3961143  33.8095703  59.9120979  45.9227943
  33.8515625  60.6214485  47.2592239  52.3292656  20.4036179  71.8815918
  51.7975121  20.6052113  71.1116333  52.9885826  21.0971279  71.9055862
  40.1683807  12.2642241  68.9258881  39.3357239  12.4527302  69.3587570
  40.3899193  11.3770189  69.2087631  32.1301041  61.6108475   2.8854990
  32.7819061  60.9969063   3.2238252  32.4087334  62.4637756   3.2188346
  72.3479843  48.9046783  15.3432236  72.7446976  48.1473045  15.7736130
  72.2374878  49.5475769  16.0437260  17.6342373  35.9862938  27.0029602
  17.1378517  36.7901497  27.1567421  18.3432922  36.2510376  26.4169731
   6.6445193  56.1831322  20.4480515   6.9485831  56.2413368  19.5422993
   5.6907077  56.2319908  20.3841114  26.2077999  57.6541977  48.1942978
  26.6936550  58.2479630  48.7666817  26.6437187  56.8087044  48.3008156
  12.7617674  33.7530556  34.0841064  13.2988691  32.9814377  33.9042206
  13.1867723  34.1714630  34.8327980  56.0809021  28.5970440  82.4116821
  56.7712097  29.2341824  82.2279510  56.2621765  28.2977371  83.3026276
  34.6907845  11.2861443  80.2558441  34.6768417  10.3790102  79.9506454
  35.5338135  11.6266279  79.9565048  62.8409462   3.2801220  48.5586815
  61.9379158   2.9662693  48.5111313  63.3552551   2.5956478  48.1306496
  74.3035278   9.5956945  32.8390579  74.2094955   8.6669502  32.6273422
  75.2177200   9.7958279  32.6379623  48.5233459  45.7874489  21.6667233
  48.3914261  45.1451988  22.3641052  49.0891380  45.3428192  21.0355244
  65.3961411  47.3227997   8.5958128  65.0526733  47.2194252   7.7083611
  64.6226883  47.2820511   9.1582499  39.0916595  19.1671810  22.8620014
  38.1509895  19.3432980  22.8807621  39.2972870  19.0626869  21.9330082
  44.6046181   6.9293456  78.3521957  44.8557739   7.8139796  78.6178589
  43.7187195   7.0265751  78.0029678  84.7475586  37.5627708  76.4611206
  84.5559006  38.2840919  75.8617935  84.6978912  36.7781143  75.9151535
  57.0494308  44.9182510  39.6969833  57.2629700  44.8250427  38.7685738
  56.2918587  45.5031586  39.7109566  81.3166351  19.3655643  58.2216911
  80.6096802  19.0650043  57.6506233  81.0681152  20.2584648  58.4608574
  60.4678230  50.4710770  48.4689102  60.0728722  50.2274971  47.6317062
  60.0132179  49.9301109  49.1146011  21.2195625  55.6456718   9.7324657
  21.1941242  55.7078285   8.7776241  20.4496365  55.1240692   9.9591274
   0.3328630   2.2467301  74.5838699   1.0135179   2.3160565  75.2532959
  -0.3583719   2.8374214  74.8830490   3.3812325  36.9784508  10.7988415
   3.1453772  37.2404327   9.9089146   3.5415156  36.0368080  10.7367744
  79.6042252  24.4496231  24.5565529  79.3911514  23.5710297  24.2420578
  78.9002304  24.6619339  25.1693687   2.5968649  47.8895645  25.9469318
   1.8297520  48.0667343  26.4913406   3.1622646  48.6513100  26.0746059
  51.3433609  28.4831429  30.7331505  50.6691780  28.0085125  31.2193966
  51.9256592  28.8309841  31.4085503  49.5481949  13.1292391  81.9500885
  49.2139587  14.0045109  81.7540894  50.0652428  13.2433176  82.7475128
  38.1384354  71.0317688  47.2810211  38.4413528  70.4350281  46.5966377
  37.5733223  70.4934921  47.8352203  28.4720440  66.8603210  31.5824089
  27.7420387  67.4781647  31.5425320  28.8567886  66.8872986  30.7063522
  43.9484367  59.1974678   3.2221882  43.0031738  59.0580559   3.2794440
  44.1467972  59.7935905   3.9443519  72.1547699  26.1014957   1.0927769
  71.7081375  26.6665649   0.4623429  72.6203690  26.7071934   1.6694725
  68.3502579  21.0807915  47.3409691  68.2272186  21.1386242  46.3934708
  69.2989807  21.0277824  47.4564972   6.9003983  70.0340118  47.9869270
   6.4110484  70.4443817  48.6999245   6.7007260  70.5703430  47.2196503
  67.8992538  37.4542809  30.0912781  67.8511124  36.5272331  29.8578377
  67.1147690  37.8404083  29.7017632  14.7336645  13.5711994   5.8170280
  14.3322840  12.7405558   6.0722847  14.0316916  14.2151737   5.9106336
   9.2728996  40.3165207  35.5977631   9.5239582  40.3823967  34.6764259
   8.5952873  40.9832764  35.7096252  69.8307419  54.5900726  40.4269714
  70.5994415  54.0255089  40.3457336  69.4815979  54.6487274  39.5376511
  10.2856331  48.7826996  68.8076019   9.8672380  49.3065376  69.4908066
  10.5833998  49.4241676  68.1625519  39.5562172  11.6393232   6.9493179
  38.9444122  11.6212339   7.6852512  39.8033714  12.5602942   6.8659000
  42.0389099  34.7280731   4.4122415  41.4440994  33.9984474   4.5856786
  42.6161880  34.7530785   5.1753650  33.1917839  65.3548279  59.1021194
  32.2615242  65.2973938  58.8840637  33.5131493  66.0951920  58.5875130
  63.2282104  30.6514187  56.9252930  63.4825325  30.1689930  56.1386414
  62.3485718  30.3328362  57.1277199   8.9164667  29.3880234  17.2604351
   9.7247725  28.8789825  17.3216820   9.0943756  30.1816330  17.7651749
  21.1059437  15.8245459  14.3353844  21.5268269  14.9649343  14.3479576
  20.3483162  15.7287397  14.9124928  67.4654999  46.4147072   1.4398762
  66.6168365  45.9731903   1.4726188  67.3773956  47.1484299   2.0482514
  24.3417625  22.2695103  16.9038143  24.2078476  22.5984669  16.0149460
  24.1062565  23.0049591  17.4693985  10.5618830  34.8615685   6.9689078
  10.2326851  34.6549644   7.8436508  11.3924513  35.3108635   7.1255097
  41.4318886  18.0477962   2.8208275  40.7368164  18.5411377   2.3852596
  42.1748695  18.0989742   2.2195027  36.2491608  22.2883949  31.2997265
  35.8817825  22.6672077  32.0983276  35.5936928  21.6526241  31.0126896
  30.2572079  33.7286797  81.9813080  30.9971752  33.7719574  82.5869522
  29.5232449  34.0968781  82.4731979   7.3991318  52.6023216  76.4293289
   7.5843101  51.9608955  77.1152725   8.2057428  53.1121788  76.3541183
  21.3654194  70.9895706   4.3890972  22.0076160  71.3001099   3.7508333
  21.7982273  70.2568207   4.8272572  81.7652740   1.2211088  33.0265503
  82.6854630   1.3242227  32.7839622  81.7856445   0.6921086  33.8240318
  60.1874809   5.7580309  65.0848312  60.0462646   4.9111433  64.6616592
  59.9118195   5.6217675  65.9912949  67.5797729  39.0685387   6.1340146
  67.3435287  38.4666710   6.8398299  66.7410736  39.3501778   5.7686381
  24.3337822  52.3410110   0.3337784  23.9370804  53.1962357   0.4994594
  23.6120224  51.7196083   0.4294626  65.3333435  67.7558670  26.1931477
  66.1835327  67.3488693  26.3598175  65.5350037  68.6797943  26.0451107
  75.0804749  14.5765018  46.7379341  74.8154068  15.2041016  46.0655594
  74.3564377  13.9519091  46.7813416  32.7942085   4.1715331  21.0253220
  33.3674469   3.7765245  21.6822834  33.0501747   5.0937018  21.0074749
  83.5158615  32.8808517  75.6900406  83.4284210  31.9924145  76.0353928
  82.6734467  33.0593376  75.2720642  80.3410187  25.4537106  58.2127266
  80.9312820  24.9629555  58.7845497  80.4832611  25.0790768  57.3434448
  64.9543228  65.2742920  61.8155441  65.7327499  65.0139389  62.3079834
  64.2800522  65.4012604  62.4829788  15.4012976  69.9735641  73.9325180
  15.7796640  70.7822647  74.2775879  15.7377863  69.2869415  74.5083237
  25.7811089   3.8644516  66.0762558  25.5543594   2.9912386  65.7563858
  26.5659542   3.7287321  66.6071320  76.5333481  65.6143951  59.3154602
  76.1510468  66.4481583  59.0417480  76.2011948  65.4784317  60.2028236
  19.8400574  15.5578213  21.4850826  19.2243042  14.8289280  21.5612011
  19.6807556  15.9157238  20.6117210  74.5487442  71.1218033  51.5584946
  74.6820908  70.4285278  52.2048836  73.8318939  70.8032074  51.0099907
  13.3462706  28.5689526   0.6892539  12.6453896  28.0645256   1.1022311
  12.9521379  29.4220352   0.5072021   8.4304886   8.3248196  12.6661186
   7.5194759   8.6051893  12.5784855   8.5071363   8.0408792  13.5770159
  50.9449654  41.2977676  72.0425339  51.6311264  41.2031937  71.3818741
  50.1372757  41.0666695  71.5837631  22.2715549  50.3480721   0.5730596
  21.3454666  50.5508347   0.7052792  22.2736034  49.6620369  -0.0944607
  38.4604187  65.3865814   3.1350219  39.1185188  64.6914978   3.1355262
  37.9482231  65.2320480   3.9287491  57.0200500   7.3688016  28.5287266
  57.8497314   7.8279228  28.6593876  56.9051857   6.8503776  29.3251400
   8.7405653   2.1138861  11.4154444   8.1189604   1.6592748  11.9839230
   8.4592266   1.8927190  10.5276575  34.3222504  51.5029488  85.1471710
  33.3895035  51.6946449  85.2444763  34.3686066  50.9154434  84.3928986
  40.8319740  14.4121952  16.5808830  40.2546692  15.0627403  16.1812096
  40.3981094  13.5746689  16.4179668   0.0966402   6.1969795  23.7941113
   1.0470535   6.1616745  23.9022789  -0.1269440   5.3690624  23.3689117
   1.1418588  14.1579094  17.1213837   0.5967193  13.4651327  16.7484035
   0.5908809  14.5612497  17.7921829   5.2062078  68.6272354  55.1977119
   6.0731039  68.3313675  55.4755363   5.2412581  68.6067886  54.2413712
  26.1122932   8.1135187  86.9473343  26.6865578   7.3813391  86.7229080
  26.6431103   8.6675587  87.5196152  33.4077606  14.0906343  12.4721489
  34.2173309  14.6013432  12.4740448  32.7781715  14.6414728  12.0069342
  83.5900116  44.4003372  57.9147339  84.4979248  44.1224899  58.0360832
  83.5369797  44.6491585  56.9919624  43.9995079   4.2081661  83.4557495
  44.3107033   3.5523307  84.0796661  44.4907227   4.0282316  82.6541519
  85.3864059   5.2271571  62.5151138  85.9178925   5.0234942  63.2847099
  85.9104843   4.9220047  61.7745361  13.6957188   4.4423528  37.8331108
  14.3885212   3.9725747  38.2974014  13.7645254   4.1376252  36.9283218
  85.1331863  29.2683601  73.7242889  85.3598480  28.3936405  74.0400772
  84.7830048  29.1224499  72.8454742   4.9399314  60.7522392  64.2930908
   5.2615967  61.1887856  65.0818787   3.9926045  60.8878021  64.3137283
  80.5170212  70.9514160  16.9505444  80.9160538  71.8198776  16.8977985
  79.8974838  71.0162354  17.6773224  21.3097687  10.5755243   5.7205024
  21.6908398  10.1302223   4.9637179  21.8285236  11.3744478   5.8145604
  59.5465202  54.7095947  35.5253525  60.4205818  54.4057961  35.7702026
  59.6082573  55.6643944  35.5533066  51.0035439  71.4625854  23.3139896
  51.3574638  72.2566833  23.7144623  50.5160980  71.0357895  24.0185966
  26.9009933  38.1706619  27.9383507  27.0286503  38.8577995  28.5923977
  27.4744778  37.4592247  28.2233238  33.3022346  45.1056519   9.8279381
  32.3779716  44.8704033   9.9093332  33.3220177  46.0519142   9.9708672
  82.2954407  34.7896614  77.7127609  81.6894226  34.2219124  77.2366943
  83.1525879  34.3817596  77.5896683  43.8309708  24.8319511   7.6856174
  43.0087814  25.2945538   7.5236325  44.0772057  24.4751701   6.8322091
  25.6240158  60.7346840  56.9034805  26.5416718  60.4949226  56.7744293
  25.1346951  60.0994034  56.3807793   8.4632645  65.9179688  37.7599335
   8.0466948  65.9915390  38.6185875   9.3577862  65.6359558  37.9510651
  85.2437134  49.9850082  65.7592773  84.5299988  50.0681992  66.3916702
  84.8088989  49.9809685  64.9065475   7.3391185  26.4863644  17.2608795
   6.8278317  26.5444965  18.0679970   7.7877312  27.3297539  17.2002716
  24.3100452  16.2180195  76.3219376  24.3344746  16.8899250  75.6406326
  24.9994297  16.4733429  76.9349594   3.1814451  24.6735115  29.6616936
   3.3841028  25.3108730  30.3464813   3.7384965  23.9213467  29.8621216
  16.1624050  37.2675629  29.7882519  16.1103745  36.4256592  29.3357868
  15.2502699  37.5128822  29.9433632  49.3969536  41.8572655  33.0667419
  49.0176163  42.2377281  32.2745399  49.1867485  40.9252090  33.0091629
   7.2638373  65.4884262  85.4948807   8.0656805  65.3875122  86.0078125
   7.5380683  65.9689178  84.7137527  81.1143951  70.5453796   3.1552732
  80.3582535  70.9566650   3.5739901  81.2542648  71.0565872   2.3581908
  12.3189507  14.4460907  42.3902817  12.3372660  15.0374260  43.1427574
  12.3321924  13.5693789  42.7742538  53.0343323  10.3330507  58.2183304
  52.3574295   9.6971598  57.9866486  52.6422882  11.1833496  58.0195198
  31.5614872  47.7380295  84.2569809  31.1799946  48.6117744  84.3422089
  31.3502274  47.4706535  83.3624878  78.6289597   1.2307367  81.3132782
  78.0338440   0.9090380  81.9904556  79.4589767   0.7898474  81.4947128
  15.8966169  71.1183624  56.9105415  16.4589767  71.7988434  57.2805862
  16.4969501  70.4074478  56.6859627  65.6822968  13.2587910  68.5339432
  66.2070084  12.7452841  69.1481247  65.7210159  14.1524286  68.8747482
  75.3706894  34.9765854  66.4981308  74.6405487  34.6696281  67.0356216
  74.9635239  35.2563019  65.6782455  10.7361279  51.3636513  86.8168411
  10.5774546  52.2296066  87.1925812  11.5809317  51.4457016  86.3743439
  21.8312263  14.8160992  82.3677444  22.7369404  15.1252136  82.3867569
  21.4964504  15.0013657  83.2451477  23.3650513  51.8495598  83.5273895
  24.2455597  52.0554962  83.8412781  23.4951248  51.5531845  82.6265717
  71.9525986  32.6970901  22.9741611  71.2867661  32.1092491  23.3310127
  72.6159363  32.7532692  23.6619511  57.9136620  45.3562546  82.0595093
  57.1467285  44.7866516  81.9995422  57.8564377  45.7438507  82.9328537
  80.6421509  17.0150051  88.5898743  81.0624466  17.5044823  89.2969742
  79.9169540  17.5735855  88.3100281  70.7560501  50.5138168  78.0019455
  70.0402679  51.1359329  77.8720856  70.6996307  49.9235344  77.2505417
  83.2459030  13.7001190  45.4679832  84.0526047  13.4862299  45.9367256
  83.3114471  14.6391993  45.2945900   6.4560299  65.8528290  14.5266390
   6.9171658  65.5318451  15.3015928   6.9999814  66.5717316  14.2048922
  75.8555679   0.7023733  84.6966934  76.5494537   1.2757502  85.0222626
  76.1914902  -0.1830626  84.8359451  78.6015625  53.9268570  69.0539017
  79.2952881  53.4989090  68.5520630  78.2850647  54.6236725  68.4790039
  73.3575134  62.7980232  29.4382706  72.7239761  62.2943878  29.9493618
  73.3425293  62.3923836  28.5714016  23.4820004  28.5849056  78.0954666
  24.2296867  28.0682621  77.7950058  22.9026127  28.6324158  77.3350143
  69.1761780   9.3695641  84.5206070  69.9171829   9.0954990  83.9802094
  69.4852524  10.1563730  84.9696426  76.3453293   0.0964138   0.6715883
  75.4553528   0.2755347   0.9750340  76.6480179   0.9301281   0.3116792
  57.0060768  46.2740402  10.3560934  56.5535202  45.4454308  10.5136681
  57.9350433  46.0432739  10.3556681  63.8795395  10.4871845  21.7337322
  63.1649132   9.9190559  22.0214329  64.2832031  10.0143881  21.0058937
  75.4784393  17.9163570   2.4678533  76.0843887  17.2678909   2.1093204
  74.9290237  17.4207573   3.0751054  78.3700562   4.3416533  83.8877792
  78.6975403   4.3758307  82.9889908  78.9348068   4.9443617  84.3715515
  57.9629478  18.2074451  31.2052670  58.3761292  18.9668617  30.7944145
  57.1432762  18.0915318  30.7247143  23.3449764  32.0822105  86.5312576
  23.1380234  31.1579113  86.3931427  22.8493938  32.3243103  87.3135757
  67.7227478  17.4368744  37.2304573  68.5480270  17.8612309  36.9957886
  67.5309677  16.8604984  36.4906960   3.3081355  26.3019295  78.9018173
   3.8903353  26.9803925  79.2438202   3.3577633  25.5963440  79.5467377
  28.9233189  16.9149189  84.5948792  29.6647320  16.9719791  83.9921494
  29.0467091  17.6490936  85.1965408   6.9849601  10.1919241  25.9103355
   7.3862519  10.9863749  26.2625351   6.0597076  10.2672453  26.1437168
  25.4626694  27.1889992   7.4311738  24.5392303  27.1901951   7.6831479
  25.9097710  27.6229858   8.1578007  53.4770508  55.0561028  77.6111755
  52.5742188  54.8827057  77.8777466  53.9734650  54.3097229  77.9469147
  77.1813660  56.9094200  85.0914154  76.2355042  57.0469437  85.1430283
  77.2853088  55.9578819  85.0897751  36.0564690  69.4854660  31.5700512
  35.1995316  69.6339340  31.9698620  36.3476295  70.3556442  31.2975521
  28.4361706   6.6578341  36.2046280  28.4721966   6.8668408  37.1380348
  28.3151245   5.7087440  36.1762009   4.4141054  55.9561958  78.5499191
   4.9139142  56.0743599  79.3576660   5.0389647  56.1497917  77.8511276
  14.8104830  69.7344971  34.4261856  14.5801487  70.3968658  33.7746887
  14.3264351  69.9918365  35.2108536  30.4364643  60.4083977  21.0775356
  29.6411743  59.8773346  21.0360813  30.4747410  60.7119789  21.9845123
  82.5901794   8.7888412  52.2377510  82.5953522   9.6129074  52.7247009
  83.5121384   8.5375147  52.1824646  41.3958931  66.6054077  40.3536758
  41.5240364  66.2409592  41.2294579  40.7134781  66.0587082  39.9642410
  57.8177071  31.8514099  17.7201080  57.1718369  32.4777565  17.3933468
  58.1824379  32.2686462  18.5005684   1.1012574  58.9309387  86.6861725
   0.2823214  59.4256287  86.6568909   1.0864613  58.3960228  85.8925247
  55.5375633  52.0506630   7.9411864  56.4047394  52.0592003   8.3463602
  54.9309959  51.9558411   8.6755657  11.2455959  36.2029953  30.2380028
  10.4714546  35.9674454  30.7493286  11.8804646  35.5137749  30.4333229
  79.9325867  11.6113720  70.1296005  80.4905396  11.0812321  70.6987000
  79.3089294  12.0267887  70.7251740  30.8679886  70.1188965  50.3114319
  31.0491467  69.4928665  51.0124969  31.1950970  70.9540710  50.6456795
  51.3610306  17.7396927  77.3477097  51.7231255  18.4826031  77.8306198
  50.8865204  18.1370258  76.6175003   8.8525496   8.0232954  22.9996033
   7.9927297   7.7659817  23.3323669   9.4535389   7.8398542  23.7216797
  64.1716690  13.6378937   0.7825225  63.4950523  13.8676224   1.4194227
  64.3922043  14.4668894   0.3578277   0.9503381  16.8462048  24.1663284
   0.3709345  17.6074734  24.1348248   0.7873298  16.3868904  23.3425026
  76.3993835   4.9827423   8.9755402  77.1839828   5.2493696   9.4546480
  76.6609268   5.0072122   8.0550909  63.7611237  38.8405762   2.1762064
  64.2839203  38.5484428   1.4294978  64.0449982  38.2825813   2.9002860
  30.1079807  63.5198441  53.7476654  30.1149368  64.3881226  53.3448372
  30.0489407  63.6922379  54.6873589  24.5738888  24.3815079  51.9567719
  24.9663105  25.2140694  51.6939468  24.0144196  24.1371136  51.2195511
  29.4978065  48.4529343  80.0098419  29.5607243  49.2852211  80.4784317
  28.5645599  48.2405586  80.0231094  64.9234619  27.7351170  54.8275833
  65.2320862  27.1760464  55.5406189  65.1722717  27.2664642  54.0309067
  53.9476433  59.8902359  82.0099716  53.5637970  59.2525482  81.4080963
  54.1605988  59.3825302  82.7929840  35.2749825  39.2507248  85.4561081
  36.1780624  38.9638329  85.3205490  35.0573158  39.7396469  84.6625061
  73.7317581  60.4159851  59.6603012  73.3340225  59.5792999  59.4194946
  74.5736771  60.4208412  59.2049026  59.3304443  24.0634956  68.5476608
  58.8642082  24.8614063  68.7970505  60.2527618  24.3192062  68.5345230
  22.9481926  29.3761768   7.8377295  22.7090511  29.3809242   8.7645626
  22.2337379  29.8423901   7.4036393  72.1659012  42.6716881  75.3164062
  71.8258972  43.3352699  74.7161636  71.6112366  41.9061623  75.1662216
   8.6715040  14.6276960  32.9950562   8.0059261  14.7390804  32.3162117
   8.7343197  13.6802130  33.1157303  69.8857574  45.6962624   0.4385125
  70.2838593  45.5974503   1.3033741  68.9585419  45.8520813   0.6180308
  58.0437126  26.7373219  88.0711060  57.8439445  27.4001884  87.4100952
  57.2135124  26.2823830  88.2126236  53.7042122  13.1140480  40.2869759
  54.2155800  12.6785460  40.9689369  53.4136124  12.4036455  39.7150383
  35.3587990   2.6925042  85.0978317  34.4110374   2.6529288  84.9697037
  35.4665489   3.0451229  85.9811707  14.3177891  62.4858551  57.4684143
  14.3408613  63.3417969  57.8962746  14.6746321  61.8825493  58.1202698
  84.9898834  41.5256386  86.4095306  85.5963669  40.8400688  86.1295242
  85.2439651  42.2937508  85.8979874  50.7139626  25.5694084  76.7301178
  50.2125168  26.3378048  77.0027924  51.2008095  25.3110390  77.5127106
  85.0932007  54.4107552  23.5991669  84.1828995  54.1200829  23.6546993
  85.4570312  53.9193611  22.8626957  83.5171432  57.9515762  16.9315071
  84.1975403  57.3058891  17.1222229  83.9792633  58.7897339  16.9183998
   1.8729306  39.8444443  12.5360765   2.2121682  40.1099586  13.3908587
   2.6517818  39.7527504  11.9872456  51.0517387  57.1736641  69.1166077
  50.3172798  56.9129181  68.5608978  51.0466690  58.1303940  69.0869522
  61.9690285  10.9494619  50.7757568  61.5538216  10.4843073  50.0494881
  62.8808136  11.0534058  50.5035858  69.2323837  30.7847137  57.0903816
  69.4335403  29.8553047  57.1997719  69.7503662  31.2229671  57.7655525
  78.3730850  24.0699463  45.2342758  79.0226059  24.0136223  45.9351234
  77.8431320  23.2791977  45.3347473  62.1110344  51.9505730  64.1298370
  61.8408051  52.8674545  64.0795212  61.5416336  51.4985390  63.5071983
  85.9364929  28.6472683  44.3374252  85.1014557  28.2775764  44.6242409
  85.6943741  29.3231640  43.7043571   2.4598813   2.2801523  12.7238379
   1.8551487   2.6640270  12.0888805   1.9029382   2.0180604  13.4568825
  12.5810156  42.3486252  80.9317245  12.7910099  41.7584114  81.6554489
  13.2736177  43.0090065  80.9525375  67.5925903  35.7641296  69.6867828
  66.7017441  35.4140816  69.6966019  67.8893509  35.6385422  68.7854538
  69.5504684  34.5626411  23.1737499  68.8173141  33.9473991  23.1597977
  70.1556015  34.2291908  22.5112877  51.6752396  20.5148010  79.1635666
  52.2458496  21.1340008  79.6187897  51.3108635  19.9683914  79.8599167
   3.2917454  20.7725964  85.7446823   2.8867683  21.6180840  85.9380188
   3.0680544  20.6035748  84.8294601  49.0347862  21.5706978  27.2838402
  49.3688049  20.6777935  27.3697720  49.3217468  22.0117550  28.0834351
  71.9782486   3.3991113  50.3699684  71.6906128   2.5836256  49.9595070
  72.7187271   3.1424377  50.9195518  71.3363342  53.1865082  19.4978485
  71.4838409  54.0346375  19.9163513  70.5947647  52.8109665  19.9724827
  16.8268127  52.6567726  21.1319885  17.1351433  52.7224617  20.2281914
  15.8746500  52.7294159  21.0661030  23.3329697  53.0414925   6.6121669
  24.1729050  52.7864342   6.2304769  23.5672588  53.5543785   7.3856578
  36.0718460  45.1356773  78.9340973  36.0340118  45.5112267  79.8137360
  35.1703186  44.8746071  78.7461548  69.7959366   0.0824724  28.4019508
  70.6873169   0.3777983  28.5875549  69.8418427  -0.2750994  27.5152340
  64.6208878  56.6280365  16.2262764  65.1933594  56.9335480  16.9299583
  65.0582962  55.8489494  15.8828754  75.8422623   0.0974933  46.8681831
  76.5923920  -0.4933091  46.9351616  76.2022247   0.9640256  47.0573425
  50.6212044   6.3259840  34.8040619  50.3158875   5.4205918  34.7468109
  49.8312111   6.8339219  34.9888268  47.0186958  69.1346664  21.5986061
  46.8208466  69.8032608  22.2544041  46.1733398  68.7277298  21.4088593
  84.4683533  58.1159363   0.0326962  84.7806396  58.9408379   0.4045080
  85.0342636  57.4487305   0.4210382  85.1365509  31.0236568  35.9524841
  85.6364899  30.2075100  35.9666252  85.0288010  31.2224426  35.0223732
  20.6619587  64.6560974  45.5813675  20.0178375  63.9556618  45.4777794
  20.1801701  65.4570084  45.3748360  46.2357788  43.2516975  66.9190063
  46.7912254  43.9192085  67.3216782  45.3482742  43.4799271  67.1955490
  50.4082184  55.5708466  81.9180832  50.2049675  55.9870987  81.0804367
  50.1856384  56.2314453  82.5740509   3.5107358  20.9315853  83.2147675
   2.8987730  21.3893223  82.6383896   4.2898483  20.7939415  82.6760025
  11.7548981   0.2074400  34.1293449  12.4755535   0.0294381  33.5250244
  10.9772463  -0.1209897  33.6780968  10.4084730  21.1352425  87.2645645
  10.2061777  21.1966801  88.1981277  11.1757126  21.6956654  87.1483612
  27.1900501  56.5051689  64.0100327  27.6620121  57.1583023  63.4934120
  27.7482471  56.3541451  64.7728195  52.3666458  56.1630936  10.4865398
  51.8268890  55.8437996  11.2096920  52.0792503  55.6525497   9.7295837
  78.9463425  49.3967133  71.8048706  78.7696609  50.1109734  71.1926193
  78.7199936  49.7553215  72.6630020  77.7486649  69.8267441  65.9407654
  78.6045151  70.1984406  66.1543198  77.9450684  69.0906982  65.3611984
   3.5399888  36.9001274  51.4975586   3.7894697  37.2950706  52.3330307
   4.1762123  36.1972847  51.3654137  15.9861059   0.6060687  75.2264557
  15.3032503   0.4334873  75.8746490  16.7950382   0.6489753  75.7363739
  49.0952225  51.7547569  50.2670326  48.6816788  52.2971497  50.9386139
  48.4688263  51.7506485  49.5432587  35.3090706  29.8674736  79.2634125
  35.9716721  30.1141720  78.6181793  34.5539207  30.4168701  79.0533066
   6.5111151  47.3588409  82.6461029   6.6758823  46.5038681  83.0437317
   5.6794777  47.6430893  83.0253296  10.3233004  69.8117447  15.3697109
  10.1911287  69.2509918  16.1341171   9.5667677  69.6361771  14.8101883
  86.6635208  53.0920639  61.3634377  87.5264511  52.9285774  60.9828339
  86.0490036  52.8994064  60.6552849  20.0262451   4.8906422  32.2022934
  20.5222073   5.4764256  32.7742310  19.9653091   5.3620558  31.3714581
  25.8832512  28.9286327  86.3247375  25.3804932  29.5923252  85.8525314
  25.2679367  28.5734844  86.9662094   3.9682593  36.6217308  67.5717316
   3.6540008  36.3016434  66.7261429   4.5484343  37.3504753  67.3513794
  65.8614655  15.3308287  38.1726646  65.1407547  15.4358072  37.5515518
  66.4025650  16.1101246  38.0456200  40.2848358  58.8934784  14.2904282
  39.6652832  59.3253098  13.7022896  40.5686340  59.5846405  14.8887501
  81.2379303  40.7725792  77.1140366  80.3032150  40.5732727  77.0610123
  81.6671448  40.0164528  76.7136841  28.6992741  33.2081947  11.6429338
  28.7271156  32.2691689  11.8264761  27.7834511  33.3828125  11.4261179
  77.8079834  26.6789761  43.8790092  78.0436020  25.9040852  44.3891678
  77.3173981  27.2282257  44.4904671  45.8404961  28.7287445  11.9547186
  46.1649818  27.8619423  12.1988354  44.9012794  28.6926498  12.1358414
   7.1615777  34.2891350  28.7206917   8.0520859  34.1358223  29.0364819
   6.8307300  33.4173508  28.5044384  36.6446381  13.0489740  67.2366486
  36.4560127  12.1586256  67.5331879  36.2347870  13.6120110  67.8933411
  35.9138527  39.9596024  10.2605391  36.4772148  39.3464355  10.7326460
  36.0250854  40.7908936  10.7218571  25.9606514  58.0333672  72.4716873
  25.9171677  58.5331802  73.2868729  25.0666008  58.0535774  72.1303711
  33.4065781  64.6466370   0.6024902  33.1570206  64.1064072   1.3522277
  33.7648048  65.4447327   0.9910139  14.6646948  61.6677513  78.8576660
  13.9085779  61.7474937  78.2761459  14.3687477  61.0847435  79.5567703
  79.9665909  49.0110855  49.3531799  79.9158936  48.0911751  49.6128426
  80.0032043  48.9883728  48.3969498  46.3202744  23.8421173  33.0798988
  46.3905525  24.5974960  32.4962044  46.6263161  23.1034737  32.5536118
  28.0635681  70.7451172  66.0986557  27.6787586  71.3327637  65.4484024
  28.9551277  71.0720215  66.2190399  53.7147636  29.3529320  81.1297913
  53.7975273  30.2526474  80.8137283  54.5803032  29.1413574  81.4795227
  80.8804932  42.8423233  52.7549934  80.6770325  43.7413406  53.0130692
  81.6763153  42.6277084  53.2416496  53.7446747  17.5266209  20.4434872
  54.1575241  18.3229370  20.1093235  54.1412392  16.8195515  19.9345455
  67.1982956  34.9526024  73.0962296  67.7733688  34.9902611  73.8604889
  67.7303543  35.2970161  72.3789215  32.9848824  17.9387360   6.6360731
  32.7781067  18.6589127   7.2317414  32.6187401  18.2111969   5.7946830
  31.2464123  54.1424065  80.8449554  30.6464329  53.8828964  81.5441818
  31.8602867  54.7435188  81.2669220  24.8274803  64.5935440  65.4627457
  24.0580177  64.1900787  65.0610352  24.5026970  64.9641190  66.2833710
  76.6716385  48.6640739  76.3696671  76.0492630  48.3918571  77.0440369
  77.2748260  47.9253235  76.2881775  73.1025467  70.4521790  81.6804657
  72.2939606  70.1809921  81.2458572  73.0213852  71.4020615  81.7662659
  10.6468067   4.2560430   6.8414168  10.9492226   5.0493135   6.3992653
   9.8314381   4.5166373   7.2697825  73.7905045  49.8758163  72.6307220
  74.1546631  50.7230072  72.8874130  73.7937775  49.3595734  73.4367676
  40.5306892  18.5221882  75.1998596  41.2231369  18.0224400  74.7674255
  39.7325630  18.2826004  74.7288818  78.4799652  32.7440948   4.1543961
  78.0270538  33.4962616   3.7731547  79.4094315  32.9583435   4.0742455
  32.6677628  19.3993168   4.0714684  32.4347115  18.6963863   3.4649954
  32.0694618  20.1134396   3.8516994  40.3866959  57.7839546  41.1731110
  41.2336349  57.4513130  41.4702225  40.5429916  58.7111740  40.9940338
  40.5750809  67.1787643  43.6270409  39.9926109  67.9366302  43.5760422
  40.0373001  66.4432068  43.3338127  77.1372375  63.3653603  74.4414902
  76.8994751  62.4809265  74.7198334  76.6850586  63.4832344  73.6061020
  58.0761528  12.8110199  15.8328724  57.5756416  13.2266378  16.5349979
  57.6822929  13.1459637  15.0273180  67.1820831  22.2043724   0.3702255
  68.0099716  22.0146713  -0.0711947  67.3443222  23.0206547   0.8430803
  11.7366657  42.1946945   2.2869003  12.4311419  41.8928146   2.8723941
  11.6328306  41.4852791   1.6527215   2.1712875   7.5799170  50.0483932
   1.3423730   7.1712079  49.7992134   2.0019677   8.5201788  49.9894753
   7.0234308  60.6688576  44.9080353   7.0576019  60.9512138  43.9940681
   6.2913818  60.0530396  44.9412575  28.3380203  66.5577545   9.0897026
  28.0779724  66.4940414  10.0086956  27.5205917  66.7247696   8.6205044
  78.0529556  17.3226795  31.4030743  78.9026413  17.4008598  31.8368454
  77.7122269  16.4769440  31.6943970  38.3540421  27.5306892  21.3790417
  38.4866142  28.2248707  20.7334652  38.0850143  27.9910717  22.1739655
  52.8917732  67.0430450  61.4310188  53.8167572  67.1771011  61.2244453
  52.8722420  66.9324341  62.3816032  81.0375519  39.7320671  51.4784813
  80.5954056  40.5294456  51.7699051  80.3263092  39.1348877  51.2466698
  62.0132065   8.3021822   5.9181619  62.7244873   7.9438119   6.4490852
  61.4412537   7.5538673   5.7474852  56.7123146  49.6217613   1.0905136
  56.4658775  48.7705574   1.4523803  55.9950485  50.2046318   1.3395536
  81.5960464  56.4416924  67.0407257  81.3790512  57.3017693  67.4004745
  81.8665390  55.9257088  67.8002167  22.6875515  29.9210434  73.5206451
  23.5232048  29.5905666  73.8503494  22.4804554  29.3517361  72.7795486
  10.8738451  26.4545784  70.1394577  11.4805260  25.9838085  70.7108994
  10.7656326  27.3090458  70.5570831  32.5232277  57.6512680  12.6190462
  32.6787987  58.1318893  11.8060064  32.3578377  56.7514915  12.3374853
  19.2534485  39.6339340  25.9401798  19.9855442  39.9423332  26.4741802
  19.3881321  38.6887016  25.8721046  18.7302742  68.7126617  38.6885529
  18.0561409  68.1328125  38.3342209  19.2755585  68.9351959  37.9339828
   1.1430783  22.1853199  62.4386749   1.3304708  21.3171558  62.0817375
   2.0029466  22.5936852  62.5391541  65.3508759  45.0975227  82.2938309
  65.3906784  45.9604034  82.7062378  64.9684906  44.5297089  82.9628677
  58.4975586  19.0808792  38.6279602  57.5911674  19.1638031  38.3316307
  58.8805656  18.4241734  38.0463448  70.0305023  28.0359402  11.6300306
  70.5417175  27.2694664  11.3704100  69.7118912  27.8252544  12.5077143
  24.1780186  57.7643890  77.6916809  24.8312664  57.3120499  78.2254333
  24.6910973  58.2505760  77.0462341  72.9455872  48.4620209  62.2583885
  73.5447388  48.4701500  61.5119438  73.2229004  47.7088051  62.7799187
  73.4954300   3.0208478  42.1520233  72.6897659   2.5042286  42.1363068
  73.3028107   3.7469571  42.7452316  65.2806854  42.0511284  14.4188614
  64.5310898  41.5611305  14.7568541  64.8945007  42.8180962  13.9959574
  69.6502609  47.1499290   5.7953901  69.0534058  47.4114685   6.4965286
  69.4242325  46.2371674   5.6164775  77.5711823  39.1320190  74.3637924
  76.6401978  39.2591782  74.5463486  77.9821854  39.0981102  75.2276001
  11.6035633  46.0042953  45.7361717  12.4314270  45.5714912  45.5274773
  11.8379374  46.6710167  46.3817596  34.8245010  32.9022255  22.7347069
  34.0839577  32.3437386  22.9711800  34.6514969  33.1585693  21.8288422
  56.7591782  42.2381020  29.3046303  56.7134247  41.5867882  28.6046810
  56.0613060  41.9882622  29.9102631  63.6267090  14.2244339  84.1442413
  62.9417076  13.5715866  84.2884521  63.5185013  14.8478041  84.8625259
  76.2244415  38.1552887  22.8940868  76.9406891  38.7788086  23.0142651
  75.4527817  38.7023087  22.7473068  75.5114136  52.9979591   7.9326005
  74.8141174  52.4868011   8.3433695  75.2493591  53.9092216   8.0636044
  51.4837837  28.5552845  14.2490692  51.8109589  27.8107014  14.7538290
  51.0674782  29.1210632  14.8993111  42.4610367  35.6054688  20.2667866
  42.0276260  35.5957108  21.1201859  42.9220924  34.7677841  20.2227154
  31.7125683  12.3731289  68.7590103  31.0840397  11.7401094  69.1061020
  31.3426170  12.6414700  67.9179611  25.1668148  39.6751709  75.1451340
  24.5102711  39.4074593  74.5020828  25.3347054  38.8852959  75.6590805
  56.0364609  31.2201004   3.2079704  56.6337814  31.9083595   2.9151571
  56.4795647  30.4038773   2.9763033  57.1543503  53.2527390  59.4892006
  56.4537506  53.8728714  59.2871361  57.2715111  53.3240814  60.4365196
  79.2586746  47.4934349  82.0635147  78.8644638  48.0123253  81.3623810
  80.1418228  47.8502808  82.1580429  10.4190865  12.3422508   6.3788371
   9.9050646  11.5487738   6.5285287  10.9451933  12.4400883   7.1724815
  85.0521317   8.6735744  16.0786495  85.5726700   8.6675520  15.2753849
  84.2502899   9.1391706  15.8409529  74.2182388   7.9613395  37.3647919
  74.8754425   7.7883220  38.0388756  74.6093521   7.6271496  36.5575905
  55.0303268  16.9680119  12.8548632  54.3101006  16.3814316  12.6237154
  54.9094048  17.1392937  13.7888184  10.4150858  68.9678192  46.0157204
  10.3310299  69.0900955  46.9613495   9.6831474  69.4604645  45.6445084
  84.7646942  31.2779789  64.8544540  84.4614944  30.9959469  63.9914589
  84.2342453  32.0492592  65.0544128  45.8327179  15.8639870  64.2042465
  46.5304108  15.3958998  63.7456055  45.5266685  15.2466154  64.8686371
  59.3098259  32.7483406  28.0967007  58.6847649  33.3096390  27.6379223
  60.1364403  32.8811531  27.6326942  37.3263092  58.1136322  21.9093761
  37.3772469  57.8375473  20.9942722  36.4527321  58.4951515  21.9961739
  57.5701790  54.1631889  32.4299583  58.4837608  54.0901680  32.1537971
  57.3875809  55.1025467  32.4076920  79.2739105  11.7029963  78.8625107
  78.5827332  11.0446434  78.9337540  80.0499802  11.2756901  79.2249451
  73.7112274  34.9766464  38.0765419  72.9729691  34.6675262  37.5515175
  74.3918381  35.1816521  37.4354744  42.8149147  67.9117737  51.6133804
  43.4363708  67.5813980  50.9646301  43.3114357  68.5607529  52.1119080
  78.8528061  66.7559509  61.8324165  78.7924423  67.5413971  61.2886734
  79.7204895  66.3992233  61.6424294  29.4398994  48.5718727  72.4228363
  28.5055428  48.6847038  72.2482605  29.6077499  47.6473732  72.2401962
  35.2243118   5.6625757  35.1401176  35.7323418   6.3736615  35.5306206
  35.4020729   4.9061766  35.6991272  14.1068668  34.3350296   1.4564289
  13.3732233  34.6000862   2.0111749  14.2424822  33.4105492   1.6642228
   2.0808702  29.0900955  55.4187241   1.6042111  28.5549259  56.0532494
   1.4766586  29.8003254  55.2025490  67.9650192  40.1165047  83.3769379
  67.2113266  40.5414162  83.7863617  68.5920181  40.0011253  84.0909348
   2.1527030  30.9919739  16.7064800   2.8771381  30.3665886  16.6885929
   1.4158543  30.5159664  16.3234615   8.7964163  61.4692116  67.2801971
   9.2670193  61.5506706  66.4506607   9.4333200  61.0804100  67.8797073
  22.7207336  61.7168922  46.5380669  23.2627220  60.9279518  46.5452461
  21.8258171  61.3936462  46.6423187  86.0208054  44.2644882  52.0577240
  86.8264542  44.7812195  52.0454178  85.9650497  43.9290504  52.9524879
  82.0140152  69.8099670   6.1638789  81.0642624  69.8749466   6.0639720
  82.3460999  70.6504669   5.8484297  36.5560379  56.8906517  78.9576797
  36.8155365  57.7692947  79.2349625  37.2353439  56.3171425  79.3124466
  52.3024483  12.2423573  17.5486679  52.3632126  12.8951759  18.2460690
  51.4271622  11.8676014  17.6469936  55.5497322  10.8915300  47.2519455
  55.1756554  11.5688314  46.6884193  55.2306976  11.1061602  48.1285210
  37.2292633  12.2079821  79.3515854  37.4530716  12.8230257  78.6531143
  37.9086800  12.3390999  80.0129776   8.8194685  57.1439743  62.3507500
   8.9230175  57.5048828  61.4702644   8.7655954  57.9119339  62.9195747
  37.6414642   4.3737912  42.5507317  36.9092522   3.8894644  42.9322090
  37.6317329   5.2176480  43.0024452  52.0897255  41.1751480  25.1938515
  52.5694199  40.6297455  25.8172779  51.1992950  40.8240623  25.2040997
  46.5085564  26.0690594  26.1853085  46.8351097  25.8322525  25.3172550
  47.2845421  26.3667831  26.6601143  53.6776657  60.5702057  22.6793842
  54.0230446  60.0687561  21.9408092  53.7977180  61.4850845  22.4247875
  57.9005013   1.8199791  14.2227564  57.7486763   1.9339868  13.2845764
  57.4401855   1.0102025  14.4432135  62.5867119  27.0693989  61.3243256
  61.7591171  27.2926025  60.8983040  62.3286896  26.6818733  62.1606712
  32.5726967   8.4625988  34.7252998  32.3943214   9.4026251  34.6976585
  31.7088032   8.0533352  34.6760483   9.5004320   2.7148707  69.0361481
   8.6547709   2.9540820  68.6568527  10.0834942   3.4344959  68.7944717
  19.9503670  34.2253609  24.8495064  20.7673092  34.1680641  25.3450394
  20.2218704  34.1725616  23.9331379  11.1327362  53.8701096  44.5249023
  10.2103081  53.6152039  44.5444412  11.6018629  53.0956650  44.8353691
  62.6054497   4.8836317  18.2263813  63.2180099   4.1660147  18.3877201
  62.0280113   4.8818388  18.9897881  66.7692032  51.9165497  55.4347496
  66.2668304  52.1586304  56.2127304  67.5320206  52.4944878  55.4528084
   7.8367381  59.1229782  26.9347515   7.5170760  58.8049927  27.7791042
   7.0484190  59.4058113  26.4712963  26.9463329  10.6211052  20.7178307
  27.0554409  11.4291134  21.2192783  27.6954880  10.6058502  20.1222076
  70.9784241  48.7118568  56.1150551  70.7106094  47.9442444  56.6203041
  70.4375000  48.6798859  55.3260002  11.7489252  54.3299904   0.4679397
  11.0319319  53.9048042  -0.0025601  11.3143797  54.8951492   1.1066835
  25.9507408  10.8675833  70.6134415  25.2808666  10.3141451  71.0149536
  25.8553696  10.7151995  69.6732788  81.0655136  47.7981606   6.4482040
  81.3718262  48.1906357   7.2657394  81.7151184  48.0632973   5.7970929
  46.7482986   1.6245464  69.7855759  46.9310493   1.8072956  68.8639297
  46.7606316   2.4838209  70.2071533  42.3064232  50.6404343  30.6336269
  42.0825958  51.3800812  30.0687809  42.0008888  50.9014626  31.5023880
  22.3708172  19.7817612  80.0741501  23.0305138  19.9625854  79.4045715
  21.5599136  19.6516743  79.5824738  39.4766960  15.9630432  54.5183067
  40.3059883  16.4157219  54.3647308  38.8828850  16.3204460  53.8580933
  49.3325768  70.3396149  45.9431915  49.0064278  69.8204269  45.2081337
  49.5371666  69.6944199  46.6200180   5.3326912   1.6221411  88.9550934
   4.8093987   1.1412380  89.5962830   4.6880088   2.0694897  88.4069138
  30.7519550  15.1900587  75.8890915  30.0894833  15.4565926  76.5265274
  31.1847916  16.0060673  75.6380692  84.5799561  22.6494179  85.7966080
  83.6499481  22.4309425  85.7366562  84.8205490  22.4277821  86.6961746
   5.6617165  65.9037399  76.4278259   5.8843985  65.7115173  77.3386993
   6.2706351  65.3721848  75.9150925  50.5897942  34.0762405  29.2602673
  50.9194565  33.1798019  29.1973896  50.2233543  34.2579308  28.3948536
  43.2989693  27.5459538  23.7694893  42.9216499  28.0079861  23.0208988
  44.2342491  27.4943371  23.5724678  49.7707596  51.2217560  16.3099728
  49.6859856  50.2948418  16.5333023  48.9437752  51.6126671  16.5919571
  16.8135281  60.3771973  51.1162949  16.7148323  60.6041183  50.1916313
  16.4300079  59.5033531  51.1907196  85.3687592  35.5190392  18.4025803
  84.7719116  36.1629181  18.0212288  85.5496140  34.9077301  17.6885624
  65.3444214  37.2978516  60.7627296  65.8971176  38.0792961  60.7525558
  64.4527512  37.6339493  60.6721916  72.1082916  52.2341690  29.1227360
  72.0464096  51.2877083  28.9938221  71.3577805  52.5902443  28.6471634
  15.7973576   1.9073950  31.8001213  16.3687305   1.9569161  31.0337582
  16.2172222   2.4723194  32.4488144  13.8864775  31.6594410  62.9209862
  14.1277046  31.4792461  62.0123749  14.0170851  30.8260059  63.3732681
  25.9821491  44.9910507  75.6118698  25.6975346  44.8272438  76.5109711
  26.7240658  44.3999100  75.4840317  78.0323486  52.9730492  63.8885574
  78.9280014  53.3061790  63.8332214  77.9148026  52.4673080  63.0844193
  72.7841568  57.1013641  47.2345886  72.0608902  56.5063667  47.4323273
  72.3683167  57.8501320  46.8072052  19.5031300  14.8841028  17.6546822
  18.6937332  14.5043106  17.9965401  19.2313976  15.3609734  16.8704700
  15.3827324  57.9365501   4.4081736  15.0084972  57.8085175   3.5365160
  16.3280907  57.9659882   4.2609882  11.9977570  24.6177444  17.0511875
  12.5480328  25.3467236  17.3375740  12.5052528  23.8353748  17.2670059
  44.9586449  59.4765434   0.8129151  44.3752365  58.8420677   0.3966123
  44.6691895  59.5056953   1.7248353  44.1695633   1.5086092  87.9301300
  43.9407883   1.7219894  88.8347626  44.2025757   0.5521771  87.9106445
  49.0642929   2.2415884   0.7026410  48.5692787   3.0146856   0.9737729
  48.9577942   2.2102799  -0.2481003  86.1582794  22.9768562  40.6788025
  86.4707031  22.0755520  40.7579994  85.2240295  22.9251118  40.8806267
  35.1704903   2.6449184  19.7511444  34.9599304   2.9860198  20.6203671
  36.1243362   2.5648692  19.7498627  60.5838699  68.7824783  75.6413116
  60.4253960  69.5339203  76.2126770  60.2605591  69.0607452  74.7844238
  14.0543633  68.6398544  11.0008965  14.5449991  68.7269287  10.1836300
  13.1548481  68.8673630  10.7656469  55.6879616  61.4926109  86.4721756
  54.7387886  61.5604172  86.3687210  55.8337669  61.5885124  87.4133377
  30.2868137  53.4869766  17.0050678  30.3052483  52.5339470  17.0923672
  30.9298782  53.6774178  16.3221092  31.6250286  69.0675201  70.4710922
  31.8188972  68.5668335  69.6786575  32.0736504  68.5922546  71.1704483
  43.3831749  60.1127472  46.9032478  44.1946335  60.0818939  46.3964767
  43.4873657  59.4282150  47.5641518  59.2192268  17.2608032   4.0455999
  59.6335716  16.7498550   4.7409282  59.7452164  18.0585003   3.9886181
  32.8000603  54.9353867  69.6209717  32.7653236  54.2402649  70.2781067
  33.6924400  54.8954544  69.2770233  18.7922878  44.2332878  82.8939667
  18.2574444  44.6756821  83.5531082  19.4597721  43.7691917  83.3992538
  75.5060120  39.9817314  66.3380432  75.6034775  39.7918053  67.2711334
  75.9649277  39.2657814  65.8986816  31.3101673  32.2600060  85.4381027
  31.1550350  33.1852303  85.2480240  30.7767239  31.7909603  84.7964935
  75.5854721  51.5265121  19.1399364  75.3290253  52.4413643  19.2561512
  75.5830841  51.3956947  18.1917210  70.8685150  14.3356762  57.5158615
  70.8667450  14.7441378  58.3815346  71.7556000  13.9902534  57.4158287
  54.2764549  65.5368958  68.5734940  53.6832352  66.2845993  68.5009308
  53.7529411  64.8559189  68.9959106  38.0798912   9.0494041  39.0440598
  37.2852020   9.2494583  39.5387154  38.1227264   9.7312641  38.3736420
  84.8143845  61.5430870  54.2934647  85.0021515  62.3325195  53.7857475
  85.6625595  61.1085663  54.3830719  39.5680580   0.2650739  80.5576706
  39.1340942   1.0942650  80.7585449  40.2841988   0.2101036  81.1904068
  31.6899605  25.8604870   2.4347818  32.6276779  26.0002918   2.5665929
  31.3453865  26.7287407   2.2258940   6.8050251   2.5768962  79.9373627
   7.3992205   3.2711809  79.6525269   5.9620800   3.0154717  80.0528107
  31.2161884   4.7021213  78.7628937  30.6671371   4.6177521  77.9833679
  32.1125183   4.6455474  78.4318008  34.1120949  21.4495716  11.1686525
  34.1421509  20.5983448  11.6053925  33.2416039  21.4847126  10.7721167
  13.3466845  40.9576035   4.3053737  14.0116549  40.4096146   4.7222137
  12.5138006  40.5720558   4.5771995  33.2400589  14.0564489  35.9407043
  32.8112564  13.7190580  36.7271690  33.4219246  13.2779093  35.4143639
  83.3649826  41.8889198   2.5434070  84.1517410  42.3023224   2.8988504
  83.6333313  41.5619431   1.6847395  78.6677094  11.2708311   6.9781322
  78.2411270  11.9603243   7.4869084  78.1089325  10.5031681   7.0993443
  15.3733940  17.2249279  30.4384346  15.7354031  16.4279575  30.8257561
  14.4325771  17.0578423  30.3820477  57.9040184  39.0611038  86.3913345
  57.0344467  38.8601646  86.7373199  58.2039986  39.8045044  86.9143982
  66.4964676  45.4310379   4.5605111  66.8937759  46.2991486   4.6295147
  65.5915604  45.5584526   4.8453670   6.7918081  62.9629478  11.6847305
   6.2984858  62.4449005  12.3207283   6.3120136  63.7890587  11.6249981
  51.7955894  24.5471668  84.0670624  51.0219917  24.7101364  83.5274200
  52.2673416  25.3800449  84.0671539  32.4713440  56.3297310  81.8836212
  33.0398750  56.5215950  81.1378403  31.6209431  56.6927834  81.6361465
  38.7996368  18.7323742  82.4233170  38.3563309  18.5569611  83.2533417
  38.1525841  19.2074566  81.9019241  72.2338486  28.3304405  27.9683952
  71.8675079  29.2141819  28.0004063  72.9279327  28.3825474  27.3113022
  13.7978449  70.2580261  61.7582512  13.3826275  70.1837311  62.6175003
  14.7320099  70.1438446  61.9329834  20.2832317  65.3562622  25.9653282
  19.4364395  65.7911072  26.0657463  20.1844864  64.8181229  25.1799068
  66.6994247  61.0704613  82.3171844  66.5341492  61.1945000  81.3825531
  66.2612457  61.8100853  82.7381210  73.0272980  51.3735771  38.2139282
  72.4040909  51.2979736  37.4913406  73.8834610  51.2421608  37.8065491
  63.6496315  36.5487862  58.2780075  64.3455734  36.7117119  58.9146805
  64.0382767  35.9413795  57.6485291  65.7335052  58.6951828  29.0244198
  66.6558304  58.7427254  29.2759743  65.7456055  58.3393211  28.1359119
  43.9901428  23.1025009   5.4290156  44.2969894  22.2275162   5.1913648
  43.0654755  23.1074390   5.1816368  11.7798786   0.4450871  28.7395191
  11.9021387   1.0026248  29.5079174  11.6285257   1.0583090  28.0202961
  81.9617767  41.3010139  67.0773392  82.7833862  41.3323441  66.5872269
  81.8674011  42.1805191  67.4431229  51.1871490  68.0928802   9.8645124
  50.4281921  68.2876205  10.4143248  51.6069221  67.3460846  10.2914906
   0.7280369   6.7199960  53.2165031   0.4052473   6.0373960  52.6282043
  -0.0387264   6.9771557  53.7285347  57.5586319  68.1822281   0.9667742
  57.3262901  67.9084625   0.0794750  58.2415047  67.5678329   1.2359116
  63.4681549  47.8666039  81.5207367  64.2336044  47.7236938  80.9640503
  63.1218681  48.7133446  81.2390442  17.8253307  65.6284637  16.4721317
  18.7396202  65.8379822  16.2813225  17.5650272  65.0313721  15.7707329
  35.7384109  64.8646469  53.0606079  35.9424362  64.1804733  53.6981964
  35.1320190  65.4462433  53.5191612  22.1353664   6.4255919  38.9319878
  22.9779835   5.9857473  39.0449753  22.3641796   7.3233194  38.6912346
  39.0020180   7.5356679  76.8626785  38.0793686   7.2810268  76.8525085
  39.4754066   6.7288575  76.6597214  17.2120285   8.5556707  86.0669479
  17.9045391   7.9085684  85.9330826  17.4508190   9.2840910  85.4936981
  48.8099327  50.5108185  29.7300720  47.9647217  50.8645744  30.0070381
  49.0260429  51.0004272  28.9364643  35.4972420   1.0123876  62.6844101
  35.7653580   1.8491011  63.0642204  36.0677490   0.3664708  63.1009979
  39.4349251  33.7632637  28.6018124  39.7638474  34.3946266  27.9619522
  39.7911491  34.0623970  29.4383869  41.9406700  65.1903610  57.2546921
  42.7821999  65.6382751  57.1684875  42.1001816  64.3122406  56.9087257
  41.5968475  67.6173859  65.0268936  41.1931381  67.3481140  64.2018204
  42.5241089  67.4051056  64.9203339  55.8615227  13.5931549  62.3358192
  56.7191200  13.8215551  62.6944160  55.3507538  14.3997936  62.4042397
  34.3219452  27.1507626  18.5884438  34.8592415  26.3734646  18.4356346
  34.9369469  27.8060188  18.9180603  16.0167198  17.5593109  48.2280083
  15.8091831  18.3928566  47.8056793  16.2869682  17.8004742  49.1140327
  23.0864964   5.9388170  21.0087967  23.2374382   5.0041776  21.1498566
  23.8026733   6.2133393  20.4361191  58.5760040  37.8709183  84.0050125
  59.4571609  37.4981232  84.0336685  58.5141869  38.4008636  84.7997284
  60.3630943   7.8883266  37.4690514  61.0553246   7.8389668  36.8097992
  60.4342346   8.7739506  37.8251991  85.6256714  62.3154259  28.4438744
  86.3220444  62.2035599  29.0910149  84.9770050  61.6497192  28.6725502
  60.3004189   1.4042447  56.8186073  59.4555855   1.6404921  57.2015877
  60.9433022   1.6613995  57.4795189  48.0103378  10.3762093  66.9809875
  48.6621628  10.9714413  67.3511963  48.1851082  10.3849611  66.0399246
  84.6548843  61.2436905  89.3532181  84.9453125  60.9636917  88.4851837
  83.6993561  61.2464371  89.2967453  17.4039783  55.5324478  43.2764320
  16.6164207  56.0091095  43.0141754  17.3514061  55.4899483  44.2312431
  17.8757153  13.5374813  36.0187073  18.2786427  12.8646145  35.4699516
  17.0113087  13.1862679  36.2324409  58.1736984   4.2963576  15.0790005
  57.8214760   3.4126165  14.9733038  58.5864258   4.4918923  14.2377796
  62.7123375  56.6972580   7.4706478  62.6830406  56.9728966   6.5544615
  63.4609146  57.1670532   7.8382835  49.3365593  29.0173664  61.1760292
  49.2980385  29.7511883  60.5626373  50.2720337  28.8510933  61.2921219
  19.3867340  14.4991398  80.6720886  20.2484322  14.5857210  81.0797806
  19.0194626  15.3826847  80.6983795   0.8809311  55.1158371  21.6952648
   0.8976082  55.2848587  22.6372757   1.5837128  54.4816780  21.5532341
  41.9815216  41.3057671  74.2718582  41.4828491  40.5256729  74.0289383
  41.4227142  41.7606583  74.9019699  62.0419083   3.7592578  36.9777985
  62.4688644   4.6038413  36.8342018  61.5230179   3.8851893  37.7722321
  13.1294174  23.7474041  31.7490654  13.7666025  24.4154110  31.4960957
  12.4067345  23.8596840  31.1315269  82.5257339  23.7149200   4.1472335
  81.7115097  24.1338577   4.4260793  83.1772690  24.0108013   4.7829947
  72.1612549   9.1286077   6.8552256  72.0878601   9.6774540   6.0744481
  71.3893204   8.5634661   6.8241496  77.4155655  65.6299896  48.3194351
  78.1497574  65.3446121  48.8632660  77.7359467  65.5461426  47.4213486
  64.4649277  70.4493332  70.6181412  63.9297829  70.3427734  69.8316956
  65.2745209  69.9775467  70.4226837  49.4214172  12.2794189  75.7227325
  50.3134232  12.0746737  75.4423141  49.3243484  13.2155228  75.5480347
  68.4447250  42.6993561  69.1497421  68.5930710  41.9091949  69.6692276
  68.4452515  43.4106903  69.7902451  44.2206726  61.5844803  44.4267921
  44.7055626  60.7948990  44.6669350  44.6945572  61.9367218  43.6734047
  37.1368904  20.2593708   0.2242870  36.1972847  20.1642971   0.0682942
  37.2625847  21.1978016   0.3649198  39.6448936  69.5469818   1.1425173
  39.3249359  69.1443176   0.3352258  39.7244682  68.8184967   1.7583220
  31.5869255  18.3272991  36.9697571  31.1357212  17.6090546  36.5261688
  31.0175323  18.5491772  37.7065010  71.5068512  49.8548431  60.2219238
  72.1774139  50.4408340  60.5729141  71.5221863  49.0964012  60.8056717
  69.2297058  48.0753937  61.2557831  69.7917023  47.4875145  60.7510185
  69.5130005  47.9576721  62.1624908  47.4299660   3.0721126  75.5252991
  48.3201447   3.3139184  75.2696686  46.9019852   3.8412642  75.3111191
  51.8708725  15.1328373  87.5058517  51.9363022  15.3825436  88.4275894
  51.1724396  15.6864901  87.1567154  84.9894257  36.7661934  26.6113663
  85.2875214  37.4187813  25.9777241  84.0362091  36.7656746  26.5242062
  77.3227768  22.0332375  58.0836220  77.4385147  21.0897427  58.1961060
  76.7019653  22.2817287  58.7685204  12.4372091  57.1655235  23.8375263
  13.0386744  57.2097359  23.0942116  11.9344387  57.9785118  23.7874870
  79.9963760  12.7592020  36.5882607  79.1896210  12.3098612  36.3363342
  80.1724777  13.3594513  35.8637466  51.9265633  66.7303696  30.2259350
  51.6132965  65.8278809  30.1658306  51.2292252  67.1956940  30.6879196
  34.2231750  61.2215042  78.2216415  34.5932007  61.2670403  77.3400269
  33.9026527  62.1070366  78.3928986  44.4346886  14.8023281  57.2337990
  43.6174469  14.6968069  56.7467499  44.5171089  15.7473888  57.3614616
  38.3240204  41.4079208  22.1698780  38.7292480  40.5719299  21.9393520
  37.4023361  41.3001251  21.9351234  73.1464005  68.1772842  35.9607773
  73.7929611  68.8588715  36.1441956  73.2687683  67.9744263  35.0333557
  83.6321487  24.3398571  67.3079224  83.3670883  24.1957188  66.3995209
  82.9253387  24.8650303  67.6832123  85.1075287  53.7750244   9.3491001
  84.8577042  54.6079788   8.9490957  84.9314499  53.1217957   8.6719580
  35.4358940  48.8468018  14.5516224  35.0100060  48.6268692  15.3801651
  35.9510384  48.0700798  14.3335381   9.3012047  46.2928085  18.2719936
   8.9283180  45.8983650  17.4835777   8.9784765  45.7465515  18.9887085
  32.0575104  67.2057953  25.0750370  32.2552757  66.8344727  25.9348278
  32.6945457  67.9119873  24.9668446  32.9838371  53.1405869  24.6249771
  32.4154739  52.8793449  23.9004459  32.5985641  52.7217751  25.3946457
  60.6521683  60.4459419   2.1808205  60.3968048  59.5570068   2.4274323
  60.1912994  60.6078720   1.3576505  48.3638611  58.8092346  44.2088966
  47.7441177  59.0702248  44.8900948  47.8618774  58.2268028  43.6387939
  64.5501480  19.7284985  67.1231079  63.8736839  19.2421341  67.5943527
  65.1121445  20.0848675  67.8111420  54.5565987  32.3182831  18.7515488
  54.1685028  31.7318516  18.1021538  55.1988754  32.8294258  18.2591610
  49.7568245  10.9945364  47.9170494  49.4417000  10.4209566  47.2185249
  49.2601051  11.8049097  47.8039131  76.6406097  30.3203964  49.5530891
  77.2352905  30.0345287  48.8596458  75.7778397  30.3327408  49.1387215
  62.0366364  23.2510014  82.5340500  62.8522224  23.6718197  82.2620773
  62.0776596  22.3765240  82.1469574  12.3212519   4.3455191  10.9516859
  12.2083817   3.4095192  10.7861671  12.9087887   4.6424842  10.2568169
  30.4617348  63.8585052  61.5346451  29.5429821  63.5935249  61.5783310
  30.5537682  64.5179749  62.2222939  29.7727680  67.1437149  48.6775856
  30.0351944  66.2345200  48.8215752  28.8507004  67.1702042  48.9331665
  63.9649582  40.6214676  88.3347244  64.6658325  41.1834259  88.0042572
  63.8465004  40.8959770  89.2440338  50.9982872  11.6901827   3.8701198
  51.9315376  11.5693884   4.0452766  50.7135696  12.3319025   4.5207844
  40.4398499  12.6480856  13.3580914  39.7922554  12.6401415  14.0629272
  41.2168999  12.2420168  13.7421894  26.8739433  51.5437393  84.5100174
  27.5815010  51.1608200  85.0286407  26.1194305  51.5460205  85.0990295
  62.3282700   4.6409588  27.5492554  62.1658707   4.0112243  28.2516041
  61.4744530   4.7618384  27.1337910  67.3083420  17.9017601  32.6239624
  67.6989365  17.4331474  31.8863487  68.0249863  18.4263210  32.9810104
  65.7357254  23.7228279  17.3618011  66.6299515  24.0541935  17.4442139
  65.7436447  22.8915787  17.8363457  -0.1422988  25.9012184  17.7946415
   0.7376482  25.8643322  17.4197216  -0.0161146  25.7005825  18.7220325
  46.7002144   8.2981339  86.5099945  45.7920227   8.2389135  86.8064957
  46.8808250   7.4431920  86.1192398  42.2651405  64.2883530   3.2344546
  42.1264877  65.2332687   3.2987435  42.8142395  64.1791229   2.4580603
  83.8411102  15.6869459  61.5461578  83.1640244  16.1968708  61.9908562
  84.2323532  16.2997837  60.9235878  21.6359787  28.6963387  26.2033596
  21.4285507  29.3193073  25.5068588  20.7988377  28.5369625  26.6392822
  72.3867188  66.5591507  20.8216648  71.5881271  66.5255127  20.2950134
  72.4379730  67.4667969  21.1212902  72.9828720  16.4666424  78.1262970
  72.8076477  16.5939884  79.0586624  72.3021240  16.9731522  77.6832886
  73.9012299  32.5828323  32.9384003  72.9570923  32.4636040  33.0414810
  74.0066605  33.5175438  32.7611122  54.9055748  23.8237038  26.4573727
  55.0332718  24.0287666  25.5311584  54.4204521  24.5726089  26.8038197
  57.8219604  17.1320419  84.2356949  57.8978691  17.2785912  83.2928314
  56.8801346  17.0640907  84.3924637  56.6988411   8.7572937  60.4907570
  56.4010201   9.6669121  60.4794350  57.6540871   8.8179131  60.4826393
  82.3448944  16.0599861  12.1017323  82.8898621  16.2650833  11.3420086
  82.9624405  16.0017338  12.8307543  39.3158379  27.0191841  83.8421555
  38.9752769  27.3729019  83.0204926  40.1636314  26.6418934  83.6073608
  11.3835983  37.0573845  68.2762070  12.1175966  37.1621323  67.6708145
  11.5531559  37.6939926  68.9706268  39.5610542   3.1986613  58.0083466
  40.1243095   3.3744128  57.2546310  39.3909149   2.2576587  57.9659500
  65.1639557  19.0732002  25.4080181  65.5982513  19.9201298  25.3063831
  64.5294800  19.0419292  24.6919899  55.7354202   2.6475742  84.8067703
  56.5055046   2.7027702  84.2409515  55.1653976   2.0118580  84.3741379
  21.2571983  19.5858898  71.2788467  21.2302437  19.6397400  72.2341537
  21.4424801  18.6647644  71.0960159  19.6238136  23.3608093  12.1579227
  19.6122360  23.6313114  11.2398119  19.5762081  24.1805992  12.6497650
  81.9170914  65.4743652  34.7782059  81.3521881  66.1281738  35.1900978
  81.3331223  64.9832306  34.2002831  38.7865257  44.3921738  22.1131821
  38.1875916  43.7071800  21.8160362  38.9669533  44.1726036  23.0272198
  48.7686424  63.9653397  13.7117519  49.2552490  64.7295914  13.4029360
  48.6553650  64.1166534  14.6501045  63.0179520  14.4224224  76.9778671
  62.6391869  13.6043177  77.2995453  62.3552284  15.0854921  77.1711807
  62.8720284   9.1881399  36.9477425  63.2225838   9.4205933  37.8075714
  62.1180420   9.7663965  36.8321800  58.5218773  22.7102203   8.8720026
  58.9036446  23.3583794   9.4639263  57.7084122  22.4441910   9.3006477
  62.3943253  19.5781136  36.1147957  63.2619019  19.9055576  36.3521156
  62.1266899  19.0446777  36.8631592  49.8714600  63.3748474  60.8871269
  49.4697037  63.4465942  60.0212860  50.6678314  63.9023857  60.8261032
  20.0579720  11.1941338  56.5779381  20.2265968  11.9868088  57.0873146
  19.9020329  11.5100126  55.6879158   6.3948970  38.2841911  23.0575771
   5.7017269  38.9327087  23.1807442   7.1331000  38.7854881  22.7111893
  57.9996300  28.4489803   6.0855470  58.5236015  29.1931133   6.3821149
  57.0970497  28.7667713   6.1097875   4.2664685   4.4274297  39.8105659
   3.6310167   5.0667129  39.4884605   5.1144233   4.8590431  39.7060928
  17.6070290  63.0344696  75.9000244  18.4746876  63.3345375  76.1708755
  17.1806087  63.8175926  75.5520020   1.7245436  11.1364412  21.1708031
   1.5725005  11.8382826  21.8036804   2.1609938  10.4497261  21.6749516
  48.5123138  50.8175011  39.5954170  48.2433968  50.3743019  40.4000854
  47.9283180  50.4675369  38.9225807  82.6609497  27.7020874  51.7329330
  83.0509949  28.4561005  51.2907143  82.1795883  27.2432575  51.0444527
  64.7548904  66.2945709  71.3794250  65.0927277  66.3780289  70.4877167
  65.3786163  66.7811279  71.9183731  15.7726431  47.7232399   5.3531113
  14.8358068  47.6193352   5.5197663  15.8169479  48.2140007   4.5324874
  17.0570164   5.1874561  35.2561073  17.6464176   4.5848184  35.7096100
  17.3533459   6.0578904  35.5221214  45.3492546   0.6240348  40.6295395
  44.7637100   0.2077177  41.2620354  45.0717964   0.2769320  39.7817383
  31.8980236  67.9993057  14.8470716  32.8273392  67.8583298  14.6661663
  31.7257042  68.8881683  14.5365009  61.9911537  45.8973694   0.7518360
  61.3411407  46.5132217   0.4135480  61.6312599  45.6052856   1.5893307
  58.9000320  64.0129852  85.9843292  58.1743774  63.7204628  85.4328842
  58.6456070  64.8906403  86.2693100  17.9095078  16.2621651  76.0641403
  18.4160309  16.8872318  76.5827484  18.5298958  15.5625963  75.8593140
  68.6406631  26.2069798  26.2482910  68.8477249  25.3695583  25.8334637
  67.6985703  26.3131752  26.1163349  24.1993408  19.7429543  30.4295349
  24.1781483  20.2829285  29.6394634  24.5842628  20.3105373  31.0973034
  29.5351868   8.7666035  75.7083435  30.1351624   9.4363499  75.3801651
  28.7553177   8.8543863  75.1603241  84.1716080  14.2496881  20.0942268
  84.4064713  13.4562120  20.5753384  83.7073135  14.7892265  20.7341938
  54.2247314  30.9333687  70.4802780  53.5940247  31.0222263  71.1948090
  54.3127289  31.8186283  70.1270065  60.5730400  43.3503189  64.8273315
  59.7286148  43.0993423  64.4529114  60.5611763  44.3074455  64.8248291
  28.6338024  71.3383484  73.4225082  29.5379028  71.3526611  73.7365646
  28.1140251  71.1284561  74.1984024  54.6573372  62.2710915  66.6609344
  54.4474640  61.7220802  65.9054413  54.2709885  61.8109703  67.4060898
  84.0161743   7.8233638   5.1738563  84.1165314   7.0505548   5.7296672
  83.2435760   8.2693081   5.5209322  79.3621216  65.1315460  71.9999619
  78.8770828  65.6717758  71.3761673  80.2679291  65.1652908  71.6923752
   6.5402150  51.9454575  68.6625900   6.6210051  51.4121971  67.8718109
   6.4498115  52.8417130  68.3388901  65.0537109  43.6202507  58.2450829
  64.6160507  42.8367233  58.5778961  65.7321014  43.8092918  58.8933830
  46.0381889   2.6731577  42.3581200  45.3752251   2.5786169  43.0420609
  45.9030609   1.9167089  41.7873688  30.1500530  61.2092247   8.5964899
  30.3828373  61.4984207   7.7142148  29.9987316  62.0200424   9.0821905
  53.3573189  22.3420620  82.6313477  53.0046616  21.5681076  83.0705032
  52.8175583  23.0652924  82.9504471  56.6344147  15.2774811   5.6311440
  56.3755112  16.0313168   5.1011133  57.2846260  15.6256456   6.2412577
  84.2585526  64.8132477  63.7013626  84.7952652  65.0368500  64.4617386
  83.4952164  64.3682632  64.0695038  32.7280617  69.7757950  78.3128662
  33.2645950  69.8798981  79.0986938  32.3082619  70.6278915  78.1948624
  77.4203720  20.0573063  64.8053589  77.1027679  20.4444695  63.9895973
  77.9721680  19.3271275  64.5250168  62.9944572  44.1397858  18.0101986
  62.9546776  44.9911919  18.4458103  63.9105072  43.8733559  18.0882931
  57.6100540  32.9266510  42.7011375  57.8394318  32.4070053  41.9306946
  58.4131508  32.9509811  43.2214012  46.6996841  63.1085205  65.0739517
  47.5367699  62.6447525  65.0531769  46.2007179  62.7347870  64.3476028
  12.5235682  60.4961929  23.9547653  12.0503483  60.1901398  23.1810570
  12.0564613  61.2871513  24.2238960  25.2617760  53.1233711  43.3152504
  24.5051022  52.5580673  43.1599808  26.0147095  52.5342865  43.2672539
  83.4830017  25.7511196   2.1029928  83.5494843  25.8252926   1.1509898
  83.2092590  24.8464451   2.2542090  67.5265732   5.9610906  22.8098240
  67.2186661   6.8651042  22.7451363  66.9699173   5.4743943  22.2019615
  59.5802765  53.7074509  88.6004028  58.7849236  53.1760559  88.5648193
  60.2137451  53.1597099  89.0640106  53.8433418  48.0112267   8.9120626
  53.2512131  48.4944954   8.3358097  54.7147942  48.1743164   8.5512190
  10.3739195  20.3276711  40.9103127  10.2776852  21.2706718  40.7771912
  11.3013878  20.2080383  41.1145744  59.6750526  57.3255882  35.2684441
  58.9474411  57.6533241  35.7970276  59.5905342  57.7854881  34.4332314
   7.3378172   1.8158064  57.6470528   7.8518844   1.0475085  57.8954163
   6.5684414   1.7832062  58.2155838  75.7367783  65.8614197  33.6610184
  75.0354309  66.3734589  33.2583199  75.7637863  66.1644440  34.5685844
  65.5560989  56.4435577   8.3443127  66.0940475  55.7152405   8.0338411
  65.1586914  56.1201439   9.1528292  69.5372086  48.5039597  18.4000835
  69.1761246  48.9244995  19.1804657  69.1652985  48.9967995  17.6686325
  82.2765732   6.9145770  83.7730865  82.8778076   6.6016002  83.0972137
  82.7672272   7.5953884  84.2335052  23.8301697   6.5882788   8.2642879
  23.6358948   5.7967167   7.7623730  24.7861538   6.6205816   8.3000879
  18.4317722  67.9379959  80.5337524  19.3373146  68.2476349  80.5149689
  18.0607033  68.2323151  79.7019348  62.7274170  43.6804428  43.1226463
  62.7039604  43.1861076  43.9419861  63.4948349  44.2464027  43.2062683
  43.7768135  36.2147408  88.7765274  43.6449242  37.1012611  88.4404984
  43.0233459  36.0599785  89.3462372  62.4084396  57.7276764  68.2267838
  62.5503464  56.9935455  68.8244019  62.7762184  58.4836426  68.6844788
  68.4192429  55.9527931  54.6854095  69.1717606  56.4963760  54.4520226
  68.2690582  56.1370430  55.6126251  55.1807899   1.6249439  50.0778275
  54.8877335   0.7464530  49.8357468  54.5999947   2.2127805  49.5947571
  26.5519772  48.5455780  77.2352142  26.1005669  48.9598846  76.4998169
  27.2357826  48.0139771  76.8277359  16.9643269  55.2250175  80.9470673
  16.0548306  55.5211754  80.9104767  17.2903175  55.5554466  81.7841949
  82.3643875  23.6773319  46.1863480  81.9663315  22.8294678  45.9890938
  82.4960709  23.6653481  47.1343689  15.2444172  18.6104259  27.8760242
  14.9516525  18.9899616  28.7045593  15.9875011  18.0566406  28.1155663
  85.4650497  26.0923729  46.4232254  85.6752243  26.9444180  46.8054199
  84.7883453  25.7329006  46.9968834  13.5944481  25.1872139  84.8253098
  14.4749765  25.0332756  85.1676559  13.0731735  25.4100647  85.5965652
  21.4620094   3.0249996  59.9766159  21.5241985   2.6821785  59.0850792
  21.6211205   3.9642966  59.8836784  84.6979523  41.0790024  24.9394245
  84.2822495  40.2851028  24.6030445  84.5676346  41.7286987  24.2486706
  67.8221054  18.8804684  44.2223625  68.1041641  19.7030296  43.8222809
  67.4539185  18.3753948  43.4973984  45.2280273  50.5231819  71.6884232
  44.3463173  50.8745689  71.8123169  45.4881287  50.8296967  70.8197250
  47.7149162  56.4207230  47.7730293  47.4943962  55.9162788  48.5560608
  48.6696854  56.4863625  47.7914162  57.3658257  57.5374107  43.1535530
  56.9541245  57.2882195  42.3261261  57.9857445  56.8309822  43.3349304
  86.8110527  71.6277476  89.1724595  90.0000000  90.0000000  90.0000000
