QMMM reactant CHA#2 frame 54144
 55680
  17.5062237  39.2950439  37.1562271  17.6265240  40.2708740  36.9251671
  16.5554829  39.2388687  37.4924355  18.1770840  39.0888939  37.8825531
  17.7940826  38.2578049  36.2149048  17.0995369  38.2855453  35.3752975
  19.3039436  38.4333763  35.7483482  19.5186119  39.4797058  35.5310555
  19.9965858  38.1939545  36.5552101  19.6221771  37.5538750  34.4621544
  19.6303902  36.4970856  34.7290535  18.7986507  37.7615776  33.7789497
  21.2342625  38.0081635  33.6441231  21.0523624  39.5725327  32.8057823
  20.7565212  40.3606033  33.4982567  21.9974880  39.8473625  32.3374825
  20.3176479  39.4735680  32.0067215  17.6803913  36.8872528  36.8483887
  18.0833397  36.7846565  38.0274200  17.0411472  35.9354172  36.0993347
  16.7140694  36.2320709  35.1909752  16.9954166  34.5411072  36.5323029
  16.7146416  34.5628166  37.5852966  15.9602327  33.7741699  35.7400780
  15.4852314  34.3348846  34.9350510  16.3204975  32.8657875  35.2572174
  14.8527632  33.2740440  36.6478577  14.0724955  32.9131241  35.9777679
  14.5000534  34.1524849  37.1882591  15.2294416  31.8127689  37.8062935
  14.9880543  30.3959961  36.6923294  15.0979557  29.4850006  37.2806358
  15.6633959  30.3694229  35.8371620  13.9565887  30.4688454  36.3475494
  18.3693047  33.8311462  36.4736595  19.3056889  34.1033134  35.6727943
  18.4283428  32.7791138  37.3303909  17.7059345  32.6503448  38.0243988
  19.6026592  31.8260784  37.3963776  20.4903622  32.2346878  36.9135513
  19.8986588  31.4781780  38.8324165  19.0677357  30.8654404  39.1820297
  21.1306896  30.6496525  38.8357353  21.0132351  29.6420403  38.4369659
  21.8897610  31.1541672  38.2379265  21.6053925  30.6149731  39.8163261
  19.9144650  32.6710930  39.7979126  18.9710999  33.1963539  39.9471207
  20.0561256  32.1748352  40.7579994  21.0704994  33.6296959  39.5195656
  21.2823830  34.1697578  40.4423561  21.9490147  33.1641350  39.0728378
  20.6624470  34.3215904  38.7827721  19.2815819  30.5642624  36.6576042
  18.1798611  29.9904881  36.7714500  20.2414818  30.1726227  35.7392159
  21.1123772  30.6684303  35.6134529  20.0315971  28.9280815  34.9117966
  19.3024063  28.2619896  35.3729897  19.4065857  29.3675766  33.5269814
  20.0474644  30.1072311  33.0471001  19.4487534  28.4530125  32.9354591
  18.0001392  29.9157619  33.6628265  17.4777622  29.2219830  34.3215332
  17.9912376  30.9037571  34.1231422  17.2871590  29.9158096  32.2743149
  17.9273453  30.4134674  31.5458889  17.0163479  28.8977661  31.9944077
  15.9913912  30.6921139  32.3023491  15.1799612  30.1856441  32.6266594
  15.8613958  31.9770851  32.0383224  16.7850075  32.7324486  31.6253242
  16.8582230  33.7342796  31.7305622  17.5726757  32.2959709  31.1679821
  14.8668661  32.6616287  32.5555801  13.9939060  32.1837349  32.7278099
  14.7690496  33.5950661  32.1824532  21.3401623  28.1463776  34.7971764
  22.4059105  28.6329021  35.1632576  21.2754345  26.8487301  34.4980049
  20.3737259  26.3959332  34.4533272  22.4771900  25.9401321  34.4944687
  23.3611717  26.5241241  34.7506599  22.3485661  25.1343250  35.2171288
  22.8083687  25.3080025  33.1223373  21.9526043  25.1744862  32.2049141
  24.1044617  25.1084518  33.0444336  24.5899734  25.4222012  33.8726501
  24.8800716  24.7991657  31.8735867  24.2057934  24.6033859  31.0398483
  25.7629223  26.0256062  31.4693470  26.3779221  26.3251858  32.3179512
  26.5784206  25.6773109  30.2084942  27.3028584  26.4820900  30.0835209
  27.1834564  24.7787971  30.3297653  25.9487534  25.5485764  29.3281269
  24.9056435  27.2878056  31.1103668  24.2752838  27.0590668  30.2510490
  24.2591286  27.5415306  31.9504528  25.6954498  28.5745716  30.8522377
  26.4804268  28.8035393  31.5729942  26.1164684  28.3995686  29.8621788
  25.0739002  29.4691391  30.8912487  25.6813431  23.4837761  32.1807137
  26.3029785  23.4432201  33.2701569  25.7877216  22.5490437  31.2091999
  25.1982346  22.6084995  30.3912334  26.5414696  21.3426914  31.3585243
  27.0882378  21.4104710  32.2990341  25.5725918  20.1148205  31.5437794
  24.9450722  20.0978622  30.6526928  26.1365871  19.1864319  31.6337986
  24.5599327  20.2884159  32.7665901  25.0720730  20.5360909  33.6963577
  23.8002281  21.0274296  32.5120163  23.8066769  18.9790535  33.0776405
  24.5375862  18.2807808  33.4854240  22.9930840  19.2207699  33.7615585
  23.2232208  18.3872108  31.9265633  22.6887379  19.0291634  31.3588257
  23.5382214  17.1661797  31.4665642  24.5540180  16.4117546  31.8446732
  25.1501331  16.8129768  32.5544472  24.8125725  15.5636444  31.3609810
  22.8409367  16.7174206  30.4657059  23.2894287  16.0734138  29.8299274
  21.9739037  17.2169933  30.3286610  27.4226685  21.0725002  30.1576748
  27.4211502  21.8530617  29.2450886  28.1178627  19.9993782  30.1893425
  27.8347893  19.2849407  30.8447418  28.8226910  19.3541775  29.0798435
  28.0859089  18.9369297  28.3934288  29.3195992  20.1827812  28.5752678
  29.6009674  18.1182384  29.4125481  29.7505322  17.7297077  30.5628223
  30.2071323  17.5508766  28.3216171  30.0951805  17.9641037  27.4068432
  30.8393936  16.2835007  28.3169899  31.1447506  16.1688118  29.3570404
  29.7253857  15.2236109  28.0148869  28.9104309  15.2327127  28.7386761
  29.2658787  15.4909277  27.0633125  30.1781788  14.2425528  27.8713417
  32.0017700  16.2343369  27.3667507  31.9358540  16.8197269  26.2709064
  33.0424843  15.5504951  27.7611504  32.8422508  15.0841351  28.6343727
  34.2512894  15.1356449  27.0407734  33.9484215  14.9810772  26.0051670
  35.2452736  16.2860775  27.1688595  34.7871246  17.2291031  26.8706837
  35.7789650  16.4721928  28.5945663  36.5042877  15.7285070  28.9246273
  36.2763214  17.4398918  28.6601238  34.9931717  16.5886040  29.3409443
  36.4297600  16.0648689  26.4603462  36.7381210  16.9171772  26.1439877
  34.7375336  13.8551559  27.5523224  34.1700020  13.2355394  28.4397144
  35.8079376  13.3561850  26.8912239  36.3117142  13.8917265  26.1987629
  36.4203873  12.0177374  27.1376152  36.2288208  11.6087914  28.1296673
  35.8670425  10.9355202  26.1443157  36.5010414  10.0528631  26.2283459
  34.4679070  10.4632578  26.6428051  33.8843994  11.2331829  27.1476212
  33.9376869  10.2127132  25.7240028  34.6404228   9.6307755  27.3249416
  35.8457222  11.3313866  24.7813034  36.7319908  11.6114941  24.5411549
  37.9186440  12.0126181  26.9399509  38.3661156  12.5583897  25.9434986
  38.6550636  11.2777376  27.8241558  38.1652031  10.7032518  28.4950523
  40.1242142  11.0951405  27.6610432  40.5648918  11.8070946  26.9631672
  40.9632339  11.3569679  28.9006710  42.0228691  11.1506729  28.7499409
  40.8906288  12.8853264  29.1210556  41.3775711  13.4104824  28.2993507
  39.8871078  13.3108110  29.1198349  41.4590378  13.0548868  30.0355358
  40.6339989  10.5329885  30.1598663  41.0103722   9.5163031  30.0467224
  41.0973320  10.9496975  31.0541687  39.5522652  10.3990793  30.1553841
  40.3657799   9.6690311  27.0987835  39.8409615   8.6601562  27.5960121
  41.4165497   9.5062389  26.2473354  41.7694168  10.3705215  25.8618488
  42.1176605   8.3251009  25.7761860  41.4406967   7.5126519  25.5120888
  43.1035881   8.4865580  24.5922871  43.8820190   9.2019167  24.8576221
  43.6145363   7.5286698  24.4948959  42.4394150   8.8354368  23.2769680
  42.0869484   9.8655148  23.3299255  43.2380180   8.7629938  22.5386677
  41.2153053   8.0660276  22.8210850  41.0918159   6.8495684  22.9869652
  40.2642212   8.7069712  22.3644028  42.8678284   7.5537829  26.9083500
  42.8517838   6.3272381  26.9068546  43.3830147   8.1873980  27.8896618
  43.2406235   9.1851730  27.8243084  44.0577888   7.6205583  29.0624962
  43.7161102   6.5880585  29.1353130  45.5450439   7.5258360  28.7277946
  45.6058846   6.7565794  27.9579601  45.9678574   8.4186106  28.2670517
  46.4035759   7.0061307  29.8939381  46.4151344   7.7717957  30.6696472
  45.9644547   6.1304264  30.3718681  47.8508682   6.8076024  29.5759716
  48.2589493   6.2679443  30.4305744  48.0144234   6.0837688  28.7775879
  48.6151505   8.0070753  29.2727432  48.4554024   8.4748583  28.3919697
  49.7396622   8.3750916  29.9421520  50.1012383   7.8428059  31.0976639
  50.9926758   8.1009407  31.4961700  49.4751015   7.1911039  31.5485973
  50.4934654   9.3395691  29.4906998  51.2471275   9.6373043  30.0935707
  50.1904945   9.9552622  28.7496014  43.7506371   8.3325233  30.4244022
  43.7930145   9.5861521  30.4348183  43.6960907   7.5295577  31.4657402
  43.7766685   6.5295577  31.3490887  43.7686424   8.0034275  32.8474731
  42.9972076   8.7529116  33.0242882  43.2999420   6.8617144  33.7361908
  42.2410126   6.7185817  33.5210533  43.8545647   5.9471002  33.5264816
  43.5521202   7.1062851  35.2278976  43.3631630   8.2865257  35.6494980
  43.9292030   6.1508293  35.9562340  45.1274529   8.6192608  33.1694984
  46.0591621   7.9929252  33.5563545  45.2847404   9.9750557  32.9952202
  44.6050110  10.5115862  32.4754066  46.5256577  10.6804504  33.3687820
  47.0085831  10.2633820  34.2524872  47.6108131  10.4177685  32.2395897
  47.7046661   9.3472862  32.0569420  47.2866516  11.0287390  30.8578835
  47.5656853  12.0824184  30.8571358  47.7741585  10.4514551  30.0722752
  46.2101593  10.9517775  30.7051105  48.8753777  10.9419432  32.5432930
  49.2751465  10.3127327  33.1481705  46.2430573  12.1157598  33.6084099
  45.3524971  12.6616764  33.0265961  46.9884529  12.7963142  34.4156990
  47.7219505  12.2732277  34.8722763  46.7387924  14.1934652  34.8886337
  45.7457619  14.2334852  35.3362885  47.7881317  14.4937124  36.0296822
  47.7176819  13.7305574  36.8047485  48.8229332  14.5278015  35.6888962
  47.4789124  15.9277182  36.6143990  47.9238625  16.5833759  35.8659096
  46.4200592  16.1800976  36.5575867  48.1733818  16.3002949  37.9507904
  48.4722824  17.5406876  38.0131912  48.3668938  15.4802485  38.8620110
  46.7055855  15.2366714  33.7065544  45.6749001  15.8731546  33.4971352
  47.8073692  15.3167410  32.9309540  48.5665131  14.7107296  33.2076340
  47.9401817  16.1541386  31.7321815  47.9066811  17.1759663  32.1101303
  49.2495079  15.8086815  30.9819908  49.4924812  16.4949207  30.1707325
  50.0602570  16.1340694  31.6338463  49.5995064  14.4317484  30.4937477
  49.7528954  13.8598709  31.4089146  48.7160950  14.0236444  30.0026951
  50.7926483  14.2510538  29.6584263  51.5013962  15.2502985  29.2972984
  51.0889549  13.0735197  29.4546051  46.7662468  16.0666904  30.7213955
  46.3860321  17.1815796  30.2441826  46.0848999  14.8730040  30.5205154
  46.3956757  14.0017538  30.9260311  44.9822845  14.8672056  29.5581875
  45.0839653  15.7016535  28.8643169  44.8082008  13.5028944  28.8480167
  44.9049950  12.7190647  29.5992432  43.8302765  13.5125055  28.3666897
  45.8525085  13.2004070  27.7597675  46.7837105  13.2133503  28.3261566
  45.5830345  12.2182837  27.3712864  45.8774452  14.2587481  26.6539745
  44.7838707  14.5286922  26.1537418  46.9491119  14.6992779  26.2943211
  43.6604805  15.2126207  30.2504520  42.7899742  15.8738985  29.6568985
  43.4659843  14.9087296  31.5366879  44.2801285  14.5107098  31.9826164
  42.2590828  15.2491493  32.2400513  41.3595047  15.0711365  31.6508408
  42.1895523  14.4745474  33.5756607  43.1323891  14.5911398  34.1100464
  40.9972916  15.0160246  34.5351486  40.0625343  15.1136532  33.9830627
  40.8713341  14.2761364  35.3255920  41.1487694  15.9986286  34.9819603
  42.0202713  12.9133377  33.2219849  40.9588699  12.8406706  32.9848289
  42.6402550  12.6230307  32.3737793  42.3842392  12.0187073  34.3734894
  42.3576279  10.9621496  34.1068840  43.4027863  12.3213663  34.6165237
  41.7971458  12.0990496  35.2883415  42.1118622  16.7476196  32.4834938
  41.0555649  17.3347816  32.1702843  43.2052269  17.4014950  32.8568649
  43.9871750  16.8041935  33.0846405  43.2312927  18.8264637  33.0500641
  42.3646317  19.1883240  33.6032944  44.5686111  19.1393929  33.7206535
  45.4209099  18.6237431  33.2781639  44.8344688  20.1927414  33.6318855
  44.5649300  18.7079830  35.1947174  44.6825676  17.6257515  35.2498207
  45.7331161  19.4543743  35.9219055  46.5797539  19.2856731  35.2564392
  45.4868279  20.4960251  36.1278381  45.8077278  18.9506874  36.8856697
  43.2023811  18.9340038  35.9431725  42.8632355  19.9658833  35.8520393
  42.3876495  18.2743111  35.6446457  43.3989716  18.7277565  36.9952774
  43.2090836  19.5443344  31.6295090  42.5214653  20.5674496  31.5626602
  43.8659477  19.0249329  30.5513611  44.5055275  18.2524414  30.6709366
  43.5625916  19.4968758  29.2149105  43.7855415  20.5489979  29.0376148
  44.5290909  18.7117176  28.3044167  45.5808563  18.9604053  28.4459934
  44.4781914  17.6418667  28.5067482  44.3129311  18.9721947  26.7768955
  44.8668823  18.2641716  26.1605034  43.2767372  18.8523617  26.4605961
  44.5867729  20.4160385  26.3498001  44.8278160  21.3383427  27.0934277
  44.5980339  20.6210098  25.0656624  44.4239693  19.8797989  24.4020290
  44.8465462  21.5237827  24.6870575  42.0873260  19.3163586  28.7740135
  41.4683914  20.2455940  28.2575817  41.4803467  18.1598873  28.9785995
  41.8834229  17.3902588  29.4936733  40.0545006  17.8954124  28.4588413
  39.9394836  18.3329029  27.4671383  39.8270302  16.3814602  28.3268833
  40.3749542  15.7663755  29.0407124  38.7604332  16.2129154  28.4754257
  40.1096916  15.7800312  26.9462719  39.9538956  14.7030096  27.0083485
  39.3934898  16.1543808  26.2148247  41.5450554  16.0589752  26.4223824
  41.8699341  17.0944271  26.3204288  42.3685646  15.6242743  26.9889278
  41.5757370  15.4963884  24.9780769  41.3903198  14.4247723  25.0512905
  40.8868790  15.9661722  24.2760277  42.9380074  15.5585690  24.3819122
  43.2937050  16.5037441  24.3669815  43.5846291  15.0528212  24.9703007
  43.0123749  15.1402750  23.4656162  39.0486908  18.7499866  29.2419624
  38.1387672  19.2945862  28.6475830  39.3321571  18.9934673  30.5068779
  40.1135979  18.4741058  30.8806610  38.4922829  19.8863297  31.3067398
  37.4540977  19.5844212  31.1684532  38.9216118  19.7793121  32.7610855
  40.0026588  19.8998890  32.8311005  38.3381805  20.8573685  33.6085548
  37.2606125  20.8587265  33.4443932  38.5857468  20.5689278  34.6301270
  38.5965729  21.8814678  33.3391953  38.4526215  18.4753895  33.2518005
  38.8062592  17.8089256  32.6581955  38.6055946  21.2987614  30.8368607
  37.5806427  22.0152588  30.6307335  39.8416824  21.8010426  30.6043663
  40.6026840  21.1507607  30.7389507  40.1152039  23.1613083  30.2732601
  39.5412331  23.7708874  30.9711666  41.6095238  23.6335564  30.3269253
  42.0676270  23.2060986  31.2188454  42.1121292  23.1690521  29.4785557
  41.8188515  25.1919212  30.2736740  41.6724319  25.6534729  29.2971325
  41.0794983  25.5022678  31.0120106  43.3248482  25.5699749  30.5892582
  43.4432716  26.6405926  30.7561417  43.7891426  25.0496330  31.4269829
  44.2766914  25.2917843  29.3996296  44.1110001  24.2527351  29.1149864
  43.9629555  25.9935284  28.6268272  45.7140846  25.4154987  29.8146458
  45.9062653  26.4026966  29.9074154  45.9075470  24.9295979  30.6786957
  46.2735786  25.1322021  29.0229321  39.5270996  23.4649525  28.9230232
  38.8071594  24.4581013  28.7297478  39.6630402  22.5788918  27.9809227
  40.2346382  21.7675152  28.1681309  39.1370163  22.6797218  26.5913277
  39.4682236  23.6578293  26.2424545  39.7383804  21.6009693  25.6075211
  39.5014267  20.6233311  26.0272541  39.2762070  21.8583813  24.6545086
  41.2852173  21.8163528  25.4195976  41.4612694  22.8430901  25.0987949
  41.9297676  21.5812855  26.2665920  41.7244225  20.9560184  24.2443848
  41.8563461  19.7456341  24.3889694  42.0727348  21.5913525  23.1725922
  42.2873306  21.0244293  22.3647270  41.8821449  22.5820618  23.1249409
  37.5767822  22.6209602  26.5632420  36.9469414  23.4354477  25.8329678
  36.9104614  21.7223778  27.3605671  37.4934692  21.2368336  28.0272350
  35.4709244  21.6876335  27.5838833  34.9910812  21.4677944  26.6301899
  35.0154381  20.4784069  28.4691715  35.3735085  19.5724792  27.9801083
  35.4913101  20.5175800  29.4490242  33.4316559  20.4395847  28.6392860
  32.9637527  21.2871380  29.1401100  32.6940880  20.2591591  27.3362904
  31.6734676  19.8779144  27.3691769  32.6271973  21.1855869  26.7658901
  33.1064072  19.4904156  26.6827412  33.2109947  19.3084164  29.6357937
  32.1702652  19.3795109  29.9519043  33.4091187  18.3309784  29.1959496
  33.7737007  19.4144955  30.5632668  34.9547234  22.9738884  28.1584206
  33.8971252  23.4296970  27.6540298  35.6538048  23.6311836  29.1473446
  36.3707848  23.1091518  29.6305847  35.3366203  24.9856567  29.5927620
  34.2938995  25.0574169  29.9020939  36.1631622  25.2926350  30.8526745
  37.1917648  25.0310211  30.6044140  36.1894112  26.3602905  31.0706730
  35.8299065  24.5088501  32.2326050  35.6917915  23.4735527  31.9208622
  36.9309731  24.7318897  33.3332291  37.8939095  24.6863918  32.8245087
  36.9020805  25.6861076  33.8592834  36.7306137  23.8562031  33.9505844
  34.4794083  24.9652729  32.7721863  34.2908287  24.7227745  33.8180046
  34.3552170  26.0431862  32.8760147  33.6114273  24.5631905  32.2496529
  35.4105682  26.1007481  28.5197449  34.4778748  26.9450588  28.4134636
  36.4178810  26.0636005  27.7025051  37.0364799  25.2728844  27.8129654
  36.7602196  27.0172348  26.6998158  36.8349533  28.0181160  27.1249657
  38.1187859  26.6860352  26.0375481  38.9062042  26.5068951  26.7696552
  38.0449142  25.8201942  25.3795452  38.5001259  27.8192196  25.1213703
  37.9530144  27.8515682  24.1791821  38.2439613  28.7464237  25.6339931
  39.9951286  27.7790146  25.0122738  40.5479469  26.9271679  24.1802273
  40.6376915  28.7097950  25.5471745  35.7080879  27.1801929  25.6429920
  35.3654442  28.3339748  25.2537823  35.2108231  26.0634785  25.1056767
  35.6197929  25.1809578  25.3777122  34.0280914  26.0673809  24.2160473
  34.1422729  26.9412003  23.5745621  34.1232224  24.7386703  23.4892159
  35.0499420  24.5993061  22.9325562  34.0375023  23.8769073  24.1511192
  32.9670181  24.5560856  22.4121819  33.2853546  23.6569424  21.8846378
  31.9946976  24.3496685  22.8594933  32.7074394  25.7211075  21.4339771
  32.5168762  26.6571293  21.9589996  33.6096687  25.8093147  20.8287525
  31.5588398  25.3917942  20.5050125  31.8571892  24.4726696  20.0007286
  30.6461067  25.2763176  21.0895481  31.4403172  26.3986263  19.4773102
  31.0540657  27.2110767  19.9364777  32.3899879  26.3934097  19.1334972
  30.7700024  25.9659252  18.8579979  32.7027283  26.3432751  24.9753189
  31.7142429  26.7973576  24.3043365  32.5859451  25.9936943  26.2562408
  33.3250160  25.4721928  26.7055798  31.3376350  26.3289299  26.9937878
  30.4575596  26.0050583  26.4382038  31.1830387  25.5725803  28.3472767
  32.1996117  25.5360451  28.7388706  30.2813187  26.2292347  29.3559799
  29.2101536  26.1108017  29.1926327  30.4019051  25.7178650  30.3109970
  30.5799236  27.2696800  29.4840393  30.7415848  24.1482868  28.0889950
  29.7607880  24.2042656  27.6167622  31.3522091  23.6788750  27.3176975
  30.7716751  23.1530228  29.2414169  29.9880428  23.3655815  29.9686337
  30.4332123  22.1784000  28.8897705  31.7548542  23.1281261  29.7113609
  31.1613884  27.8693962  27.1878586  30.0659828  28.3133450  26.9403725
  32.2115326  28.5613365  27.5042534  33.0580750  28.0835705  27.7784863
  32.2540474  30.0506916  27.6202354  31.5819588  30.4339619  28.3880253
  33.7404633  30.3881493  27.9624863  34.3247833  29.7620964  27.2881508
  34.0494423  31.8560276  27.7756481  34.0260963  32.1168442  26.7175674
  33.3142700  32.4545441  28.3136101  35.0943985  31.9409008  28.0739079
  34.0983124  30.1460896  29.4059544  33.7512436  30.8544941  30.1581554
  33.5851555  29.2125034  29.6365738  35.6080971  29.9010010  29.7198257
  35.7731133  29.2930355  30.6093464  36.2223511  29.4854126  28.9210281
  36.1880379  30.7815247  29.9963245  31.9206276  30.5578747  26.2663345
  31.2314796  31.5932865  26.1100636  32.3051453  29.9366055  25.1241646
  33.1153030  29.3463860  25.2481918  32.0492439  30.5502396  23.7982597
  32.3112373  31.6078873  23.7692680  32.9253197  29.8648396  22.7012920
  33.9672966  29.9116840  23.0178223  32.7238045  28.7975941  22.6092167
  32.7447395  30.4755096  21.3494263  31.6872711  30.4522057  21.0861454
  33.0315857  31.5239449  21.4307499  33.5653801  29.6901760  20.2965603
  34.7866936  29.4014492  20.5678654  33.0374680  29.4061928  19.2063923
  30.5427132  30.4904327  23.4561577  29.9505692  31.5301609  23.0263176
  29.8133278  29.3596630  23.5449715  30.2823658  28.4952984  23.7751427
  28.3864326  29.2366085  23.2852745  27.9854412  29.5664291  22.3268776
  28.1223564  27.7060242  23.4684525  28.4176273  27.5062180  24.4984970
  27.0384941  27.5980358  23.4274597  28.6466026  26.7711391  22.3915482
  29.7042503  26.5210667  22.4749088  28.1092587  25.8369999  22.5550919
  28.3607903  27.4531460  21.0229816  29.3079243  28.1734009  20.6041737
  27.2744350  27.2914810  20.4571800  27.4969044  30.0969353  24.2056541
  26.5889187  30.8017635  23.7117023  27.7964993  30.0363159  25.4884148
  28.6007843  29.4758797  25.7315960  27.0355453  30.6721878  26.5548592
  26.0085564  30.7414093  26.1962433  26.8461628  29.6523457  27.6694775
  27.7746811  29.4721260  28.2112103  26.2409019  30.0184155  28.4987926
  26.2717075  28.3035393  27.1279583  25.1316624  28.2302589  26.6866932
  27.0821114  27.3147926  27.0993977  26.7477379  26.4291954  26.7472439
  27.9563198  27.4461956  27.5878582  27.4728775  32.0927124  26.9299965
  26.7665730  32.7070465  27.7018623  28.6349545  32.5932541  26.4991093
  29.0747452  32.0838203  25.7460098  29.1568184  33.9652443  26.7557831
  30.1005821  34.0674133  26.2200851  28.2152004  34.9938164  26.0532455
  27.1901207  34.8599243  26.3987656  28.6058083  35.9605904  26.3708496
  28.1610622  34.9222298  24.5256443  29.1612053  34.6936340  23.6259041
  30.1685658  34.7602272  23.6557426  28.5527878  34.5791588  22.4005489
  29.1615219  34.4925117  21.5126667  27.2343674  34.7622261  22.5015392
  26.6498833  34.6683846  21.6832027  26.9561348  35.0734711  23.8670216
  26.0154438  35.2373428  24.3716469  29.3384571  34.1574135  28.3050671
  28.8211594  35.1538086  28.8512745  30.0151539  33.2296562  28.9593906
  30.3984814  32.4613152  28.4275913  30.1425762  33.1464500  30.4225388
  29.2050419  33.5244598  30.8302670  30.4399071  31.7204266  30.9712067
  31.4381542  31.3630333  30.7184696  30.1953354  31.7507496  32.4328651
  29.2131481  32.1648140  32.6608200  30.1155128  30.7384758  32.8291359
  30.9578171  32.3924370  32.8744087  29.5531082  30.8490009  30.2593842
  28.6730156  30.9880581  30.6167316  31.2474041  34.1359444  30.9262142
  32.4367561  33.8817062  30.7803764  30.7697086  35.1869392  31.6670094
  29.7791634  35.3842163  31.6656990  31.5480862  36.0951424  32.4775352
  32.4918518  36.2341957  31.9502106  30.8452110  37.4829597  32.6935806
  30.6897087  37.8253212  31.6704922  29.9108543  37.4871826  33.2548790
  31.7306156  38.4965782  33.3602142  31.6677914  38.2209015  34.4129028
  32.7819328  38.3592796  33.1072655  31.4192924  40.0872803  33.1379471
  31.4356976  40.0448036  32.0488968  30.4577980  40.3062172  33.6023788
  32.5518990  40.9343987  33.7656746  33.5313301  40.4605675  33.7001572
  32.6114502  41.9107933  33.2848358  32.3034477  41.1296539  35.2175407
  32.3620262  40.2573318  35.7232399  32.9039307  41.8491364  35.5941887
  31.3363800  41.3522720  35.4054680  31.6903782  35.4089394  33.8442192
  30.6361237  35.0646172  34.4150543  32.8683434  35.3645744  34.4899406
  34.1343346  35.7271271  33.9304962  34.4592361  36.7020798  34.2938194
  34.1840820  35.5303345  32.8595581  35.1512146  34.7733650  34.5617447
  36.1539040  35.1967049  34.5026512  35.1007423  33.7597466  34.1640854
  34.5879173  34.6641350  36.0051384  34.8835220  35.5425797  36.5787697
  34.8712540  33.8022461  36.6092682  33.1070023  34.6238441  35.7207527
  32.8730659  33.5788231  35.5174828  32.2749062  35.1072083  36.8591881
  31.7988453  34.2801857  37.6768379  32.0077705  36.3642540  37.0597572
  32.5262184  37.0333061  36.5086823  31.2237949  36.7313614  38.2938805
  31.4766502  36.0595055  39.1141090  31.6490936  38.1737747  38.7331047
  31.0997829  38.9656868  38.2239571  31.3983555  38.2703094  39.7894745
  33.0825768  38.4434052  38.7243423  33.3288918  38.9815636  39.6396637
  33.6782722  37.5307846  38.7438660  33.5212326  39.3051414  37.4659805
  33.3381729  38.8050385  36.3438911  33.8551292  40.4745407  37.7134705
  29.6722870  36.5528030  38.2267799  28.9733162  36.6612701  39.1950645
  29.1587811  36.2783775  37.0345268  29.7915421  36.1544456  36.2571220
  27.7801590  35.8345222  36.8843880  27.1693439  36.5531197  37.4308548
  27.3652973  35.9664154  35.4177933  27.8276501  35.1492081  34.8641701
  26.3301468  35.6505890  35.2881126  27.6248322  37.3134499  34.6746216
  28.1524239  38.2557602  35.2964249  27.2686291  37.3715706  33.4925537
  27.5462036  34.3704720  37.3044853  26.3994675  33.9381866  37.2422562
  28.5711212  33.5258980  37.6019325  29.5123310  33.8903847  37.6390266
  28.4737740  32.0723076  37.9169960  27.6084137  31.6497345  37.4064178
  29.7409515  31.4280338  37.4669189  30.5393543  31.9487228  37.9956360
  29.8364906  29.9253349  37.8180504  29.7301674  29.8135796  38.8970833
  29.1608982  29.2803783  37.2561684  30.8736534  29.6682854  37.6028252
  30.0992088  31.4808006  36.0480042  31.1491566  31.2386608  35.8834686
  29.3879414  30.9546928  35.4112892  30.0471954  32.5282631  35.7509918
  28.3576679  31.8724995  39.4744492  29.0221004  32.6076241  40.2457809
  27.4167709  30.9928951  39.9477692  26.9910221  30.3655300  39.2804985
  27.1256962  30.7183723  41.3451996  27.2390308  31.6864700  41.8330956
  25.6408787  30.3477058  41.4703674  25.4990463  29.4204731  40.9151917
  25.1906090  29.9667206  42.8308449  24.1189537  29.7718182  42.7901421
  25.6195602  29.0403290  43.2128181  25.3062172  30.8530312  43.4546967
  24.7582150  31.4429417  40.7995567  25.0160618  32.3264885  41.3834724
  24.9377651  31.6216717  39.7394028  23.7155132  31.1433372  40.9049644
  28.0955811  29.7085037  41.9890938  28.7216320  29.9175930  43.0184174
  28.2625828  28.5773544  41.2886581  27.9880199  28.5710697  40.3167152
  28.8604984  27.3061924  41.7248650  29.8996220  27.4830437  42.0024567
  28.1653023  26.7117729  43.0133743  28.5872993  25.7834225  43.3983154
  28.1815033  27.4500694  43.8150940  26.6528988  26.5186729  42.9501724
  26.1669788  26.4196472  43.9208336  26.1930161  27.3351326  42.3933945
  26.2000504  25.2323475  42.2712822  26.5574436  24.1166153  42.6190758
  25.3516655  25.3076019  41.2419510  25.0506611  24.4544601  40.7929001
  24.8272476  26.1686516  41.1813126  28.8608990  26.2437668  40.6315231
  28.1539402  26.3952560  39.6233826  29.8137169  25.3118153  40.8278351
  30.2673550  25.3444252  41.7296371  30.1102753  24.1964264  39.8623505
  29.4025230  24.0279064  39.0506897  31.3608475  24.6930008  39.1765366
  31.1656055  25.6396809  38.6727715  32.2112045  24.8099098  39.8483429
  31.9274025  23.7794228  38.1491280  32.0839310  22.8251667  38.6521111
  31.1293144  23.5897446  37.4313698  33.5093842  24.3080845  37.4670868
  32.8709984  25.7031250  36.5214615  32.1157417  25.3556118  35.8165283
  32.3302841  26.3853302  37.1774521  33.6600113  26.2476311  36.0027428
  30.2256908  22.8458862  40.4652328  30.7647953  22.8444939  41.5478554
  29.8439236  21.7858315  39.7758369  29.3643780  21.8652916  38.8904991
  30.2916698  20.4619694  40.0470314  31.0694695  20.5333519  40.8073196
  29.0815411  19.6415043  40.5420647  28.4892273  19.5037460  39.6374702
  29.4555702  18.6907940  40.9220009  28.2073574  20.1273479  41.7380142
  27.8906574  21.1468487  41.5179710  26.9775620  19.2231197  41.7978859
  27.2798920  18.2297783  42.1295052  26.1644669  19.5079460  42.4656067
  26.5705242  19.0357628  40.8042450  28.9504871  20.1236420  43.1446609
  28.9832764  19.1449661  43.6234398  29.9522285  20.5290546  43.0023460
  28.4334393  20.7656803  43.8577881  30.8944626  19.7568073  38.8144302
  30.5114117  20.0975761  37.6357193  31.8006287  18.8900356  38.9885292
  32.1874046  19.0525436  39.9072762  32.5328789  18.0509167  38.0517311
  32.2455482  18.2345715  37.0164490  34.0388336  18.4770565  38.1602402
  34.4007912  18.2764778  39.1686325  34.6427345  17.7475605  37.6205750
  34.3230133  19.9348602  37.6477203  33.4542885  20.5854187  37.7486916
  35.5458298  20.5727577  38.3573151  36.4682274  20.0343094  38.1397171
  35.5830498  21.6199341  38.0570869  35.4316711  20.5355034  39.4406853
  34.6988525  19.8837891  36.1221924  35.5671120  19.2311039  36.0314865
  33.8310661  19.4627094  35.6145058  34.9410286  20.9097538  35.8449821
  32.4562607  16.5992584  38.3891792  32.3348427  16.2471790  39.5543556
  32.5941887  15.8368311  37.3485298  32.7804871  16.1676826  36.4126167
  32.5424576  14.3726988  37.5194244  32.7359085  14.1086235  38.5591087
  31.0804310  13.7540979  37.2950325  31.0967216  12.6910248  37.5352631
  30.4780903  14.2490044  38.0568466  30.6162624  13.8771801  36.0308685
  31.1121006  13.3162203  35.4299774  33.5555344  13.7522554  36.5298691
  33.8741913  14.3080711  35.4950829  34.0583572  12.5628843  36.9026489
  33.7676506  12.1403894  37.7727585  34.8308258  11.7602425  35.9986191
  34.4659576  12.0435734  35.0113525  36.3213081  12.0891867  36.2284927
  36.9720573  11.7311420  35.4307213  36.5536079  13.1400785  36.4010124
  36.5673866  11.5309162  37.1317520  34.5657501  10.2554550  36.3365707
  34.3258514   9.8179226  37.4567451  34.5392799   9.4408331  35.2825699
  34.8318672   9.7464876  34.3654747  34.1069145   8.0337973  35.4345856
  33.2241745   7.9356103  36.0664368  33.8020706   7.4309630  34.0420761
  33.6726761   6.3778267  34.2915955  32.5883560   7.9990726  33.2787590
  32.5992889   7.6614356  32.2424278  31.6872215   7.6003623  33.7446899
  32.4967842   9.0850306  33.2990036  34.8915977   7.6505995  33.1541939
  35.4815254   6.8988686  33.2463303  35.0176888   7.1377172  36.2795753
  36.1478577   7.5453486  36.5038719  34.4705849   6.0434451  36.9058113
  33.1568642   5.4726348  36.8531990  32.8209610   5.3156953  35.8281898
  32.6034164   6.2066169  37.4389191  33.1964569   4.0932059  37.5688972
  33.3482094   3.3217587  36.8139534  32.2795296   3.7951550  38.0773392
  34.3798904   4.1906924  38.4499283  34.7683792   3.1755710  38.3680458
  34.1547127   4.6106696  39.4302406  35.2650986   5.2702928  37.8268700
  35.6063232   5.8866053  38.6586304  36.5618553   4.6031761  37.3275452
  37.2410355   4.0522346  38.1165390  36.6866570   4.5903602  35.9843636
  36.0391350   5.1002498  35.4005623  37.9289970   4.2265096  35.2937088
  38.4635124   3.4625816  35.8583450  37.6479416   3.6938648  33.8333549
  38.5256805   3.4999800  33.2168427  37.2225990   2.7007537  33.9779968
  36.7057610   4.6107817  33.1136398  36.1602898   4.1010675  32.1415176
  36.5138779   5.7696214  33.4763451  38.9798126   5.3768959  35.2073250
  39.9763260   5.1861668  34.5056038  38.6360245   6.4999785  35.7508202
  37.7242317   6.6603737  36.1545639  39.5462646   7.6627512  35.8370934
  40.4701424   7.4299850  35.3075981  38.9267693   8.9345818  35.2846375
  38.0551109   9.2675200  35.8480759  39.7267647   9.6747828  35.2991943
  38.4302559   8.8008928  33.8771095  37.6495209   8.0405035  33.8581543
  37.6158257  10.0420208  33.4021988  38.2075615  10.9456758  33.5483513
  37.2072639   9.9225912  32.3987465  36.7366333  10.0901871  34.0446930
  39.5397568   8.5760698  32.8126373  39.9405441   7.5661278  32.8992195
  39.1203423   8.6188049  31.8074684  40.2542953   9.3976078  32.8637619
  39.9595490   7.8407812  37.3289032  39.1965942   7.5674748  38.2092285
  41.2061043   8.2820234  37.6175842  41.7177010   8.5229998  36.7807426
  41.8998451   8.3716974  38.8916168  41.1907845   8.7768040  39.6135750
  42.2906609   6.9610395  39.3518448  41.4174004   6.3517170  39.1189423
  43.1125069   6.6654906  38.6996841  42.7265053   6.7395339  40.7784996
  41.9947586   7.0589166  41.9336700  41.1657791   7.6265717  42.0369034
  42.7154007   6.5698509  42.9799042  42.4405289   6.7485986  44.0089302
  43.8790245   5.9872990  42.4980698  44.6321373   5.6887960  43.1012421
  43.8800240   6.1006536  41.1442528  44.5164642   5.5765405  40.4466476
  43.0624695   9.3727770  39.0145187  43.3657379   9.6379757  40.1945457
  43.5954361   9.9313030  37.9010887  43.4500580   9.6261044  36.9493446
  44.7651978  10.7929735  38.0900192  45.3942413  10.2653227  38.8069458
  45.6255341  10.8589191  36.8378143  45.9868889   9.8397055  36.7009964
  45.1283493  11.3012171  35.9745216  46.4925690  11.4277544  37.1736526
  44.5476151  12.1750307  38.7690659  45.5107193  12.5664034  39.3970375
  43.3970299  12.8510895  38.8010139  42.5039978  12.4573574  38.5410614
  43.3829079  14.2755575  39.2547455  44.0400925  14.2460184  40.1238441
  44.2099495  15.2809219  38.2827339  45.1789665  14.8381844  38.0523186
  43.5009995  15.3395834  36.9251518  43.2680588  14.3593473  36.5092545
  42.5822182  15.9085522  37.0673332  44.0791626  15.8322477  36.1434135
  44.5969810  16.6322289  38.8341675  45.1764832  16.5616188  39.7546539
  45.1285019  17.1639366  38.0449409  43.7091751  17.2323303  39.0336075
  41.9778824  14.7675190  39.6845589  41.0454330  14.4449797  38.9466171
  41.9023590  15.5925512  40.6995277  42.6850471  15.8201885  41.2959213
  40.6815491  16.4658661  40.9350548  39.7761803  15.8647814  40.8507919
  40.7214203  17.1316986  42.2455788  41.7132683  17.4672127  42.5485115
  40.0901985  18.0188026  42.1935043  40.1973763  16.2687607  43.3777733
  38.8149300  16.2023487  43.5314598  38.2137184  16.7822895  42.8469086
  38.3024750  15.3356361  44.5363655  37.2349281  15.3496885  44.6993065
  39.2002029  14.6433315  45.3631210  38.8515663  13.9990711  46.1567116
  40.5521088  14.8875866  45.2797813  41.2026558  14.3623648  45.9633980
  41.0949745  15.7654066  44.3864937  42.1546173  15.9617720  44.3157616
  40.6312714  17.5481377  39.8245010  41.6732979  18.2685146  39.7467003
  39.6157341  17.6476936  38.9917564  38.5294533  16.6018543  38.9707222
  38.1217804  16.4695225  39.9729156  38.8775635  15.6647425  38.5362816
  37.5416603  17.1585503  37.9291382  36.7344017  17.7423763  38.3713722
  37.0062408  16.3570824  37.4201393  38.3739777  17.9532509  36.9370079
  37.8814850  18.7864780  36.4357262  38.7337418  17.3485813  36.1045151
  39.5723381  18.4281387  37.7210693  40.5100327  18.3065281  37.1788063
  39.3608704  19.9350471  37.9143257  39.5372734  20.7602921  37.0450935
  39.0108643  20.2795811  39.1520538  38.7022285  19.5285301  39.7526932
  39.0499725  21.6357460  39.7454872  38.2799301  22.2549553  39.2853661
  38.7356339  21.4229183  41.2714920  39.4596329  20.6801052  41.6063995
  39.0374146  22.3350582  41.7863007  37.7026253  21.0973186  41.3938637
  40.3455925  22.4415684  39.5106354  40.2837944  23.6658955  39.2812576
  41.5385742  21.7451916  39.4838638  41.4999466  20.7501240  39.6525269
  42.7482834  22.4480801  39.1755447  42.9012527  23.1789703  39.9695854
  43.8957138  21.4033146  39.2600060  43.5298615  20.4754276  38.8203697
  44.7199898  21.8865681  38.7354698  44.3936348  21.1022396  40.7267609
  44.9121895  22.0240231  40.9904213  43.5608597  20.9817886  41.4196358
  45.1896477  19.7915401  40.6600571  44.6672783  18.9700508  40.1697693
  46.0131798  20.0063305  39.9790573  45.6400566  19.2221069  41.9812164
  46.3303871  18.3829880  41.8950615  46.1898842  19.9895763  42.5259933
  44.5218010  18.8420544  42.8290787  44.1978569  17.9342098  42.5274544
  44.8445282  18.6922588  43.7743378  43.8241005  19.5640488  42.9387970
  42.8068848  23.1985359  37.8647194  43.4571037  24.2390862  37.7590446
  42.0876503  22.7596588  36.8104172  41.4458694  21.9863319  36.9113007
  42.0589714  23.4730892  35.5340843  42.9556465  24.0408421  35.2856293
  41.7395477  22.4456215  34.3739204  42.6850243  21.9830284  34.0907593
  40.9186630  21.7736473  34.6243210  41.4184761  22.9554634  33.4655800
  40.9912186  24.5911140  35.5051804  41.1897736  25.5477791  34.7763557
  40.0192604  24.7015247  36.4595680  40.0253220  23.9694729  37.1553879
  38.9336815  25.6829472  36.5311737  38.5452881  25.6578484  35.5130234
  37.8634720  25.2635040  37.5787621  38.3513184  25.3288631  38.5513077
  36.7480545  26.3763885  37.5841370  37.0709343  27.3623180  37.9184952
  36.5192223  26.4391193  36.5202751  35.8874054  26.0341396  38.1588135
  37.2420235  23.8849564  37.4892311  36.7371712  23.6639748  38.4296494
  36.6058197  23.8075142  36.6075592  37.9890747  23.1194057  37.2795982
  39.5641670  27.0845737  36.7645531  39.2895508  28.0905018  36.0918007
  40.4267654  27.1857319  37.8147659  40.6457291  26.3226051  38.2913857
  41.2315941  28.3297081  38.0788383  40.5216217  29.1565990  38.0618591
  41.7979240  28.2830696  39.5693359  42.3846550  29.1904354  39.7126274
  40.9095421  28.3165379  40.2000198  42.5486832  27.0497227  40.0267563
  42.0953331  26.0879307  39.7868996  43.5351334  26.9074116  39.5854263
  42.8135490  27.0868206  41.5888939  43.4829521  27.9052181  41.8539009
  41.8835449  27.2500706  42.1334534  43.3827591  25.8039341  42.1029015
  44.3627281  25.7881279  42.3468437  42.7210388  24.6615448  42.3809967
  41.4395523  24.4998856  42.2167664  40.9862862  23.6050320  42.3346252
  40.8003693  25.2554646  42.0151596  43.2966995  23.6436405  42.8528862
  42.7315674  22.8106689  42.9358788  44.2888298  23.6351280  43.0418358
  42.4095116  28.6589985  37.0813484  42.9719238  29.7252331  37.2433014
  42.7095184  27.8048630  36.1391907  42.1863747  26.9501820  36.0129280
  43.6762161  28.0544834  35.0378113  44.6184502  28.2934914  35.5309334
  43.8834229  26.6848011  34.3629303  43.8087196  25.9980068  35.2060394
  42.9848633  26.6523705  33.7467842  45.1347580  26.4012623  33.5990944
  45.1859550  25.3510323  33.3118744  45.1532860  26.8737869  32.6170158
  46.4336472  26.6903019  34.3628998  47.4549522  27.0121098  33.7173309
  46.3807449  26.5193405  35.5973969  43.1504517  29.2017632  34.0575180
  43.9596481  29.8765926  33.5030556  41.8743668  29.3384342  33.9214478
  41.2515450  28.6569614  34.3310661  41.2975502  30.4947224  33.2135887
  41.7992668  30.5754395  32.2492905  39.8604546  30.0328712  32.8693924
  39.2788429  29.8182659  33.7659264  39.3591042  30.8643589  32.3740349
  39.6611404  28.7950230  31.8900223  40.1512032  27.9250240  32.3271141
  38.1499023  28.5155087  31.7413025  37.7418671  29.5092945  31.5569134
  37.9380341  27.8501034  30.9043751  37.7633972  28.1603870  32.6966057
  40.2861786  29.0276108  30.5437317  41.3169861  29.3708782  30.6314869
  40.3316383  28.0620403  30.0400410  39.6655235  29.7172642  29.9716625
  41.2572403  31.8680096  33.9376526  40.8158722  31.9005642  35.0800858
  41.6424637  32.9427910  33.2660141  41.9027061  32.7343369  32.3126411
  41.5615959  34.3337173  33.6926498  42.3376427  34.4696693  34.4458923
  41.9959450  35.4079666  32.6371994  43.0686913  35.2679405  32.5041313
  41.3224602  35.3878059  31.7803917  41.7651672  36.7190323  33.1588516
  41.9687042  37.2217026  32.3667068  40.1658401  34.6180382  34.3436317
  39.1144714  34.6093750  33.6733475  40.0934563  34.9450874  35.6561699
  40.9493904  34.8912811  36.1896286  38.8488426  35.3315964  36.3896866
  39.1688538  36.0011787  37.1880264  38.1825676  35.8846245  35.7276154
  38.0089951  34.1454430  36.9434204  37.2289124  34.4415474  37.8323555
  38.3002472  32.8560143  36.6832237  39.1131477  32.5449371  36.1708488
  37.4034119  31.7479610  37.1685028  36.3692360  32.0911522  37.1968460
  37.5335960  30.6311150  36.0689812  38.5869408  30.4792480  35.8333931
  37.2810669  29.7178268  36.6077232  36.6054344  30.6736088  34.8919640
  36.8260612  31.4887943  33.8345490  37.6275101  32.2103729  33.7761803
  35.7948456  31.3523579  32.9434967  35.7402573  31.9859295  32.1588287
  34.7914162  30.5813255  33.4747581  33.4618835  30.2736149  33.0733070
  33.1503716  30.6356316  32.1046448  32.6384773  29.4177933  33.8914719
  31.6559105  29.1254711  33.5516052  33.1349525  28.9448414  35.0917320
  32.6523361  28.1696339  35.6683884  34.4790268  29.2064304  35.4644775
  34.9056587  28.8396263  36.3863525  35.2570839  30.0705986  34.7411880
  37.7948685  31.2341270  38.6085396  37.1543846  30.2963524  39.0907516
  38.8458405  31.8067417  39.2286377  39.3168373  32.6256638  38.8713837
  39.5158463  31.2149239  40.4206619  39.5098114  30.1331367  40.2872276
  41.0216904  31.5222111  40.3757210  41.6028442  30.8806114  41.0380745
  41.4042702  31.3724842  39.3661041  41.4313965  32.9316559  40.8380661
  40.9407921  33.1614304  41.7839050  42.4988480  32.9126129  41.0578041
  41.3019753  34.0290337  39.8099442  40.8713913  33.8593864  38.6661835
  41.8736343  35.1772308  40.1481171  41.6703949  35.9155540  39.4895744
  42.4003677  35.2648277  41.0054245  38.8687477  31.4557438  41.7864265
  39.4992981  31.2750797  42.8386841  37.6406937  31.9774055  41.8264160
  37.2878876  32.1930847  40.9049416  36.8127022  32.1466713  43.0568085
  37.3350487  31.7936878  43.9459991  36.5349998  33.5928192  43.3485107
  35.9255142  34.0098190  42.5468025  36.0677681  33.7975426  44.3117790
  37.8135033  34.4531975  43.3489151  38.6477470  34.5577774  44.4692650
  38.4651337  33.9647522  45.3532219  39.7369118  35.4126205  44.4736176
  40.2144432  35.5633430  45.4305115  40.0166206  36.2529602  43.3762169
  41.0813904  37.1517372  43.3502884  40.8707848  37.9479141  42.8569908
  39.2693024  35.9748955  42.2254448  39.5746422  36.5107422  41.3388519
  38.1654778  35.1046677  42.1230240  37.6392555  34.9636040  41.1905022
  35.5556107  31.2138710  42.9099426  34.9085617  31.0631866  43.8943481
  35.0918427  30.7011032  41.6790543  35.5843163  31.0695610  40.8779259
  33.9214745  29.7714577  41.6118202  33.0791740  30.4467506  41.7621956
  33.6665230  29.2720566  40.1847496  34.5720406  28.7989750  39.8048325
  32.5929604  28.1508999  40.1739540  32.9512291  27.1950054  40.5560608
  31.7122326  28.4746380  40.7285843  32.3058891  27.9009514  39.1525688
  33.3754768  30.4831505  39.1917305  34.0856056  31.3061504  39.2722435
  33.4142494  30.0978451  38.1728401  32.4140244  30.9213543  39.4594803
  34.0599785  28.5577202  42.5517845  35.0214806  27.7960796  42.3492622
  33.1381264  28.3741531  43.4845123  32.0006027  29.2795029  43.7420311
  31.2584705  29.0623474  42.9737968  32.2989845  30.3264332  43.6871834
  31.6479530  29.0256557  45.1862373  30.5826416  29.1206799  45.3964386
  32.1662636  29.7786198  45.7799530  32.1886978  27.6580029  45.5227394
  31.3554497  26.9554119  45.5356369  32.7438583  27.5889835  46.4582253
  33.2013702  27.2742386  44.4666710  34.2041664  27.2467690  44.8929825
  32.8195572  25.9203835  43.9376030  31.7584419  25.9004116  43.3162155
  33.5999260  24.8928261  44.0775909  34.5133896  25.0591259  44.4751205
  33.4992828  23.6616955  43.3133278  32.4816666  23.5717831  42.9332237
  34.4796486  23.7399750  42.1060600  34.0202980  24.5544052  41.5458832
  35.9085045  24.1545811  42.4557800  35.9911270  25.2153072  42.6927109
  36.2326851  23.5990124  43.3357544  36.7267685  23.9318542  41.7709961
  34.5246391  22.4965229  41.2189789  33.5442543  22.1547241  40.8871346
  35.1703224  22.7406387  40.3754158  35.1247215  21.7080517  41.6731911
  33.9728279  22.5062294  44.1810150  34.7321320  22.6660957  45.1187782
  33.3872910  21.3347416  43.9719124  32.7299347  21.3555775  43.2053947
  33.9089088  20.0054893  44.4690170  34.9951134  20.0962048  44.4757538
  33.4569969  19.7910633  46.0106583  33.4697342  20.7838421  46.4604759
  32.0659332  19.1847534  46.3330727  32.2556190  18.1233330  46.4927750
  31.6916542  19.5897026  47.2733040  31.3781986  19.4113121  45.5183334
  34.3766937  18.8691063  46.6032066  34.2768707  17.9858646  46.2405510
  33.5008812  18.9382725  43.4991493  32.8231735  19.2704716  42.5175514
  33.9146004  17.7284870  43.6475525  34.4706612  17.5414104  44.4696808
  33.9796448  16.8079491  42.4724731  33.3901405  17.1947231  41.6412163
  35.4659615  16.7180099  42.1399040  36.0893707  16.1821613  42.8556747
  35.4662666  16.1302795  41.2219276  36.1759529  18.3453465  41.6697998
  36.8526917  18.5613880  42.8012772  33.3988304  15.4567652  42.8158913
  33.8112450  14.6490002  43.6277924  32.2027512  15.1795092  42.3042717
  31.8710461  15.7465477  41.5371094  31.3470535  14.1124077  42.7562408
  31.4774456  13.9367237  43.8240585  29.9091358  14.5887499  42.5610733
  29.2395401  13.9308577  43.1150780  29.7347660  15.5789995  42.9819069
  29.4755058  14.6348782  41.1017609  30.3496838  14.9765196  40.5475121
  29.2816296  13.6324816  40.7200356  28.2505035  15.8267355  40.7969055
  28.1573830  16.1857300  39.0307541  27.8128109  15.3071203  38.4853973
  27.4962940  17.0506687  38.9765205  29.1158028  16.5309200  38.6429672
  31.7849178  12.8245039  41.9797096  32.1615639  12.8070726  40.8510857
  31.7099419  11.7081738  42.7046890  31.2892246  11.6715212  43.6221581
  31.9762268  10.4056215  42.0485725  32.9032021  10.4856586  41.4807625
  32.1211624   9.2841730  43.1147041  32.7929726   9.6673546  43.8827820
  31.1654205   9.2917032  43.6387367  32.4377975   7.8148956  42.7640800
  32.4087410   7.2247653  43.6800499  31.6705685   7.4300208  42.0922661
  33.7849045   7.5554910  42.2080078  34.7535172   8.3460770  42.3472519
  34.0782776   6.3525114  41.7054863  33.2921371   5.7657332  41.4651222
  35.0226746   6.1056604  41.4461021  30.8724899  10.0507946  41.0616760
  29.8097343   9.5470896  41.4787941  31.2288837  10.0615454  39.7096329
  32.1021919  10.4809361  39.4240685  30.3310452   9.4050446  38.7362938
  29.4066467   9.9764633  38.6521797  31.0470371   9.5229855  37.3850975
  31.3614616  10.5567703  37.2418289  32.0062981   9.0060854  37.4121132
  30.3560429   9.0090628  36.0933151  31.1017323   8.7415457  35.3446617
  29.7607327   8.1231737  36.3144760  29.4457607  10.0475655  35.5245323
  29.6463089  10.5680790  34.3916168  28.5886898  10.5730677  36.2688446
  30.0097733   7.9327092  39.0440216  30.9444847   7.1486492  39.1869240
  28.7351418   7.5135217  39.0902748  27.9529610   8.1094875  38.8598022
  28.3440857   6.0941157  39.2387810  28.8394871   5.8239822  40.1713676
  26.8438454   5.9680171  39.4443893  26.6667328   5.1035571  40.0842667
  26.4948025   6.7958770  40.0615768  26.0285873   5.8431344  38.1601219
  26.3893509   6.6093359  37.4739113  26.2431526   4.8588152  37.7439728
  24.2207489   5.9966002  38.2338181  23.5468044   4.4570174  38.9782448
  24.0948105   4.1443315  39.8670692  22.4988785   4.4967933  39.2755127
  23.6460457   3.5905931  38.3243637  28.8209496   5.1317225  38.0946350
  28.8194313   5.5317998  36.9254074  29.0104771   3.8428662  38.4657059
  29.0327568   3.6264646  39.4519997  29.1159267   2.7978063  37.4088821
  29.7871399   3.1694794  36.6346512  29.9596729   1.5329490  38.0198898
  30.6811104   2.0455143  38.6562119  29.3553944   0.8911580  38.6610336
  30.6499710   0.5984182  37.0267830  30.6677170   0.9672958  35.8261452
  31.2212181  -0.4185831  37.4099731  27.7307816   2.3258073  36.9196472
  26.9893169   1.6590220  37.5985909  27.4893818   2.3829389  35.6033478
  28.1270275   2.8551872  34.9784546  26.3923492   1.6962368  34.9016724
  26.1781006   0.8189332  35.5120316  25.2809696   2.7174635  34.7540245
  25.5692253   3.7599142  34.8893318  24.5224628   2.6415651  33.4060707
  23.7785015   1.8451374  33.4242706  24.0621262   3.6009529  33.1699257
  25.1322517   2.5661588  32.5057564  24.2120380   2.5686891  35.8739624
  23.6983700   1.6226177  35.7031059  24.6500015   2.5086548  36.8702965
  23.4570236   3.3548524  35.8736763  26.8969116   1.1023226  33.5138702
  27.7455139   1.7672305  32.8662109  26.4312439  -0.1155357  33.2308426
  25.8273525  -0.5313472  33.9254761  26.6117611  -0.9505710  32.0691681
  27.6947956  -1.0650054  32.0239906  26.0858078  -2.3729630  32.2612953
  26.1882305  -2.6293006  33.3157616  24.6399174  -2.5784853  31.9950237
  24.2709656  -3.4627650  32.5146599  24.1721611  -1.7352433  32.5032043
  24.3944054  -2.5913355  30.9331093  26.8883610  -3.1795495  31.4897041
  26.5742989  -4.0196209  31.8321152  26.2919636  -0.3538566  30.7177544
  25.2351875   0.2327533  30.6204586  27.2817650  -0.3787760  29.8124466
  28.0433426  -1.0353084  29.9076653  27.1464443   0.2547429  28.5215588
  27.8541546  -0.2230591  27.8440914  26.1497192   0.1391639  28.0957890
  27.3899288   1.7082173  28.5456886  27.2722225   2.2313154  27.4418831
  27.5712090   2.4341097  29.7021980  27.4921207   1.9975932  30.6095562
  27.9279175   3.8498297  29.7637463  27.1814785   4.4604177  29.2557011
  28.0547791   4.0964165  30.8178825  29.2039013   4.1903834  28.9911270
  30.0886803   3.3720250  28.7822666  29.3470345   5.4410448  28.6196766
  28.7408829   6.1411390  29.0228500  30.5685768   5.8723307  27.9118481
  30.8499470   5.0984955  27.1976280  30.2234745   7.2255969  27.2495689
  29.2507114   7.0449200  26.7922001  29.9960709   7.9697409  28.0128784
  31.1913300   7.6816897  26.2093697  32.1263809   7.9720044  26.6884384
  31.4899120   6.5918884  25.0990429  30.6254444   6.0636244  24.6968803
  31.9432335   7.1005912  24.2482662  32.1965752   5.8644819  25.4985504
  30.5628624   9.0050945  25.5109558  30.4687634   9.8628311  26.1769409
  31.1664391   9.4344320  24.7112904  29.6050777   8.7911654  25.0366325
  31.7018242   5.8888779  28.9877148  31.6263580   6.5389662  30.0594425
  32.8440132   5.2971234  28.6540070  32.9165230   4.7855549  27.7861710
  34.0374031   5.1170239  29.4953079  33.7704773   5.0725241  30.5511818
  34.6743088   3.8384185  29.0129528  34.7682991   3.9497075  27.9327316
  35.6864281   3.7869427  29.4142799  33.9089966   2.5333202  29.3873386
  33.0141525   2.4745240  28.7677364  34.5181313   1.6497872  29.1964817
  33.4348450   2.3182442  30.8597603  34.4160652   2.2887611  31.3335133
  32.8511887   3.0734241  31.3862114  32.6752853   1.0647172  30.9906025
  33.2319870   0.1947517  30.6422520  32.6106300   0.7993683  32.0458298
  31.3320427   1.1923577  30.2942257  30.8124962   1.7880727  30.9229584
  31.3276310   1.6540271  29.3959255  30.9084320   0.2900935  30.1312084
  34.9759560   6.2807512  29.3585644  35.0408173   6.9088831  28.3016548
  35.9324074   6.4903097  30.3367767  35.9665451   5.7056370  30.9717751
  36.9543343   7.5273366  30.3725605  37.1336174   7.6462560  31.4411201
  38.2444229   7.1012869  29.5949230  37.9937935   6.9221749  28.5493603
  38.9538727   7.9259868  29.6632061  38.8935318   5.7657638  30.0057449
  39.2256279   5.7714667  31.0439053  38.1896095   4.9393272  30.1037006
  40.1150131   5.3264375  29.2137566  40.8720436   6.1106405  29.2081966
  40.5663071   4.5956101  29.8848209  39.8907585   4.8823481  27.7680321
  39.2955780   5.6652169  27.2979488  40.7636871   4.5472050  27.2078743
  38.9241142   3.7377639  27.7448463  38.5834923   3.5083654  28.6675892
  38.0880051   3.9983203  27.2417126  39.2932816   2.9591289  27.2180214
  36.3150787   8.8610516  30.0543880  36.7673836   9.6038179  29.2093353
  35.2079544   9.0975733  30.6560192  34.9465256   8.5186377  31.4412518
  34.3353729  10.2277174  30.4297276  34.7041435  10.8451357  29.6106377
  32.9666214   9.8649473  29.9341526  33.0002060   9.0926018  29.1657429
  32.4384193   9.4667044  30.8004723  31.8210468  11.0986967  29.1700439
  32.4444351  11.3324671  28.0117550  34.2313881  11.2685547  31.5939236
  34.1749535  10.9159174  32.7903862  34.4209938  12.5692501  31.2300911
  34.4462051  12.7891817  30.2446499  34.4238205  13.6426792  32.1891708
  34.2431297  13.2491989  33.1894875  35.8031578  14.3679161  32.2625961
  36.0167351  15.0013933  31.4016705  35.9157524  15.4277067  33.4742165
  35.1560669  16.2092018  33.4899559  35.7979622  14.9305506  34.4370575
  36.8770180  15.9403734  33.4389687  37.0009842  13.4457188  32.4313927
  37.3998756  13.4580069  33.4457092  36.6800766  12.4104853  32.3155937
  38.1801300  13.8050375  31.4768600  38.9431534  13.0405092  31.6231594
  37.8175697  13.7122278  30.4531231  38.6585274  14.7473640  31.7438011
  33.2984810  14.6662722  31.8656273  33.1597557  14.9463892  30.6894588
  32.5991173  15.2246027  32.8880959  32.8744087  14.9963799  33.8326759
  31.3645725  16.0746918  32.6928673  31.4872875  16.5367851  31.7133198
  30.1094742  15.2451191  32.6985207  30.0761051  14.7001314  33.6419067
  29.2448235  15.9016104  32.6010551  30.0500450  14.1405554  31.5797272
  30.2072277  14.5620203  30.5868721  30.7675190  13.3439121  31.7764511
  28.6334553  13.4398022  31.4630165  27.8966255  14.2205133  31.2741432
  28.6601105  12.6556330  30.7063999  28.4007282  12.7858467  32.7736092
  29.1548710  12.3658457  33.2979851  27.2881088  12.7817430  33.4222565
  26.1673565  13.2079391  33.0490570  25.3235760  12.9306765  33.5299530
  26.0168114  13.6867990  32.1726265  27.2880707  12.1370773  34.5503387
  26.4777927  12.1974831  35.1502533  28.0020714  11.4584942  34.7735596
  31.2691975  17.2238636  33.6944122  32.0565186  17.2775555  34.6189232
  30.3616104  18.2190571  33.4853363  29.6385345  18.0912495  32.7918472
  30.1959896  19.3678207  34.3580170  30.5528431  19.0932579  35.3506775
  31.0761852  20.5357437  33.7672043  32.0352669  20.0202637  33.7168083
  30.6897240  21.0443306  32.3671150  29.6661510  21.4044571  32.2636375
  31.3562717  21.8852863  32.1757851  30.8706188  20.3395157  31.5555649
  31.4122334  21.5838718  34.8205681  31.6878929  21.0537205  35.7321854
  32.1095963  22.3492298  34.4799576  30.6241188  22.2983532  35.0582504
  28.7052135  19.7202110  34.5139427  27.8571606  19.3891163  33.6768265
  28.4167595  20.5196648  35.5768433  29.1335526  20.9442196  36.1478615
  27.1421604  21.1497364  35.8886681  26.6711235  21.3978119  34.9375153
  26.2947235  20.2404194  36.7973709  26.0921307  19.2940674  36.2958946
  26.8956470  20.0102501  37.6771507  25.0781307  20.8707981  37.4567719
  24.8721218  20.2011318  38.2917633  25.3285179  21.8314800  37.9067688
  23.6281910  20.9644737  36.3743134  23.9608154  22.5537338  35.5356140
  23.9609203  23.3580952  36.2712097  24.8442688  22.4607906  34.9039688
  23.0777588  22.8002110  34.9460754  27.5152206  22.3986282  36.6415901
  28.3010597  22.3329735  37.6173897  27.0356293  23.5651169  36.2709541
  26.5232067  23.5531387  35.4006767  27.2898350  24.8400612  36.8983574
  27.4239445  24.6873665  37.9692459  28.4855099  25.6112709  36.4183617
  28.4961872  26.5243225  37.0136185  29.3631649  25.0016232  36.6331940
  28.4096146  26.0511494  34.9591789  28.6017132  25.1940727  34.3137207
  27.4193802  26.4907894  34.8397827  29.7349033  27.2952557  34.5826836
  29.4312248  27.4787178  32.7740479  28.4905033  27.9317532  32.4611549
  30.2117290  28.1789913  32.4765015  29.4246006  26.5522060  32.1999130
  26.0506954  25.7574368  36.6957588  25.2428513  25.5606976  35.7806664
  25.8597832  26.7468262  37.5231018  26.5198154  26.8387508  38.2820511
  24.7097206  27.7133331  37.4289932  24.2855644  27.6315575  36.4282417
  23.5983982  27.3933868  38.4637985  22.7950401  28.1195488  38.3396835
  22.9018993  25.9812031  38.2482071  22.4488945  25.9244251  37.2584267
  23.5845108  25.1769199  38.5225677  22.0516281  25.9507980  38.9295387
  24.0599403  27.5673008  39.7202797  23.4043198  27.2398205  40.3403778
  25.1561108  29.1737785  37.3672142  26.1612759  29.6249447  37.9036636
  24.4368134  29.9884911  36.5984001  23.5368252  29.7259026  36.2226715
  24.9478378  31.2228470  36.0380707  25.6749039  31.6020699  36.7561722
  25.7270298  30.9460640  34.7003288  24.9995022  30.8188076  33.8987007
  26.5866623  32.2000885  34.3770828  26.9396744  32.0250778  33.3607903
  26.0261078  33.1349030  34.3775139  27.4487553  32.2227821  35.0437050
  26.5710754  29.6961079  34.6354561  25.8987446  28.8385048  34.6598892
  27.0401077  29.7295513  33.6520958  27.2706585  29.5852242  35.4639397
  23.7494812  32.2099876  35.8213806  22.7422447  31.7351227  35.3143616
  23.7993488  33.4345169  36.3623314  24.6715107  33.7755356  36.7406693
  22.8420315  34.4604149  36.0492668  21.8809032  34.0425797  36.3488388
  23.1417980  35.6043053  37.0013885  23.1113701  35.2654305  38.0369263
  24.1102238  36.0617447  36.7989082  22.0795860  36.7219887  36.9740219
  22.1552505  37.3711166  36.1016655  21.0805092  36.2929344  37.0505409
  22.2709675  37.6601982  38.1438904  21.3495827  37.8063507  38.8965797
  23.3329430  38.3461876  38.2302933  23.3291988  38.9584274  39.0335655
  24.1414890  38.3576431  37.6251221  22.7145252  34.7245789  34.5340042
  23.7772560  35.0587730  33.9735413  21.5360355  34.5568695  33.8117447
  20.7023468  34.2907867  34.3159904  21.3693810  34.7863121  32.3226089
  22.0386868  35.6107597  32.0768166  21.9680138  33.4702950  31.6110859
  23.0150127  33.3749046  31.8988285  21.2736263  32.1513863  31.7449436
  21.8400364  31.5010624  31.0783367  21.4179783  31.7774887  32.7585831
  20.2053013  32.1879501  31.5317650  22.0697308  33.9459572  30.2684288
  22.8111839  34.5279999  30.0865707  19.9974270  35.0556259  31.8686409
  19.0031395  34.5961533  32.4188156  19.9903946  35.9843597  30.8882847
  20.8704147  36.4408035  30.6950932  18.9006329  36.4927483  29.9945850
  18.0694199  36.7319756  30.6578770  19.3116055  37.7845917  29.3236866
  18.4628620  38.0523109  28.6943531  19.5056992  38.5473213  30.0777893
  20.5502148  37.5994072  28.5129108  20.5968914  38.1764069  27.3780212
  21.5977249  37.1373062  28.9649467  18.4909725  35.4545517  28.9883747
  17.3868713  35.5275307  28.4083881  19.2844906  34.3848839  28.7627735
  20.2039585  34.4132614  29.1797562  19.0076485  33.3012352  27.7957611
  18.6787910  33.7884827  26.8778534  20.3452930  32.7115402  27.3319454
  20.8516483  32.1827927  28.1394978  20.0865002  31.7283459  26.1843185
  21.0440960  31.3767948  25.8002186  19.5999889  30.8644810  26.6372471
  19.4491730  32.1332016  25.3981857  21.3785877  33.8252792  26.8313236
  21.6988564  34.5054588  27.6205540  22.2165985  33.4284859  26.2582703
  20.8091087  34.4935684  26.1854267  17.9732342  32.3250046  28.3639526
  18.2042732  31.7868748  29.3942299  16.7957687  32.1466255  27.6749306
  16.2235279  32.8385048  26.5157509  16.7998772  32.8341522  25.5906010
  15.9101372  33.8418503  26.8041706  14.9899197  32.0726852  26.0334587
  15.1774683  31.3438282  25.2449856  14.1650820  32.6976852  25.6912251
  14.6214533  31.2108936  27.2376595  14.2516174  30.2174149  26.9840279
  13.8280706  31.7097282  27.7942638  15.8629322  31.0389862  28.0287151
  15.5590191  31.2387028  29.0562611  16.4061108  29.6125832  27.9577980
  17.1853943  29.2508907  27.0855770  15.9478436  28.7132111  28.7789059
  15.1373196  28.9804211  29.3190441  16.4968300  27.3285084  28.9693298
  17.4932365  27.3864326  29.4074135  15.4855814  26.6322441  30.0381546
  15.4952278  27.2094212  30.9627495  14.4517956  26.6158104  29.6930237
  15.7434187  25.1273727  30.2812843  15.8289394  24.5049725  29.3905525
  16.5866528  25.0088482  30.9617329  14.4693413  24.5283108  31.0548058
  13.6496716  23.7453690  30.5459747  14.3057852  24.8521137  32.2965851
  14.8041840  25.6338005  32.6974182  13.4414568  24.6634655  32.7838707
  16.5625134  26.4026279  27.7696400  17.5511703  25.7383499  27.6974258
  15.5402660  26.3457336  26.9021473  14.8316584  27.0644970  26.9389954
  15.7101021  25.6769543  25.5941868  16.1437016  24.6967735  25.7925224
  14.3295460  25.4176846  24.9363155  14.3383541  24.6636372  24.1492748
  13.5920916  25.0669842  25.6583061  13.5753260  26.6766319  24.4936409
  12.6857491  26.5754604  23.6227875  13.9116726  27.7743092  24.9895706
  16.6867123  26.2925148  24.6296940  16.9347363  25.6115265  23.6315098
  17.2390919  27.5181293  24.8510742  16.8005676  28.1817379  25.4735069
  18.2096558  28.1927471  24.0559673  18.2152405  27.7282276  23.0699196
  17.7583523  29.6144524  23.7969551  17.5518703  30.2477684  24.6597271
  18.5834427  30.1304302  23.3059425  16.6377144  29.7390862  22.7777424
  15.8035507  29.0722618  22.9959507  16.2869453  30.7700748  22.8238201
  17.0255642  29.5308666  21.3398056  18.0189133  29.9257622  20.7384682
  16.1100254  28.9383202  20.6174507  15.1907835  28.7750969  21.0027466
  16.2968311  28.7583275  19.6413307  19.6653805  28.0761147  24.5484009
  20.5232410  28.3626041  23.7643909  19.9485512  27.8339424  25.8320274
  19.1559219  27.9233627  26.4515781  21.2020531  27.5393085  26.5544243
  21.7986565  28.4491062  26.4878349  20.8131733  27.0689430  27.9732914
  20.1501789  26.2051430  28.0221596  22.0088577  26.4902287  28.7505302
  21.6339455  26.3766346  29.7677040  22.4026241  25.5434589  28.3808308
  22.7637348  27.2744331  28.6932487  20.0925388  28.2051907  28.8002205
  19.4574776  28.8156853  28.1582775  19.5302887  27.7733345  29.6281548
  20.9944077  29.3066616  29.3616352  20.3796978  30.1433792  29.6935177
  21.4939632  28.9076538  30.2444363  21.7039032  29.6788292  28.6225758
  21.9506588  26.3030834  25.8728142  21.4474487  25.2012482  25.7929420
  23.2357540  26.4408169  25.4305267  23.5873413  27.3867722  25.3898449
  23.9024944  25.4065857  24.6639862  23.2187595  24.6993027  24.1945648
  24.6986217  26.1110477  23.5271492  25.3345947  26.8689346  23.9845829
  25.2713280  25.3691673  22.9706211  23.7492218  26.7863636  22.5557957
  23.0233898  26.0914555  22.1334515  23.3518734  27.6428795  23.1004028
  24.5090218  27.3078079  21.3779144  25.2451515  28.0528221  21.6798553
  25.1729641  26.5581379  20.9474754  23.6426239  27.8640957  20.4510803
  22.6581841  27.7913036  20.6648045  24.0027084  28.2223816  19.2708645
  25.1940346  28.3021984  18.8585548  25.4947300  28.5330944  17.9224091
  25.9228783  28.2502060  19.5558224  23.0635605  28.3773346  18.4284687
  22.0853519  28.2193108  18.6240292  23.2551937  28.9221439  17.5998802
  24.8385658  24.5790176  25.5394440  25.8299446  25.1123829  25.9674625
  24.5401611  23.3098717  25.7451096  23.7225399  22.9238338  25.2950325
  25.4500484  22.4175262  26.5674114  26.1493607  22.9731445  27.1921921
  24.6667576  21.4336185  27.4025898  24.1417332  20.6751614  26.8219090
  25.3220558  20.8079376  28.0085640  23.5069962  22.0170403  28.1255264
  23.5068054  22.4532928  29.4594288  22.2852898  22.9148026  29.8212738
  21.9524288  23.2403889  30.7957458  21.4502869  22.7218189  28.8019314
  20.4714165  22.9490299  28.9033508  22.2309265  22.2077160  27.7285213
  21.8275070  22.0985279  26.7326641  26.2950115  21.6287098  25.5560493
  25.8263340  21.1781750  24.5248451  27.5708427  21.3626041  25.9465523
  27.7708817  21.6035309  26.9067822  28.6007919  21.1204338  24.8886795
  28.0428429  21.0572414  23.9544430  29.7880497  22.0568485  24.8325329
  30.2840996  21.9968643  25.8012638  30.7732029  21.8756905  23.7182598
  30.2906151  22.0885448  22.7643757  31.6665440  22.4695988  23.9114265
  31.1656208  20.8589802  23.7387238  29.3610287  23.4728870  24.6350861
  28.4592991  23.6512146  25.2209034  30.0919647  24.2629013  24.8074551
  29.0375977  23.7613239  23.6349373  29.0912971  19.6650333  25.0582142
  29.2705059  19.3047905  26.1973515  29.3703480  18.9280224  24.0244789
  29.2701607  19.3587990  23.1164627  29.6835976  17.4709644  23.9441700
  30.0134945  17.0667877  24.9012051  28.3900909  16.7496872  23.4799061
  28.0318375  17.0645752  22.4998055  28.7289715  15.7219372  23.3495579
  27.2486877  16.7078953  24.4503880  27.0295067  15.5866528  25.2771988
  27.7189121  14.7706881  25.1180687  26.0823708  15.5794897  26.2837944
  25.9206219  14.6625023  26.8309422  25.2852783  16.7505932  26.3729362
  24.4660530  16.8922329  27.4264603  24.5182190  16.1297703  28.0074348
  25.4792995  17.9059372  25.6011047  25.0089092  18.8585873  25.7949848
  26.4944878  17.8614731  24.6039009  26.7672787  18.7259274  24.0167847
  30.8704147  17.2049522  22.9930973  30.6431446  16.9724808  21.7806931
  32.0464897  17.3199635  23.4703426  32.1956139  17.4254951  24.4636822
  33.3074570  17.1664352  22.6993427  33.1871147  17.4922123  21.6661491
  34.4133797  18.0243893  23.2171459  34.6651764  17.5426960  24.1619587
  35.3251038  17.8704281  22.6399536  34.0739784  19.5189495  23.2087154
  33.2822838  19.8108101  23.8987446  35.2699203  20.2687416  23.7328529
  36.1399117  20.0285072  23.1217022  34.9461327  21.2938728  23.9127693
  35.4509163  19.9961548  24.7725868  33.8412971  20.1406536  21.8573132
  33.7591209  21.2254639  21.9245892  34.6587029  19.7735596  21.2366772
  32.8730888  19.7120914  21.5984554  33.7700996  15.6718092  22.6366501
  33.2770157  14.8126078  23.4126911  34.8049507  15.4176073  21.8470287
  35.2313766  16.1969509  21.3665257  35.5058746  14.0964727  21.7650757
  36.1052704  14.2255821  20.8638783  36.4407043  13.7993584  22.9846478
  35.8800201  13.6256390  23.9030991  36.9240494  12.8391171  22.8046017
  37.5078926  14.8525801  23.2097664  37.0998230  15.7215242  23.7260170
  38.2905502  14.5071487  23.8852139  38.2352676  15.2447157  21.8856010
  39.2316704  14.5378504  21.5222549  37.7704010  16.0655575  21.1355782
  34.4647293  12.9623604  21.3928432  33.6136971  13.2058630  20.5383663
  34.5766144  11.7800341  21.9671879  35.0112228  11.7125320  22.8763962
  33.5605278  10.6842823  21.7220135  33.3870926  10.4395857  20.6740913
  34.0735207   9.4070511  22.4339809  34.0372505   9.5616407  23.5123520
  33.3422623   8.6423073  22.1722050  35.4234009   8.9941540  21.8215752
  35.3913536   9.0338278  20.7327690  36.1058922   9.7902651  22.1190872
  35.8931808   7.6432929  22.3170872  35.9484100   7.5838594  23.4040642
  35.2478447   6.8369937  21.9684734  37.3719444   7.5021791  21.7546997
  37.3321495   7.1838117  20.7129898  37.8663902   8.4699202  21.6704388
  38.2284737   6.6013145  22.5301113  38.5019035   6.8997068  23.4554768
  37.7234001   5.7284017  22.4750748  39.1389656   6.4908400  22.1071491
  32.1250267  11.0354977  22.1537666  31.2054405  10.3744211  21.6062107
  31.8618126  12.0272312  23.0171242  32.5919495  12.7136230  23.1430836
  30.6226273  12.2697449  23.6686172  30.2501926  11.3396463  24.0979290
  30.9056797  13.1771030  24.8316441  31.0079994  14.1904707  24.4434261
  30.0529232  13.1168814  25.5078678  31.7882042  12.7907438  25.3415184
  29.5706558  12.8899307  22.7037182  28.4951954  13.2064705  23.1820545
  29.8585320  13.0684423  21.3756523  30.7876205  12.8509607  21.0445976
  28.8727837  13.4559584  20.3680248  28.5372581  14.4428797  20.6866322
  29.4794636  13.4084082  18.9906826  30.1687870  12.5674734  18.9147148
  28.5195675  13.3769665  17.7574921  27.8396626  14.2251730  17.8373852
  29.1384392  13.4854412  16.8667984  27.8909607  12.4894619  17.8302116
  30.3463726  14.6553202  18.8688698  29.8135700  15.6044989  18.9261112
  31.1347828  14.6873245  19.6208572  30.7760143  14.7282629  17.8697758
  27.6169243  12.4797478  20.4275646  26.4896450  12.8490896  20.0955009
  27.8189468  11.1654844  20.8949833  28.7740307  10.8906498  21.0749378
  26.7608318  10.1049671  21.0602188  26.0020962  10.3512325  20.3173981
  27.3592930   8.6785946  21.0444927  26.6142368   7.8854346  21.1068439
  28.2654057   8.3951454  19.8603287  29.1004772   9.0944386  19.9021492
  28.6823425   7.3908391  19.9353733  27.6853447   8.4936056  18.9427586
  28.1811962   8.5337877  22.3666134  27.6674519   8.9076347  23.2522793
  28.5749893   7.5247998  22.4889736  29.0933399   9.1304607  22.3754787
  25.9050179  10.3398352  22.3259525  24.8341618   9.7400599  22.4375057
  26.2349567  11.3372993  23.2268047  27.1170368  11.7951765  23.0468464
  25.4411182  11.7052546  24.4508991  24.6386547  10.9922323  24.6399841
  26.3257523  11.7422190  25.7210712  27.0243549  12.5702524  25.6010017
  25.6797161  12.0176125  26.5546741  27.1285229  10.5080681  26.1082897
  27.8158913  10.3597412  25.2754459  27.9533558  10.8309002  27.4072151
  28.7445354  11.5675802  27.2677994  27.2981930  11.1580820  28.2145653
  28.4832954   9.9252043  27.7021465  26.2209702   9.3341703  26.3703938
  26.8481331   8.4859829  26.6448860  25.4999237   9.4901924  27.1727982
  25.6820850   9.0247879  25.4748535  24.7376633  13.1019440  24.1842766
  23.7372608  13.3985710  24.7856636  25.1832523  13.8211403  23.1138840
  25.8945446  13.4453754  22.5031757  24.6060810  15.1118231  22.7636833
  24.6751842  15.7813702  23.6210232  25.4263802  15.7918139  21.5744514
  26.4962082  15.7908783  21.7831726  25.1244774  15.3792038  20.6117935
  25.0197010  17.2780952  21.4369946  23.9546394  17.4683437  21.3045235
  25.3248882  17.7903271  22.3494549  25.6842499  17.9246826  20.2040710
  25.4603748  18.9846745  20.3240604  26.7647495  17.9400311  20.3468628
  25.2677670  17.3724632  18.9218426  24.2924023  17.2398758  18.6956043
  25.9894829  16.9234695  17.9561729  27.2935867  17.2087288  17.9237881
  27.8399658  17.7345905  18.5909004  27.6978092  16.7954521  17.0955925
  25.5554504  16.1655655  17.0250950  24.6117420  15.8078785  17.0648308
  26.0928955  15.9314938  16.2026215  23.1528015  14.9888763  22.2359066
  22.9865723  14.1674309  21.3379669  22.1159725  15.5716057  22.8661766
  22.3166561  16.7570763  23.7590408  23.0209446  17.4960327  23.3769341
  22.7571259  16.4664345  24.7127781  20.9309044  17.3624763  24.0627441
  20.6461124  18.1502991  23.3653698  20.8371429  17.7951336  25.0587940
  20.0135174  16.0815544  23.9034386  18.9624462  16.1981659  23.6393280
  20.1272659  15.5017824  24.8194218  20.6457424  15.3084230  22.7399368
  20.5054779  14.2482567  22.9508343  19.9487190  15.7201815  21.4677792
  19.0845642  15.0072718  20.9539795  20.2677860  16.8979874  20.8982449
  20.9992352  17.4103546  21.3700085  19.7868652  17.3864708  19.5836105
  20.0048065  18.4542580  19.6046200  20.4565372  16.8727684  18.4189644
  20.2216911  15.8554831  18.1057873  20.0669861  17.4466782  17.5781441
  21.9884605  16.9638214  18.4890213  22.5319977  17.7132092  19.3354588
  22.6535473  16.3168030  17.6464577  18.2555923  17.3331490  19.4756889
  17.7613239  16.6281834  18.6184006  17.5507412  18.2588215  20.2067814
  18.0836487  18.8536835  20.8250427  16.1211090  18.2188663  20.4801006
  15.8282175  17.2336063  20.1173668  15.8636608  18.3510456  22.0055923
  16.3504658  19.3001804  22.2297859  14.7820892  18.4477272  22.1002579
  16.3486404  17.2494316  22.9698658  17.3881721  17.0380058  22.7193222
  16.2403908  17.8114376  24.4158421  16.9879951  18.5899239  24.5679970
  15.2439318  18.2375584  24.5324154  16.3659801  17.0295238  25.1647930
  15.6018152  15.9851761  22.7864323  15.8842125  15.2555523  23.5453758
  15.9025898  15.4778309  21.8697872  14.5345888  16.1905098  22.7029610
  15.2894106  19.2472668  19.6635551  15.8496141  20.0300484  18.8459148
  13.9874582  19.1773796  19.7455654  13.5275707  18.5593948  20.3987885
  12.9923086  20.1106892  19.0929546  13.4389925  21.1033211  19.1500225
  12.7088203  19.7662220  17.6506596  11.9746590  20.4001827  17.1534653
  13.6335535  19.8687725  17.0828094  12.2329979  18.4708576  17.5381336
  12.5957699  18.1492462  16.7095413  11.6983156  20.1925583  19.8823414
  11.4402237  19.4759865  20.8339577  10.7494831  21.0081005  19.4132404
  10.9773998  21.6415901  18.6603489   9.3324833  20.7959976  19.8084145
   9.2883339  20.8435020  20.8964844   8.4482374  21.9805584  19.3589897
   8.3338165  22.0110760  18.2754421   7.4865346  21.8026466  19.8402138
   8.8568220  23.3236084  19.8439350   9.8985529  23.5872593  19.6612091
   7.8507767  24.4505177  19.3320408   6.8855133  24.3020458  19.8161201
   7.8429728  24.5077591  18.2435722   8.2725220  25.3256054  19.8264618
   8.7756176  23.3908291  21.4067287   9.0407009  24.3610287  21.8268890
   7.7799406  23.0656033  21.7083187   9.4236603  22.6326008  21.8463097
   8.7657948  19.4361973  19.2803364   8.1048412  18.7918949  20.0443211
   9.1742239  18.9870949  18.1370487   9.5720291  19.6913776  17.5322056
   8.6904669  17.6985474  17.5268173   7.6045141  17.6060162  17.5424480
   9.0842867  17.6624813  16.0242863  10.1174440  17.9746075  15.8717670
   8.6422548  16.3726311  15.2852955   8.2579393  16.6532116  14.3046427
   9.4723644  15.6664581  15.2669134   7.8538437  15.8714943  15.8468742
   8.2684526  18.5847759  15.3881741   8.7376804  19.3959942  15.5963860
   9.2185001  16.4657707  18.2382202   8.6901340  15.3569574  18.0522118
  10.3170214  16.6098995  19.0536041  10.6644421  17.5447979  19.2128639
  11.0229931  15.5427570  19.9253101  10.6490459  14.5279322  19.7896862
  12.5514364  15.5221081  19.8384304  12.7894001  16.5844345  19.7842140
  12.9803286  14.9604530  20.6683083  12.9916773  14.8649073  18.4774685
  12.7552071  13.8027086  18.4148788  12.4041939  15.4625854  17.7805138
  14.4981976  15.0545197  18.3066750  14.8075562  16.0881233  18.1515656
  15.0448732  14.7230339  19.1894951  14.8755703  14.2257051  17.1735325
  14.6351633  13.1828442  17.3802814  14.3483133  14.4907255  16.2570877
  16.2688217  14.3569775  16.7485352  16.6334419  13.7451391  16.0324287
  16.4524155  15.3031645  16.4466591  16.9026546  14.1712513  17.5126438
  10.5197926  15.7381229  21.3773785  10.7838469  14.9025021  22.2493076
   9.6345177  16.7226391  21.7198601   9.2621498  17.3071861  20.9851837
   8.9340277  16.7148952  23.0048847   9.6248846  16.3815651  23.7792931
   8.4418545  18.1340580  23.3661156   9.2696047  18.8426914  23.3938541
   7.8471966  18.4627762  22.5138092   7.6383600  18.2471485  24.6404839
   7.8362503  17.5720387  25.6069660   6.7414122  19.1589622  24.6567497
   6.7522616  19.9605560  24.0423965   6.2213731  19.2809696  25.5139389
   7.8100743  15.6296930  23.0032120   6.9856133  15.6836443  22.0782013
   7.6625490  14.8112669  24.0471478   8.3513756  14.9436836  24.7738400
   6.5721326  13.8753672  24.4164238   6.3179193  13.3009996  23.5255947
   6.9465871  12.8441353  25.4651184   7.9022169  12.3870392  25.2083397
   7.1548538  13.3553295  26.8265305   7.5880871  12.6467962  27.5324974
   7.8411036  14.2008410  26.8741875   6.1371417  13.6336975  27.1001816
   6.1193571  11.7047853  25.5345478   6.5718832  11.0127439  25.0467987
   5.3125625  14.6404543  24.7880383   5.4516773  15.7609472  25.3208332
   4.1082664  14.0317116  24.5900803   4.1630354  13.1380510  24.1226711
   2.8494070  14.6554508  24.9898758   2.8547907  15.7176409  24.7452869
   1.7614330  13.9716749  24.1962337   1.5432589  12.9389839  24.4683552
   0.8372086  14.5216131  24.3736515   2.0145538  13.9452114  22.6418705
   2.9178786  13.3663397  22.4494762   1.1353953  13.5735836  22.1154919
   2.3274105  15.3671799  22.0353565   2.8918302  15.4600086  20.9109993
   1.9591616  16.3731384  22.6088734   2.5313640  14.5409555  26.5054035
   3.2767162  13.9201307  27.2921734   1.5018270  15.3650818  26.9204750
   0.9260063  15.8398552  26.2399387   1.0527637  15.6640406  28.2525902
   1.8889396  16.1102448  28.7909317  -0.1021203  16.6897163  28.2541370
   0.2077514  17.4181328  27.5048199  -0.9806387  16.2038040  27.8296452
  -0.5242587  17.3141785  29.5531025  -0.8028815  16.5619774  30.2911148
   0.6446951  18.1042328  30.1842957   1.0507758  18.8281822  29.4778233
   0.2483059  18.6898899  31.0137405   1.3730482  17.4169636  30.6147175
  -1.7391331  18.2149410  29.2832870  -1.5573851  19.0534725  28.6110268
  -2.4741096  17.5270729  28.8652611  -2.0722666  18.5464020  30.2667751
   0.7036895  14.3769712  29.0007801  -0.0486169  13.5097656  28.4850826
   1.1389910  14.3572664  30.2080593  18.2960167  40.0212860  44.6462593
  18.4125805  40.1644325  43.6532707  17.6163578  39.2780571  44.7222633
  17.7605057  40.7613373  45.0771294  19.5724735  39.6556358  45.3164787
  20.2247524  40.5223770  45.2097359  19.3573742  39.4694481  46.8516769
  18.9060268  40.3240395  47.3557205  18.7171669  38.6313515  47.1270561
  20.7549839  39.3190117  47.5376968  21.2758789  38.4554634  47.1241150
  21.3969288  40.1938477  47.4344101  20.6771603  39.1443138  49.3297882
  19.9898129  40.7029190  49.9374390  18.9739723  40.9075813  49.5993729
  19.9294853  40.5909538  51.0199966  20.7074547  41.5084267  49.7817116
  20.1048012  38.3542328  44.6901245  19.3444920  37.3418541  44.5685005
  21.3497429  38.3168716  44.3244743  21.9213676  39.1441956  44.4187088
  22.0496502  37.1466713  43.8039017  21.5710087  36.8998032  42.8562431
  23.5074081  37.6270142  43.3573189  23.4449863  38.4485092  42.6436310
  24.0181255  38.0511284  44.2218399  24.4174633  36.5257530  42.6695671
  25.3672371  36.9911118  42.4059944  24.6070652  35.8548660  43.5074577
  23.7111263  35.6333580  41.2473679  25.2665577  35.3518867  40.1648865
  25.0257263  35.1069298  39.1304321  25.8303185  36.2803268  40.2558556
  25.8700180  34.5441780  40.5790710  22.1561222  35.9583321  44.7739258
  21.9918213  36.1938324  45.9538498  22.3589745  34.7165184  44.2737923
  22.4332180  34.5941010  43.2739906  22.6844635  33.5343933  45.1181259
  22.5313530  33.8470612  46.1510315  21.6878777  32.3960991  44.8218155
  22.0412903  31.4858055  45.3061333  20.2247047  32.6798286  45.3759193
  19.5022697  31.9971619  44.9285240  20.3015900  32.5643921  46.4570580
  19.8790321  33.6729279  45.0889282  21.6458302  31.8737698  43.4210701
  21.2669659  32.5182076  42.6278076  22.6660767  31.8162289  43.0417480
  21.0975761  30.4569283  43.1681328  20.8246269  30.2676582  42.1299744
  21.7863388  29.6357269  43.3664589  20.2925358  30.2435341  43.8713264
  24.2053165  33.0737419  44.9150772  24.7155781  33.1456184  43.8254738
  24.8688602  32.8145180  45.9808426  24.3421268  32.6911736  46.8337402
  26.3321133  32.4439087  45.9930191  26.5912151  32.2867126  44.9459953
  27.2000427  33.5677834  46.6306343  26.8805561  33.6797981  47.6667213
  28.1955090  33.1244431  46.6061096  27.0842857  34.9375763  45.9181519
  26.0609074  35.2037506  45.6536674  27.5587025  35.7017097  46.5338936
  27.9428349  34.7069054  44.6561317  29.0170765  34.7230148  44.8401375
  27.7305622  33.7744827  44.1330376  27.6857929  35.8178749  43.7343292
  27.3386517  36.6941605  44.0972557  27.9933643  35.9388237  42.4426384
  28.6909828  35.0515785  41.8604889  29.0258484  34.2121506  42.3114052
  28.9467754  35.2312622  40.9000816  27.8756428  37.0722885  41.7817268
  28.2718105  37.1409950  40.8552094  27.7060947  37.8997345  42.3355255
  26.4909630  31.0928822  46.7379875  25.8279152  30.8373394  47.7500038
  27.3531590  30.2511215  46.1165733  27.6967125  30.5017967  45.2004776
  27.9828529  29.1188641  46.7632446  27.2597198  28.5593834  47.3566780
  28.3178654  28.4595528  45.9625053  29.0584316  29.5746384  47.7528877
  29.7799320  30.5170383  47.5122871  29.1920929  28.7491283  48.7834511
  28.4158344  28.1314106  48.9730530  30.2490654  28.6783600  49.7680740
  31.0559998  29.3915310  49.5997124  29.6847992  29.1355267  51.1327324
  29.1436272  28.3148670  51.6036377  30.8512230  29.4479351  52.0738716
  30.4458694  29.9059277  52.9761086  31.4444389  28.5482273  52.2373314
  31.4532852  30.2513371  51.6494064  28.8118649  30.4570904  51.0941124
  29.5498123  31.2501812  50.9735298  28.1539936  30.3406849  50.2328606
  27.9806023  30.7362671  52.3616638  27.1946316  29.9958172  52.5102654
  28.5635147  30.8393993  53.2769089  27.5551910  31.7327042  52.2422867
  30.8222141  27.2297611  49.9004669  30.0336990  26.2709675  49.7517128
  32.1868439  27.0463371  50.1459961  32.7360916  27.8939323  50.1442032
  32.9276276  25.7912521  50.4572372  32.1810341  25.0096512  50.3165474
  34.0423698  25.5180168  49.4214706  34.5941963  26.4456425  49.2694969
  34.7551575  24.7966518  49.8210487  33.6082687  25.1587086  48.0102730
  32.8726044  25.8292561  47.5661316  34.5099983  25.0636940  47.4053230
  33.0244408  23.7424145  47.8938065  31.9494019  23.7728806  48.0711899
  33.1202736  23.4011993  46.8630371  33.5718803  22.7867527  48.8272858
  33.1103973  22.6968746  49.7211838  34.7480888  22.2147484  48.7182922
  35.4769592  22.3371220  47.6878090  36.3374176  21.8141727  47.6088753
  35.0942307  22.7254105  46.8376007  35.2978058  21.6368656  49.7420311
  36.2187347  21.2350063  49.6395531  34.7933846  21.7205200  50.6130447
  33.4197121  25.5451164  51.8818703  33.6476135  26.5481586  52.6407890
  33.7370796  24.2912655  52.1958694  33.2509422  23.5549698  51.7042961
  34.7511177  23.9464188  53.1854477  35.6757927  24.5132256  53.0768051
  34.3555374  24.2796402  54.1449203  35.1007614  22.4636211  53.1899300
  34.5722275  21.6143246  52.4224167  36.0019188  22.1068726  54.0630951
  36.2730179  22.7494831  54.7936134  36.3099747  20.6915359  54.3650627
  35.3783226  20.1306553  54.4394760  37.2606163  20.1403313  53.2241745
  38.2373581  20.6027603  53.3664246  37.3507462  19.0619106  53.3545189
  36.9777718  20.4414120  52.2154884  36.9391022  20.5623169  55.7848587
  37.3030319  21.5756550  56.3557816  37.0529633  19.3266163  56.2880135
  36.5564117  18.5760117  55.8296165  37.7045059  18.9184704  57.5080948
  38.6839027  19.3954391  57.5452690  36.8963661  19.3454914  58.7034111
  36.6193657  20.3917427  58.5740318  35.6008606  18.5718098  58.9425163
  35.0855255  18.1811867  58.0650520  35.8497696  17.7150288  59.5686760
  34.8394623  19.2261105  59.3670921  37.7738113  19.2211704  59.8018951
  37.3207245  19.4123592  60.6263695  37.9852562  17.3336506  57.5138702
  37.3515434  16.6737785  56.7100029  38.8727188  16.8747978  58.4233742
  39.3099823  17.5632477  59.0191422  39.3856506  15.4966173  58.6080055
  38.8395271  14.8751593  57.8983269  40.8883820  15.2554083  58.4454803
  41.1618881  14.2805223  58.8490829  41.3591499  15.3599720  56.9777985
  41.0072403  14.5378084  56.3546600  41.1706276  16.3536472  56.5713844
  42.4467354  15.2902136  56.9581223  41.5466232  16.2519054  59.2555466
  41.7411461  15.7862854  60.0722237  39.0049324  14.9122143  59.9444046
  38.8716660  15.5960321  60.9568024  38.9010124  13.5377502  59.9695015
  39.0586166  13.0550680  59.0964165  38.6394958  12.7828426  61.2229271
  38.6816063  13.4543962  62.0804482  37.1995354  12.2669601  61.2010727
  36.9809113  11.8905029  62.2003632  36.2109680  13.4323750  61.0092354
  35.1867485  13.0644732  61.0703087  36.3968697  14.1866398  61.7738457
  36.1839905  13.8494225  60.0025368  36.9879494  11.1183128  60.2048149
  37.6725655  10.3107166  60.4640312  36.0219116  10.6489859  60.3908348
  37.0682106  11.5278120  59.1978531  39.6250153  11.6673393  61.4192696
  40.1693077  11.0613661  60.5023270  40.0352974  11.4731865  62.6459656
  39.6181717  12.0824718  63.3350792  41.0711021  10.4647121  63.0238876
  41.8851776  10.3504181  62.3081245  41.6817169  10.9003077  64.3794479
  40.9188194  11.1991224  65.0983276  42.1748810  10.0587473  64.8659363
  42.5928001  12.1043844  64.1090698  41.9517899  12.9149885  63.7624741
  43.0620384  12.3369856  65.0650024  43.7403755  11.9194088  63.0301132
  44.5343361  10.9721785  63.1204834  43.8352318  12.7538157  62.1233597
  40.4116211   9.0570097  63.0294113  41.0997620   8.0726137  62.9860001
  39.0463524   9.0220947  63.1547508  38.5271072   9.8609591  63.3710632
  38.2287407   7.7991700  63.3381653  38.7614822   6.9313688  62.9493103
  37.9600258   7.5553446  64.8397293  37.6438293   8.4724073  65.3368378
  37.1669044   6.8205299  64.9779663  39.1724358   7.1795454  65.6976242
  39.6292801   6.3039088  65.2364807  39.9835472   7.9021053  65.6076050
  38.7871552   6.9313893  67.0879898  37.9926147   6.1861482  67.0503159
  39.5486221   6.4725456  67.7186508  38.2762070   8.1379652  67.8637314
  38.7893410   9.0078745  67.8709641  37.2378807   8.1935444  68.6674576
  36.6341324   7.1618853  69.1062775  36.8754082   6.2871308  68.6627731
  35.7320251   7.2535663  69.5511246  36.8015594   9.3937454  68.9711685
  37.2182159  10.2059736  68.5389862  36.0618439   9.5236044  69.6464920
  36.8850861   7.8477392  62.6014366  36.2208023   8.8577757  62.4660034
  36.4553375   6.7214017  61.9804115  37.1815186   6.0231280  61.9084473
  35.2241631   6.4009910  61.3229599  35.0109787   7.2811127  60.7162933
  35.3599930   5.3232489  60.3009911  36.3002014   5.3441310  59.7499275
  35.5927925   4.3587046  60.7521667  34.2166634   5.0971212  59.2893906
  33.5462952   6.0712109  58.9235725  34.0810776   4.0278492  58.6562958
  34.1195793   6.1702952  62.3530540  33.9108391   5.0833087  62.8440056
  33.4905319   7.2663932  62.7918282  33.8049469   8.1931190  62.5419846
  32.4413834   7.1573243  63.8306389  31.8039227   6.3006868  63.6117287
  33.0900841   6.8578825  65.2349930  33.7450485   5.9867144  65.2487411
  34.1424103   7.9005384  65.7282486  34.8263969   8.0916433  64.9013596
  33.6407967   8.8368683  65.9727249  34.6741257   7.4491034  66.5658569
  32.1369743   6.6912961  66.2261887  32.4549217   6.1821628  66.9753799
  31.5451088   8.4845543  63.8759651  32.0808182   9.5664654  63.6446266
  30.2750416   8.3608980  64.3120651  29.9718876   7.4684296  64.6749649
  29.4092960   9.5519056  64.5262527  29.3817444  10.0318584  63.5479965
  27.9816189   8.9813128  64.7844467  27.5512123   8.6425467  63.8420601
  27.9777298   8.1484680  65.4876175  26.9458103   9.9619989  65.3215332
  27.1355686  10.1606998  66.3763351  27.1199303  10.9267998  64.8451385
  25.4815483   9.5879087  65.0710297  25.0657196   9.2755871  63.8904495
  24.7434540   9.5217037  66.0925140  29.9120483  10.6114511  65.5185547
  29.7340813  11.7800808  65.2674713  30.5749168  10.1520844  66.5929184
  30.5810070   9.1604404  66.7845078  31.1334839  11.1149960  67.5764389
  30.3096046  11.7764101  67.8444901  31.5254421  10.3398733  68.8484116
  31.6581364  11.1628075  69.5507431  30.5847397   9.8665667  69.1297684
  32.7212143   9.3400412  68.6929703  32.3947372   8.6351156  67.9283829
  33.5863991   9.9512367  68.4360733  33.0620422   8.6061249  69.9989853
  34.2300797   8.3296385  70.2795105  32.0888329   8.3005896  70.7855988
  32.3602638  11.9078283  67.0095291  32.8988380  12.7830734  67.6796188
  32.8143044  11.6120768  65.7970734  32.4774704  10.7719316  65.3489609
  33.9300919  12.3199940  65.1330719  34.2442856  13.1711636  65.7371445
  35.1770859  11.3753538  65.0027924  34.8128662  10.4077940  64.6574326
  35.9090958  11.6938877  64.2606277  35.8693123  11.0879412  66.3705292
  35.1910248  10.5708065  67.0492020  36.5183487  10.2147102  66.3047485
  36.6197090  12.2657299  67.0633316  37.2483749  12.0551586  68.1299133
  36.7064896  13.4084330  66.5075836  33.4412766  12.9461613  63.8047295
  33.6000252  14.1462088  63.6712151  32.7463074  12.1442194  62.9332657
  32.5526886  11.1807041  63.1661835  32.1364975  12.6144466  61.7068672
  32.9237099  13.1973495  61.2287254  31.6855812  11.5212927  60.6888542
  30.9475040  10.9419165  61.2435303  31.0797100  12.0847902  59.3638191
  30.5194092  11.2524500  58.9379349  30.2698460  12.7361679  59.6923447
  31.8207626  12.4120169  58.6345291  32.8647881  10.5957823  60.2568359
  33.4190331  10.9788561  59.3999977  33.6823463  10.6268778  60.9770660
  32.3947868   9.2124081  60.0861359  31.9288731   8.9220991  61.0278091
  31.7384415   9.1329222  59.2195358  33.1695671   8.5190763  59.7588577
  31.1729088  13.7935762  62.0130615  31.3139076  14.8748102  61.3963585
  30.1773434  13.5377779  62.8718262  30.0343132  12.6217337  63.2724571
  29.2267551  14.5782166  63.1883926  28.8637905  15.0619535  62.2815552
  28.0435791  13.9860477  63.9742050  27.7369862  13.0629730  63.4822350
  28.2466316  13.7487240  65.0185013  26.8366070  14.8863468  64.0912857
  26.9404507  15.5472908  63.2307777  25.4793663  14.1599846  64.1375504
  24.6201782  14.8290100  64.1855698  25.4757862  13.4588671  63.3029709
  25.4804192  13.5430822  65.0361786  26.9866886  15.7855606  65.3029785
  26.1327896  16.4609318  65.2498322  26.8951321  15.2810955  66.2648697
  27.8032398  16.5069981  65.2734451  29.9411602  15.6688833  63.9758453
  29.6630859  16.8453579  63.6332359  30.7535954  15.3731508  64.9355087
  30.8228874  14.4336481  65.2997055  31.5031776  16.4349957  65.6731033
  30.7485638  17.0178413  66.2012634  32.3779297  15.8497820  66.7956161
  31.6583195  15.3138132  67.4144897  33.2478752  15.2591209  66.5085449
  32.8927879  16.9563866  67.7102661  33.2910042  17.8221760  67.1811752
  32.0723343  17.3138638  68.3324966  33.9675179  16.4579124  68.7733688
  35.1767349  16.7432384  68.6510468  33.6144066  15.7095604  69.7996292
  32.6587601  15.4716730  70.0238113  34.3262634  15.4335165  70.4608078
  32.2358932  17.4051208  64.8021698  31.9328995  18.5888252  64.7621841
  33.2659836  16.9940510  64.0686798  33.4886856  16.0094128  64.1001587
  34.1045341  17.9828625  63.3053741  34.3959465  18.7631721  64.0084381
  35.3910103  17.3312054  62.6542702  35.2266960  16.3072548  62.3186722
  35.7675095  17.8754139  61.7881393  36.4716301  17.4639912  63.7106857
  37.4271660  17.0533047  63.3845215  36.5544930  18.5211716  63.9628792
  36.3355293  16.5147171  64.9709854  35.4384499  16.8397350  65.4979706
  36.2406044  15.5203857  64.5346451  37.5484467  16.7182808  65.9144669
  38.4802971  16.4018955  65.4457932  37.5080299  17.7962265  66.0710220
  37.4035988  16.0559731  67.2619629  38.2477913  16.0164871  67.8150330
  36.7336464  16.4925480  67.8789520  37.1214943  15.0900593  67.1752167
  33.3908691  18.6959019  62.1503906  33.5637321  19.8920460  61.9131699
  32.3745308  18.0567608  61.5575485  32.1642914  17.1447220  61.9371452
  31.4409428  18.7702122  60.6605530  31.9949055  19.4057064  59.9696274
  30.5488853  17.7335415  59.9413338  30.0044994  17.1235371  60.6621933
  29.6421642  18.4940262  58.9215546  28.8006077  18.9800606  59.4151611
  30.1879864  19.2789135  58.3979797  29.1410751  17.7919483  58.2551460
  31.3507996  16.8477116  59.2014122  31.8628845  16.3640385  59.8536606
  30.5374432  19.8122349  61.3678818  30.3228893  20.8267860  60.7269554
  30.0477505  19.5972614  62.5726967  30.3030891  18.7571259  63.0717735
  29.2010632  20.6261578  63.2846107  28.4387741  21.0282078  62.6172485
  28.6414223  20.1054325  64.6537552  28.1098785  19.1612206  64.5353241
  29.4652863  19.8788795  65.3305283  27.5628242  20.9640255  65.2827454
  27.9252892  21.9882774  65.3701019  26.7099724  21.1022720  64.6181870
  27.1468010  20.4143391  66.6535110  26.5743999  19.4992580  66.5015793
  28.0079250  20.1004314  67.2434540  26.2189808  21.3428249  67.5033798
  25.5246658  21.8636589  66.8440170  25.6705666  20.7584209  68.2421722
  26.9312611  22.3955345  68.1783676  27.1970310  23.1544456  67.5672073
  26.1981945  22.7631626  68.7679138  27.7324944  22.1020947  68.7187576
  30.0857830  21.8018856  63.5307655  29.7913246  22.9235592  63.1188126
  31.3131390  21.5755310  63.9740105  31.5282612  20.6741352  64.3756409
  32.2754669  22.6657505  64.2873306  31.8016129  23.3309078  65.0092163
  33.5167160  22.0385056  64.9629440  33.8710899  21.2218857  64.3339310
  34.2680931  22.8239746  65.0440445  33.2258987  21.7073689  66.4155350
  33.2384377  22.6717091  66.9234619  32.2516594  21.2221489  66.4748230
  34.1274796  20.7196808  67.1737976  35.1217155  20.2222328  66.7123337
  33.6963882  20.3006668  68.3936691  34.3726921  19.8175125  68.9674988
  32.9596863  20.8137589  68.8563843  32.7072449  23.4312229  62.9999542
  32.7073708  24.6663399  63.0524216  32.8166161  22.6980896  61.8750572
  32.7810326  21.6896381  61.9182053  33.0164070  23.3264809  60.6072998
  33.8757362  23.9875126  60.7199669  33.3221741  22.1376915  59.6591187
  34.1727219  21.5543919  60.0118637  32.4307556  21.5138702  59.7248383
  33.4471283  22.4689407  58.1812363  32.6298141  23.0874233  57.8103180
  34.7578506  23.1894512  57.7992516  35.5772438  22.5662766  58.1575089
  34.8265877  23.3693542  56.7263985  34.7082253  24.1996212  58.2056961
  33.5028229  21.2123222  57.2823029  33.3702774  21.6089764  56.2757263
  34.4759903  20.7223396  57.2512665  32.7684669  20.4838200  57.6259804
  31.8315716  24.2249680  60.1458588  32.0001183  25.3640976  59.6865692
  30.5747375  23.7421856  60.1773949  30.4483681  22.8826122  60.6924362
  29.3639011  24.4315472  59.7353554  29.5602226  24.5425682  58.6689453
  28.1115379  23.5504284  59.9783134  28.1189556  23.1772022  61.0023956
  27.2676487  24.2403202  59.9778557  27.9278507  22.3789959  58.9203949
  28.8369541  21.7788982  58.8814774  26.8483486  21.3345737  59.3887939
  25.8765507  21.8282242  59.3850670  26.7403088  20.5294247  58.6620445
  27.1820316  21.0531349  60.3875694  27.4992237  22.8935146  57.5255623
  27.2145767  22.0703716  56.8701935  26.5654354  23.4164391  57.7321815
  28.1326103  23.5835743  56.9681168  29.2108612  25.7433300  60.4055443
  29.1377983  26.7810326  59.7232475  29.3061581  25.6498547  61.7216263
  29.6079216  24.7371578  62.0315018  29.1459484  26.7642593  62.6978683
  28.1049995  27.0617523  62.5712814  29.3369350  26.2536621  64.1639099
  30.1751423  25.5568829  64.1668472  29.5306931  27.1019421  64.8204041
  28.0319824  25.5113354  64.5520859  27.2073879  26.2217560  64.4933701
  27.9000874  24.6862278  63.8521538  28.1099281  24.7974720  65.9840164
  29.1918488  24.2078190  66.3316269  27.0739670  24.9025040  66.7495575
  30.1364536  27.9440155  62.3400841  29.6436348  29.0996952  62.3288002
  31.3930416  27.6256161  62.0023689  31.7266788  26.6843491  61.8513680
  32.2514229  28.7444115  61.5395393  32.2120361  29.6256294  62.1798553
  33.7012863  28.1978874  61.5845718  33.9597054  27.6521835  62.4920578
  33.8753014  27.5295696  60.7412643  34.7397652  29.2983208  61.4619331
  35.7540627  28.9051609  61.3931694  34.5305862  29.7917328  60.5127831
  34.6630821  30.3789425  62.6017265  33.7516747  30.9715862  62.5229034
  34.6519203  29.8691158  63.5650787  35.8421249  31.3535061  62.4773941
  36.7144394  30.8257217  62.8628922  36.0760536  31.5688934  61.4348068
  35.6242905  32.5687561  63.1684265  36.3528671  33.2657890  63.2269783
  34.9909325  33.2115936  62.7148628  35.3258324  32.3572693  64.1098633
  31.9236946  29.2978153  60.1489220  31.8987694  30.5408573  60.0581932
  31.5473518  28.4650631  59.1343918  31.5655823  27.4737682  59.3270149
  31.2220058  28.9230843  57.7918167  31.9799461  29.5601959  57.3360596
  30.9175301  27.6487923  56.9214363  30.1422768  27.0806122  57.4355049
  30.4152851  28.1243954  55.5207939  31.0788498  28.8538761  55.0564270
  30.3565083  27.1780262  54.9831810  29.4081078  28.5282688  55.6236496
  32.1425934  26.6870327  56.5869560  32.7719574  27.1220303  55.8105698
  32.6391869  26.5458488  57.5469360  31.8309155  25.2252903  56.2044334
  31.0862656  24.7369823  56.8330460  31.3977032  25.2433262  55.2043839
  32.7423744  24.6282310  56.1752281  29.9711647  29.7954559  57.9126968
  29.9167805  30.8961353  57.3453712  29.0319691  29.3888607  58.7861786
  29.2659817  28.5133686  59.2321053  27.7926846  30.0997372  58.9785805
  27.3366013  30.1798096  57.9918289  26.9437733  29.2746449  59.9259071
  27.5379524  29.0009289  60.7977638  25.8643398  30.1953182  60.5444565
  25.2343464  29.5810509  61.1878014  26.3177452  30.9360085  61.2031708
  25.4521103  30.7586861  59.7073288  26.2961693  28.0077477  59.2709045
  25.4170475  28.1953411  58.6544151  27.0213203  27.5568485  58.5934448
  25.9559612  26.9317245  60.3211708  26.8309231  26.7909775  60.9557838
  25.1453400  27.3221664  60.9364357  25.7126293  25.9685383  59.8726578
  28.0545063  31.5207710  59.5265083  27.6000843  32.4923820  58.9524727
  28.8899632  31.6487865  60.5759621  29.2414551  30.7828236  60.9589272
  29.2159939  32.9239082  61.3369331  28.3224792  33.5167847  61.5324593
  30.0200939  32.6266670  62.6317787  29.4630013  31.9508991  63.2806931
  30.9777946  32.1838799  62.3582001  30.4158192  33.8459625  63.4717789
  31.1257839  33.3797340  64.1549149  30.9014740  34.4937973  62.7420197
  29.1648312  34.4559441  64.1543732  28.0331516  33.8565598  64.1796646
  29.1445789  35.6825943  64.5315857  30.0236263  33.8181877  60.3052406
  29.6195774  34.9581985  60.0657158  31.0799522  33.2967072  59.6934128
  31.1811943  32.2928543  59.7395439  32.0112610  34.0352020  58.7925224
  32.4496994  34.8498001  59.3689804  33.1783905  33.0953827  58.5236549
  32.8967094  32.0732193  58.2708092  33.7571259  33.4821968  57.6848831
  33.9672470  32.9463120  59.7990379  33.3844414  32.4585571  60.5804062
  34.8175583  32.2787514  59.6596451  34.5083160  34.2863197  60.4562836
  34.4124641  34.4400482  61.6817322  34.9877090  35.1340294  59.7038918
  31.3345032  34.5300789  57.5286407  31.8033676  35.5373268  56.9266472
  30.1495247  34.0116501  57.1126289  29.7427368  33.2601318  57.6510010
  29.3930893  34.5880623  56.0403519  29.9424934  35.4096375  55.5807114
  29.2142563  33.5631485  54.9374008  28.7984924  32.6600342  55.3841896
  28.5150795  33.8336220  54.1461372  30.5415325  33.2092552  54.2680435
  31.0981216  34.0313911  53.5551529  31.0992355  32.0182152  54.5404930
  31.9952278  31.7859898  54.1363068  30.6385632  31.4296284  55.2197952
  28.0925102  35.3241043  56.4075775  27.3112411  35.6101608  55.5772209
  27.8109150  35.5952644  57.6935196  28.5795898  35.5105553  58.3431816
  26.5706577  36.2943993  58.2609596  26.6046009  36.1777687  59.3441696
  26.5938244  37.7837486  57.9414368  26.4749107  38.0090332  56.8816223
  25.7249908  38.2065659  58.4458771  27.8799763  38.3605576  58.4094925
  28.1833725  38.6943321  59.7254753  27.5376663  38.8416786  60.4880066
  29.4503231  39.1279907  59.7376595  30.0128651  39.3265114  60.6379585
  29.9767818  38.9408836  58.5378151  30.9364624  38.7058258  58.3283882
  29.0023346  38.4916840  57.7038193  29.0747128  38.2356873  56.6570969
  25.3098164  35.5709915  57.8710632  24.2572956  36.2723579  57.8215904
  25.3511829  34.2356644  57.7953720  26.2270985  33.7364120  57.8555145
  24.2032013  33.4223747  57.2528000  23.7369328  34.0181656  56.4681168
  24.7966442  32.2170029  56.4576149  25.2032700  31.5219994  57.1922798
  23.8403664  31.4243546  55.5694427  24.3098450  30.4922314  55.2550621
  23.0354252  31.0169811  56.1811752  23.5294857  32.0245285  54.7143135
  25.7869282  32.7330780  55.7180595  25.3834896  33.4814377  55.2721939
  23.2312164  32.9267464  58.4011154  23.6586590  32.4623604  59.4300194
  21.9803658  32.9722519  58.0741196  21.8273354  33.3168182  57.1371269
  20.8370628  32.3416862  58.7990532  21.2658844  31.6640129  59.5372772
  20.1040154  33.4415512  59.5479469  19.6205463  34.1326370  58.8574677
  19.2566319  32.9511833  60.0270844  20.9672527  34.1834297  60.5340042
  21.8284397  34.6395683  60.0457420  20.3585587  35.0354233  60.8368263
  21.3079433  33.4213219  61.7914581  20.4006157  32.9930878  62.2174492
  22.0029812  32.6233788  61.5300980  22.0375328  34.2051964  62.9249001
  22.9436321  34.7111969  62.5916595  21.3950577  35.0364838  63.2152214
  22.3890495  33.3081436  64.1276016  22.8830318  33.7940140  64.8624496
  21.5715733  32.9212799  64.5772400  23.0480499  32.6033211  63.8292007
  20.0697479  31.4433250  57.8031235  20.1538105  31.7177658  56.5659065
  19.3813591  30.3955574  58.2467690  19.2240772  29.9058666  59.6488762
  19.1348743  30.7036419  60.3862381  20.1777496  29.4126396  59.8368607
  18.1100883  28.9220943  59.6555519  17.1595116  29.4336014  59.8067741
  18.2367039  28.1857224  60.4491692  18.2674675  28.2536640  58.3204842
  17.3455029  27.9719772  57.8118248  19.0706654  27.5319347  58.4690742
  18.8943214  29.2802620  57.3823318  19.7425518  28.8412991  56.8570557
  17.9055195  29.7755852  56.3012161  17.5570107  29.1333294  55.2944031
  17.2404537  30.9316216  56.6542282  17.4193249  31.2562332  57.5937653
  16.3730316  31.7052269  55.7406464  15.6103039  30.9989834  55.4126701
  15.7568417  32.7468910  56.7085991  15.1328316  32.2399292  57.4446068
  16.5635834  33.2366371  57.2539597  14.7694826  33.6419640  55.9748192
  14.4436998  34.3898392  56.6977654  15.3248434  34.1985703  55.2199287
  13.4916458  33.0101814  55.3141594  12.3894396  33.6641083  55.4286728
  13.5467596  31.9425831  54.7205734  17.0309639  32.2395477  54.4475250
  16.3656082  32.3745346  53.4848976  18.3855267  32.3788147  54.4346657
  18.8536797  32.1145592  55.2897110  19.2019482  32.6732330  53.1655464
  18.7416515  33.4293671  52.5295563  20.5839958  33.1679840  53.5451927
  21.1109829  32.3061333  53.9545746  21.1136513  33.5033989  52.6535301
  20.6179790  34.3284721  54.5656471  19.7469635  35.2586060  54.5006905
  21.6233940  34.3495941  55.3326874  19.3541794  31.3738194  52.2920036
  19.5904846  31.4999924  51.0988922  19.3520737  30.1754341  52.9116936
  19.0742416  30.0702667  53.8770218  19.8713207  28.9166908  52.2543106
  20.7922039  29.2358284  51.7662201  20.2350540  27.7546387  53.2496986
  19.2839203  27.5141182  53.7246666  20.7834187  26.6300945  52.4046326
  21.2295322  25.9104137  53.0910225  20.0277309  26.0991669  51.8257065
  21.4908924  27.0055161  51.6652756  21.3439960  28.1405907  54.2409019
  22.1488762  28.6455288  53.7067604  20.9100380  28.7784348  55.0109215
  21.7098999  27.2553005  54.7609673  18.8381481  28.4156895  51.1915131
  17.6451206  28.2168732  51.4225540  19.3630085  28.2802372  49.9868355
  20.3232021  28.5279293  49.7950706  18.7680340  27.5990601  48.8496857
  17.7115936  27.8670292  48.8646774  19.3350716  27.9246655  47.4952736
  20.4017639  27.7013607  47.5153313  18.6616135  27.2155056  46.2923813
  18.5927696  26.1327248  46.3970032  17.6575222  27.6395569  46.2831802
  19.1384926  27.4121151  45.3321571  19.2336407  29.3991470  47.3668976
  19.7625027  29.9003334  48.1775856  19.8708248  29.6390171  46.5156860
  18.2595901  29.8135033  47.1068344  18.8698788  26.0809231  49.0832520
  17.8508530  25.4090881  49.1509857  20.0056248  25.4082565  49.2754631
  20.8001270  26.0132122  49.4267769  20.1774788  23.9679737  49.6093445
  19.4426193  23.6413403  50.3451385  19.8365726  22.9990520  48.4053802
  19.6980209  21.9924412  48.7998848  18.8289032  23.1518745  48.0189171
  20.7678413  23.0602341  47.1663818  21.4541759  23.9068737  47.1820679
  21.3807888  22.1591568  47.1877670  20.1094646  23.0234737  45.7963715
  19.2767067  23.8244648  45.4245453  20.6837749  22.1558361  44.9813881
  21.2886047  21.4312325  45.3408737  20.2903252  22.1217289  44.0517998
  21.6271286  23.7598782  50.0576744  22.4600430  24.6752300  50.0177574
  21.8909130  22.6414528  50.6969795  21.1300106  21.9849644  50.7977257
  23.2731247  22.1765614  51.0859299  23.9556923  22.8401852  50.5550804
  23.4772797  22.2694721  52.5937462  23.1570587  23.2664471  52.8964043
  22.8946991  21.5694637  53.1926537  24.8757725  22.1890736  53.1025314
  25.1759338  21.1503563  52.9644241  25.5105324  22.8897610  52.5601196
  25.0371838  22.3686695  54.8832741  24.7231407  24.1253624  55.2070007
  24.7056942  24.3015995  56.2825203  25.5935001  24.5744781  54.7285957
  23.7479973  24.3959217  54.8020363  23.7075272  20.7863865  50.5650673
  22.8751659  19.8968792  50.4479485  24.9639034  20.5209827  50.3445015
  25.6409340  21.2567234  50.4873848  25.5610981  19.3097649  49.9303017
  24.8733253  18.4728203  50.0510902  25.7815304  19.3988171  48.4230881
  24.8202343  19.4935608  47.9180794  26.4186611  20.2609005  48.2256508
  26.5872898  18.2432404  47.7670746  27.5455627  18.2704029  48.2857971
  25.9888191  16.8626652  47.9704094  25.0351963  16.7883568  47.4477386
  26.6517487  16.0954647  47.5703773  25.7979832  16.6183796  49.0153999
  26.6000004  18.4506302  46.2497940  27.0068054  17.6539021  45.6270332
  25.5947380  18.6682301  45.8889656  27.0152493  19.4424667  46.0711212
  26.8266582  19.0000954  50.7060242  27.7621937  19.7694130  50.6344147
  26.8360710  17.9135666  51.4315071  26.1567326  17.2050171  51.1936913
  28.0916691  17.4107914  52.0585938  28.8508415  18.1820526  51.9285393
  27.9858475  17.4204655  53.6147919  27.1643791  16.7632484  53.9000206
  28.9320469  16.9873047  53.9391060  27.5621605  18.8257446  54.2204552
  28.0388165  19.6613750  53.7079926  26.0361137  18.9864235  54.3837662
  25.8721561  19.8995686  54.9559441  25.5645084  18.9808216  53.4010887
  25.7264633  18.1468163  55.0060768  28.1480446  18.8861656  55.6438141
  27.8756084  18.1238594  56.3737259  29.2200336  18.6892834  55.6571922
  27.9697781  19.9063339  55.9837761  28.6540890  16.1162682  51.4229965
  27.8820534  15.3351440  50.8556976  29.9563732  15.8725281  51.4552879
  30.5897160  16.4322033  52.0082245  30.6096382  14.8038120  50.6428452
  29.8327484  14.0423965  50.5736580  30.9505272  15.3643160  49.2312355
  30.1627522  16.0365429  48.8912048  31.7576561  16.0684834  49.4332047
  31.4647522  14.3867865  48.3765984  32.2221413  14.8231726  47.9796944
  31.7374268  14.1711311  51.3716393  32.4876518  14.7930889  52.0976486
  31.8995152  12.8697014  51.1670265  31.3743916  12.3587370  50.4718590
  32.9388199  12.1143799  51.8901482  33.7129059  12.7388277  52.3362007
  32.3227425  11.4312553  53.1239967  31.6203918  10.6591091  52.8100052
  33.0508270  10.9563961  53.7816505  31.8284569  12.2331343  53.6724205
  33.7222672  11.1905708  50.9447479  33.3748512  10.9306841  49.8002243
  34.9831352  10.8995295  51.4357414  35.1374969  11.2039022  52.3863373
  35.8746681   9.9478617  50.8001823  35.9331245  10.1520929  49.7310829
  37.2422981  10.1023922  51.4101372  37.9143257   9.3264952  51.0434418
  37.7653084  11.4868793  50.9831505  38.6554909  11.6793146  51.5820312
  38.0889473  11.4747267  49.9423752  37.0174446  12.2793398  51.0115547
  37.2541122   9.9527273  52.8088799  37.5309448   9.0534286  52.9992180
  35.4619370   8.5067396  51.0071869  34.7990227   8.1229486  52.0478439
  35.7979164   7.5754557  50.1071014  36.5001945   7.8645988  48.8960304
  37.4896164   8.2940407  49.0532722  35.9647064   8.5810013  48.2730370
  36.7143402   6.4981027  48.1645012  37.6674004   6.1579900  48.5695953
  36.6423264   6.6101289  47.0826683  35.4433632   5.7219000  48.6270981
  35.4462433   4.6326685  48.5862732  34.5713730   6.0417647  48.0566444
  35.2832947   6.2401447  50.0530739  34.2075233   6.3108006  50.2137794
  35.8114243   5.2505445  51.0904884  35.3344307   4.1128201  51.1639404
  36.7015915   5.6653709  51.9609528  37.1034584   6.5909624  51.9175529
  37.0965996   4.8425050  53.1768036  37.1035423   3.8052795  52.8418083
  38.6024094   5.2162948  53.4586067  38.9746094   4.6125050  54.2862549
  39.2858849   4.9649591  52.6475639  38.8454895   6.7310023  53.7077141
  39.8857956   7.0306211  54.3476753  38.0894737   7.6139455  53.2579689
  36.1087990   5.0702105  54.4166183  36.0334320   4.2057357  55.2795792
  35.3796310   6.2063131  54.4975128  35.3806572   6.7575388  53.6511955
  34.3853683   6.5515790  55.5122757  34.7294197   6.2886529  56.5125771
  34.0309334   8.0830383  55.5835266  33.6782265   8.3522797  54.5879326
  33.2201653   8.1811991  56.3054123  35.3174438   8.8218660  56.0632706
  36.1976547   8.6292295  55.4499016  35.1054344  10.2993193  55.8587685
  34.7983322  10.4743996  54.8276825  34.4345474  10.6106958  56.6594276
  36.0260239  10.8652258  56.0014801  35.6533699   8.4271183  57.5040970
  36.1873512   9.1611233  58.1075859  34.7173004   8.1731663  58.0014687
  36.3533783   7.5917153  57.5179405  33.1193733   5.7242103  55.2836380
  32.5343399   5.5390325  54.1652603  32.6758461   5.0485492  56.3023720
  33.1574554   5.1310368  57.1863098  31.4450436   4.2619548  56.3174820
  30.8667316   4.4999061  55.4247131  31.8205471   2.8141441  56.3016739
  32.2833214   2.6116102  57.2675514  30.9375076   2.1796656  56.2256775
  32.7443810   2.4064007  55.1823311  32.6700706   2.7508848  53.7979698
  31.9794178   3.3857100  53.4236755  33.8362503   2.3054953  53.2647552
  34.1045380   2.2897272  52.2187271  34.5870247   1.6977504  54.2201004
  35.4336395   1.1541109  54.1317711  33.8668747   1.7677635  55.3595734
  34.1960602   1.3114791  56.2814484  30.4543514   4.4236369  57.4507523
  29.4494781   3.7466497  57.4495277  30.7722435   5.1882186  58.5318375
  31.7172642   5.5359912  58.6098900  29.9656143   5.2232499  59.7961464
  29.8494911   4.2176514  60.2003593  30.8861465   5.9149756  60.8338165
  30.9453735   6.9881148  60.6522560  30.4668941   5.7398100  61.8245964
  31.8856716   5.4891291  60.7460251  28.6261997   5.8641086  59.6302109
  27.7275505   5.1636500  60.0213013  28.4687519   7.0442691  59.0630760
  29.2862110   7.4403019  58.6214638  27.2846432   7.8265333  59.0889740
  26.4881134   7.1109996  58.8848801  27.1438446   8.5621071  60.4485016
  27.1776905   7.7805252  61.2075043  28.3952332   9.4261026  60.9019928
  29.0201988   9.8338890  60.1074905  27.9898491  10.2691965  61.4614182
  28.9484825   8.7475986  61.5513344  25.7952118   9.2059755  60.6118355
  25.5723801  10.0134192  59.9143562  24.9793110   8.4832258  60.6179199
  25.7711220   9.6095581  61.6240768  27.2996044   8.9292240  58.0424194
  28.4198856   9.4153261  57.7816200  26.1530209   9.3037605  57.4114189
  25.3058872   8.8217812  57.6763000  26.0398350  10.3277092  56.3862724
  26.8244514  10.0553951  55.6803513  24.6772041  10.4325953  55.6699524
  23.9154472  10.7312078  56.3901291  24.7490082  11.1751842  54.8752785
  24.2677174   9.1620855  54.9067078  23.1523628   8.4036903  55.3414459
  22.7339382   8.7605524  56.2709465  22.6356316   7.4211574  54.4958649
  21.7484608   6.8696156  54.7699623  23.2442150   7.1329551  53.2913437
  22.7537136   6.4645700  52.5991974  24.3330078   7.9267287  52.7675743
  24.7898846   7.7768378  51.8005180  24.8133774   8.9097691  53.6150627
  25.6544151   9.4947901  53.2732925  26.3943825  11.6945457  57.0199432
  25.7457714  11.9599276  57.9933052  27.2745056  12.5561190  56.4281273
  28.1969795  12.2524710  55.3396988  27.7955627  11.6004105  54.5639496
  29.0106735  11.7810717  55.8908653  28.7686863  13.5738993  54.8769226
  28.1399841  14.2213125  54.2656136  29.7335091  13.4411011  54.3874512
  28.9444580  14.3114004  56.2200890  29.0850945  15.3844318  56.0899849
  29.7811794  13.8894758  56.7768517  27.6933823  13.9179783  56.9207611
  27.9771938  13.7175093  57.9538956  26.6491871  15.0537024  56.9233513
  26.6198063  15.9855499  57.8043823  25.6182804  14.8068209  56.1406670
  25.7094173  13.9368801  55.6356926  24.3679523  15.4894867  56.1113739
  24.4921551  16.4545670  55.6201553  23.5176220  14.6986227  55.1641083
  22.5020123  15.0853863  55.2480812  23.8187561  14.8581114  54.1287422
  23.6012211  13.6227951  55.3180771  23.6246300  15.6229067  57.4685898
  22.9218979  16.5712032  57.6613731  23.8910103  14.7213745  58.4029922
  24.5979786  14.0314293  58.1925812  23.2453747  14.6379776  59.7045860
  22.1729984  14.5508661  59.5298882  23.6179943  13.3093596  60.4609795
  23.6345863  12.5291481  59.6999931  24.6075096  13.3406286  60.9170265
  22.6461010  13.0021620  61.5937958  22.7867470  13.7389193  62.3846893
  21.6001205  13.0046930  61.2871742  23.1459866  11.6747189  62.1433105
  23.0317230  10.8005495  61.5023155  24.2303696  11.7266369  62.2408676
  22.5531120  11.4438200  63.5077553  23.2202549  11.9572163  64.2001801
  21.6456642  12.0395412  63.6065216  22.3714237  10.0479927  63.8948936
  21.8706589   9.6417046  63.1175499  23.2338428   9.5345020  64.0074310
  21.7986622  10.0288668  64.7265625  23.5456333  15.8531675  60.5896683
  22.6802845  16.3903713  61.3065262  24.7457199  16.3983917  60.6361656
  25.4920063  15.9451485  60.1284981  25.1423035  17.6110668  61.3703537
  25.2511311  17.3626404  62.4260750  26.6293468  17.8911190  60.9369659
  27.2273941  18.5087490  61.6070137  27.0521393  16.8944035  60.8108444
  26.5752659  18.4427204  59.9983978  24.3049717  18.9023113  61.3905449
  24.4809742  19.6531029  62.3255501  23.4146576  19.1346855  60.3742790
  23.3999176  18.4769535  59.6079407  22.7820034  20.4248657  59.9974594
  23.3620358  21.2544479  60.4017639  22.5848408  20.5417614  58.4989166
  21.6225033  20.1167088  58.2137184  22.4787750  22.0110435  58.1323280
  23.3024940  22.5815144  58.5614548  22.4876251  22.2752647  57.0748749
  21.6032352  22.4311962  58.6273155  23.6992455  19.9005756  57.6896057
  23.8033028  20.1883621  56.6434479  24.7009411  20.2061310  57.9918365
  23.7432308  18.8157043  57.7856293  21.5020256  20.5195408  60.8146362
  21.3292599  21.5436420  61.4494858  20.6721783  19.4927940  60.8005943
  20.7894859  18.7331352  60.1454163  19.5670795  19.3888950  61.6756859
  18.9210262  20.2497253  61.5033836  18.8180046  18.0887604  61.1927299
  18.5913105  18.1548023  60.1286125  19.4928150  17.2396908  61.3014069
  17.3301773  17.8016338  61.7066154  17.3623734  17.7488804  62.7948608
  16.6953049  18.6765137  61.5665321  16.6073418  16.5048122  61.2003288
  17.3489056  15.7483826  60.9434204  15.9091387  16.1517124  61.9592323
  15.7474709  16.7061882  60.0102272  16.0977020  16.2526188  59.1785316
  14.6203785  17.3541431  59.9084244  13.9905939  17.8998108  60.9317245
  14.3875885  17.7765675  61.8522186  13.2479849  18.5487766  60.7138367
  14.0613308  17.5594807  58.7342606  13.1668386  18.0283947  58.7240257
  14.6397619  17.4025764  57.9213028  19.8133602  19.3676872  63.1627769
  18.8516388  19.5024757  63.8701096  21.0489235  19.1927757  63.7041206
  21.8913307  19.1649456  63.1476326  21.2885628  19.5883255  65.1209641
  20.6060143  19.0183506  65.7513351  22.7211628  19.2145424  65.4748611
  23.4459438  19.9143829  65.0589066  23.0031185  19.2785702  66.5258179
  23.0452576  17.7047386  65.3547745  23.0436192  17.3128910  64.3376465
  24.0785179  17.6434650  65.6964188  22.0572662  16.8774681  66.1452637
  21.8241158  17.1663322  67.3107071  21.5528259  15.8490314  65.6345367
  21.1994610  21.0639305  65.4994583  20.9046383  21.2897758  66.6625595
  21.3635597  22.0137405  64.5981598  21.3371944  21.7173138  63.6329994
  21.2545204  23.4402237  64.9948044  21.7197704  23.6468315  65.9586334
  22.0115662  24.3177834  63.9405975  21.6455479  24.1257687  62.9320068
  21.8538933  25.3662872  64.1933517  23.5531769  24.0592823  63.7465286
  23.6282883  22.9925423  63.5355263  24.0136337  24.9861240  62.5635071
  25.0828838  24.9198799  62.3624725  23.5415668  24.6550312  61.6385002
  23.7031937  26.0058365  62.7913551  24.3421535  24.3667583  64.9753036
  24.0171642  23.8005714  65.8481674  25.3906937  24.1542149  64.7667542
  24.1653290  25.4174156  65.2054138  19.8256130  23.8997192  64.8681335
  19.0751534  23.6388035  63.8695374  19.4333496  24.5169430  65.9131927
  20.0558243  24.7287693  66.6798477  18.0283146  24.9562073  66.0718994
  17.4455700  24.0652695  65.8379364  17.8058414  25.5314465  67.4865189
  18.2394218  24.8215218  68.1908722  18.1798038  26.5385513  67.6708832
  16.3876495  25.5873852  67.8499451  16.0160389  24.7535038  68.1468506
  17.6212177  26.1119461  65.1033325  18.3055611  27.1714001  65.1209030
  16.6610165  25.8906689  64.1809006  16.1577530  25.0151119  64.1960068
  16.2243805  26.8310547  63.0889282  15.1594467  27.0600853  63.1284332
  16.7053909  27.7930603  63.2657738  16.5326538  26.3437958  61.6821480
  16.0581150  26.9698696  60.7296143  17.4588509  25.3337269  61.6101341
  17.7348824  24.8770123  62.4676437  17.9560509  24.7283955  60.3619766
  18.0619259  25.4751778  59.5750771  19.4311752  24.3204746  60.5393448
  19.4686470  23.7688026  61.4786797  19.7189274  23.5802784  59.7927437
  20.2282619  25.5384922  60.5469246  20.4765224  26.3393192  61.6124802
  20.1009541  26.2768116  62.6231461  21.3255501  27.3734627  61.1843529
  21.6676579  28.1028805  61.7934608  21.7093582  27.2746105  59.8730545
  22.6345100  27.9488907  59.1676521  23.1210728  28.8076763  59.6059990
  22.8840351  27.5088024  57.8319168  23.4560127  28.0361748  57.0828362
  22.2560329  26.2754135  57.3534241  22.5048752  25.9160442  56.3658333
  21.4327450  25.5372524  58.1825829  20.8163815  24.7206364  57.8367043
  21.0680065  26.0147934  59.4710770  17.0626488  23.5409374  59.7687111
  17.3472672  23.0047550  58.7055359  16.1274147  23.0609207  60.5954170
  15.8492365  23.6108017  61.3956375  15.2508736  21.8118324  60.2955055
  16.0030956  21.0374146  60.1453857  14.1567488  21.4782906  61.3566208
  13.5072336  22.3435555  61.4890900  13.6691055  20.6226254  60.8895645
  14.7876177  21.0662556  62.6304092  13.9380598  20.8448238  63.2764091
  15.2097712  20.0622940  62.5862236  15.6269112  22.1213837  63.3552017
  15.2176714  23.1666336  63.7502670  16.8778877  21.9289398  63.6074791
  17.2334499  21.0002747  63.4306870  17.4100819  22.5669899  64.1817245
  14.5006437  21.9540482  58.8879738  14.2512741  20.8937511  58.2711296
  14.1557198  23.1558723  58.4292641  14.4528065  24.0509834  58.7906723
  13.3837900  23.1449852  57.1142273  12.8268213  22.2244911  56.9393654
  12.2703600  24.1928082  57.0753784  12.5898476  25.2092876  56.8456001
  11.6218195  23.9606876  56.2306213  11.3043594  24.2111683  58.2745171
  10.5531483  23.0982437  58.5273933  10.5946360  22.2609921  57.8464470
   9.6044493  23.0270863  59.5955544   9.1355152  22.0739994  59.7908401
   9.6537046  24.0695019  60.5580864   8.8183947  24.1192207  61.6317825
   8.6725817  25.0451145  61.8392906  10.3979053  25.2352276  60.2492104
  10.3896646  26.0629425  60.9429092  11.1512623  25.3672752  59.0445747
  11.5360641  26.3007011  58.6611137  14.2698717  23.1697330  55.9215088
  13.7675209  22.9275379  54.8203850  15.5854378  23.4230347  55.9928932
  15.9956913  23.6044121  56.8978233  16.5202503  23.4576702  54.8331718
  16.1883659  24.1616669  54.0700569  17.9527950  23.9356842  55.2853394
  18.4376621  23.2237377  55.9532814  18.9236641  24.1492615  54.0638504
  19.8764954  24.5323448  54.4291801  19.1915112  23.2622871  53.4897156
  18.5665970  24.9519005  53.4185753  18.0593834  25.2618561  56.0126076
  17.3948116  25.2514629  56.8765182  19.0584469  25.4232731  56.4174767
  17.7552280  26.0455952  55.3188210  16.7828236  22.1571617  54.1102142
  17.0842762  21.1246262  54.7518997  16.7866974  22.1794643  52.7710114
  16.4029808  23.2100983  51.8215942  17.1431770  24.0000267  51.9489632
  15.3660192  23.4433956  52.0632210  16.4988556  22.5877724  50.5037231
  17.4201794  22.8231068  49.9709167  15.7075558  23.0022564  49.8791046
  16.4132462  21.0479984  50.6674805  17.0167904  20.5074654  49.9383278
  15.3798313  20.7191811  50.7771683  17.0977592  20.9172134  52.0871124
  16.5081635  20.1162472  52.5331306  18.6031456  20.6092072  52.0312386
  19.4403591  21.3194351  51.4329834  19.0004578  19.4824219  52.6028748
  18.3055286  18.8750305  53.0130653  20.3850288  19.0362968  52.8972435
  21.1190014  19.7518215  52.5265541  20.5042973  18.9314518  54.4656067
  19.5913887  18.5302429  54.9057579  21.6400623  18.0651169  55.0143929
  21.4708519  16.9982834  54.8683319  22.5490818  18.2280731  54.4354019
  21.7106743  18.1930428  56.0945549  20.7468719  20.2925568  55.0647392
  20.3838291  20.2363815  56.0909691  21.8002129  20.5725422  55.0513039
  20.1548061  21.0400429  54.5366974  20.7061558  17.7641716  52.1918144
  19.8530827  16.8467484  52.3244476  21.8628502  17.5374756  51.5665932
  22.5995979  18.2220707  51.6595459  22.1043606  16.3868713  50.7188911
  21.4430828  15.5573559  50.9693184  21.7795925  16.7350311  49.2819290
  21.8613930  15.8122120  48.7076302  20.3637848  17.2862110  49.0468712
  19.7186241  16.5534210  49.5315247  20.2326126  18.1958656  49.6328926
  20.1260586  17.3579426  47.9855270  22.6058807  17.6997147  48.7144165
  22.6314392  18.3384171  49.4306602  23.5559845  15.9289770  50.8592339
  24.4643478  16.5189495  51.4829369  23.8477383  14.8375492  50.1819496
  23.1296482  14.3317766  49.6833076  24.9312878  13.9894247  50.5060539
  25.7788982  14.5657148  50.8769264  24.5850391  13.1219177  51.6911201
  24.2833977  13.7286139  52.5449524  23.6874962  12.5741520  51.4039307
  25.8725891  12.0215216  52.2226753  25.6725788  10.9436178  51.4591217
  25.3307686  13.2715836  49.2461624  24.4655647  12.7692251  48.5189743
  26.6366138  13.1271410  48.9154015  27.2718849  13.5298901  49.5894356
  27.3141270  12.3584604  47.8284760  26.5790863  11.6209497  47.5061531
  27.4658508  13.3345070  46.6563950  27.7326908  12.7187967  45.7974434
  26.5685234  13.9250221  46.4714813  28.6402245  14.3832560  46.7683907
  28.6077766  14.8838663  47.7360878  29.6086292  13.8906527  46.8557663
  28.7673016  15.7159595  45.6264954  30.5376873  16.0123653  45.6738510
  31.0566349  15.0574446  45.7570000  30.8046246  16.5574608  44.7684708
  30.7076950  16.7262211  46.4798355  28.6384182  11.7982855  48.2976112
  29.2871208  12.1787033  49.3553352  29.2295189  10.9120865  47.4912376
  28.7608776  10.6229706  46.6445427  30.6170673  10.4643097  47.5124359
  30.9621964  10.3958321  48.5440865  30.6746273   9.0042467  46.9597168
  29.8602753   8.4504070  47.4268303  30.3985424   9.1425228  45.9143677
  32.0105782   8.2668486  47.1704903  32.1722183   7.5391440  46.3752441
  32.8589211   8.9508600  47.1470833  31.8910542   7.5495930  48.5305214
  31.4454727   6.4177699  48.6088181  32.0871086   8.3203745  49.5680809
  32.2808075   9.3069258  49.4716682  32.0269623   7.8682032  50.4692039
  31.5219822  11.3386164  46.6945610  31.3152351  11.6207829  45.5212021
  32.6401024  11.6818533  47.2608986  32.8174133  11.3498278  48.1981392
  33.7066383  12.4950151  46.5953140  33.1990013  13.2805395  46.0355339
  34.6474533  13.2137022  47.5821533  34.1030045  13.4774485  48.4888573
  35.4197235  12.4864798  47.8328476  35.4163208  14.3797569  46.9619293
  36.0399055  14.6631231  47.8098373  36.0953178  13.9971771  46.1998978
  34.6062889  15.5287609  46.5310211  35.1817017  16.4368420  45.9373360
  33.4846230  15.6949301  47.1389618  34.4197998  11.5532227  45.5125618
  34.5195808  10.3169746  45.8115845  35.1495399  12.0056381  44.5401115
  34.9577904  12.9678507  44.3003693  35.9032555  11.2117109  43.6459045
  35.3258553  10.4069004  43.1909447  36.3460426  12.0524511  42.4083710
  36.5076370  13.0759068  42.7467880  37.2106667  11.5713882  41.9510994
  35.3432083  12.2581587  41.2804031  35.0871429  11.2659845  40.9087563
  34.4506912  12.6547260  41.7644043  35.7094803  13.4450359  39.9418068
  37.4180336  12.9921064  39.5728989  37.9442711  12.8917599  40.5221634
  37.3402481  12.0556984  39.0204582  37.8509331  13.7510281  38.9211807
  37.1441498  10.5970726  44.2683372  37.9469414  11.3242273  44.8062935
  37.3058929   9.2625628  44.0458488  36.6539993   8.6975193  43.5206223
  38.5844116   8.6269827  44.3464813  38.8770447   8.9296274  45.3519020
  38.4909973   7.0752306  44.4933968  37.7489738   6.8297873  45.2531738
  38.3195419   6.6008487  43.5271339  39.7366257   6.5364041  45.1304588
  40.5124664   7.2505560  45.7941093  40.0839539   5.3444147  44.9260445
  39.7697678   9.0128908  43.4214172  39.8308220   8.5641317  42.2630806
  40.7337952   9.7527208  43.9962769  40.5704765  10.0859852  44.9356194
  41.8855629  10.2941618  43.2472229  41.9043083   9.8378286  42.2575188
  41.7429504  11.8090363  43.1665497  41.6326637  12.2789488  44.1438522
  42.9118958  12.4847231  42.4677315  43.7278137  12.6933956  43.1597061
  43.3710251  11.9431610  41.6406822  42.6628647  13.5068483  42.1825142
  40.4608192  12.1942768  42.3181496  40.5240364  11.8425102  41.2884064
  39.5616837  11.7233820  42.7155342  40.2501068  13.2636957  42.3255463
  43.1849747   9.9348831  43.9859123  43.3172035  10.1711903  45.1840363
  44.1744957   9.5208235  43.2284431  43.9761772   9.4005413  42.2454338
  45.4898453   9.2915497  43.7356415  45.3687935   8.5180559  44.4940338
  46.3685417   8.6797142  42.6721153  45.7674141   7.9473968  42.1331749
  47.0480385   9.6290054  41.7076721  46.2349358  10.2903051  41.4082603
  47.9665794  10.0999918  42.0577545  47.3506851   9.1032381  40.8020935
  47.3560715   7.8812432  43.2456207  47.2918320   6.9636197  42.9709549
  46.0849380  10.5397224  44.4004364  45.8701363  11.6541080  43.9224854
  46.7879181  10.3873692  45.5514107  46.9278259   9.4401112  45.8726997
  47.2793541  11.4103527  46.3810616  48.1322594  11.0612011  46.9630775
  47.7533722  12.0851374  45.6682663  46.2237244  12.2396984  47.2017860
  46.6173859  13.0565691  48.0255013  44.9082146  12.0244226  46.9085236
  44.7259293  11.2588854  46.2754173  43.7558479  12.5170975  47.6580963
  43.7827988  13.6007557  47.5438271  42.8201103  12.1589108  47.2289009
  43.6962013  12.0051641  49.0980988  44.2436256  10.9442177  49.4193001
  43.2088928  12.8556938  50.0300865  42.6971245  13.6439390  49.6601372
  43.0294991  12.5545464  51.4846420  44.0108337  12.2571812  51.8543167
  42.6937294  13.8783693  52.1961174  41.8555641  14.3565111  51.6892052
  42.4336433  13.6874971  53.2372818  43.8848686  14.9498577  52.2993698
  44.1072006  15.4839315  51.3755569  43.3585625  15.8957949  53.3241730
  42.3996315  16.3322430  53.0447693  43.2759857  15.4511509  54.3159256
  44.0648651  16.7252979  53.2900581  45.2577362  14.4363461  52.9629097
  45.6749992  13.6147766  52.3806496  45.9510155  15.2761698  53.0094261
  45.0570793  14.2593746  54.0195618  42.0747604  11.3997612  51.7861519
  40.9592743  11.1935930  51.1645966  42.4672241  10.5784426  52.6809540
  43.3046532  10.8785419  53.1592407  41.7064819   9.6111937  53.5317688
  41.1021767   8.9529114  52.9076042  42.6259918   8.7049437  54.2514000
  43.2850533   9.4006815  54.7707176  42.1363258   8.0052347  54.9286995
  43.6495399   7.8944788  53.4508667  44.2290268   8.6097374  52.8671722
  44.3465729   7.4009285  54.1281052  43.0475693   6.8796000  52.4391174
  42.1514893   7.3480935  52.0321159  43.7324524   6.7432656  51.6021843
  42.6156693   5.4411578  52.9743538  43.4957771   4.9617953  53.4029884
  41.8120308   5.6137543  53.6902275  42.2036514   4.5629988  51.8493042
  41.9386330   3.6510663  52.1931686  41.4598732   5.0384378  51.3585358
  42.9800720   4.4759407  51.2092323  40.8073158  10.2778425  54.5940590
  41.0861664  11.4446306  54.8424377  39.8246651   9.6750145  55.1901054
  39.7283325   8.7329617  54.8388863  39.0093727  10.1505537  56.3320084
  38.0281982   9.7047453  56.1687622  39.3951797   9.6002884  57.7312965
  40.3205070  10.0578604  58.0812950  38.6424103   9.8581467  58.4762459
  39.6541939   8.0754528  57.7419586  38.8033752   7.6177382  57.2372704
  40.4976044   7.8237114  57.0990067  39.7947998   7.4865460  59.1788445
  40.4132462   8.2208920  59.6949501  38.8262291   7.4487395  59.6773834
  40.3739738   6.0872631  59.4237671  40.0049362   5.7310333  60.3855400
  39.7959137   5.4360824  58.7680931  41.8379135   5.9428792  59.2924652
  42.0388031   6.0195031  58.3056183  42.3399582   6.4871931  59.9793243
  42.0510254   4.9910669  59.5546417  38.7335663  11.6791954  56.2602196
  39.0979004  12.3822317  57.2263527  38.2796936  12.1913013  55.1180916
  38.0560341  11.5529470  54.3680382  38.0293655  13.6007719  54.8485374
  38.3889961  14.2272797  55.6647797  38.9507751  14.0314827  53.6862068
  39.9893951  13.7065153  53.7475243  38.5488472  13.4678383  52.8442688
  38.8872604  15.8010254  53.3927155  39.8605003  16.1101894  54.2541771
  36.5668259  13.9056368  54.5313454  35.9879379  13.1020451  53.7708969
  35.9618492  14.9650116  55.0109367  36.4974136  15.6078424  55.5766640
  34.5735550  15.3626690  54.6668739  34.1875229  14.7489462  53.8529816
  33.6645508  15.1823778  55.8987083  34.0980148  15.7606344  56.7146912
  32.2736702  15.7501230  55.6477394  32.3315659  16.8280315  55.4965210
  31.6242847  15.3098354  54.8910713  31.7177620  15.5762119  56.5690536
  33.5230980  13.6456795  56.3397026  32.4732094  13.3698969  56.4385796
  33.9715271  13.0879297  55.5175552  34.3764725  13.3493176  57.6260757
  33.9865532  12.4420500  58.0875244  35.4370461  13.3386879  57.3747330
  34.2716370  14.2299471  58.2597923  34.5493011  16.7839870  54.2029381
  35.2103500  17.6899853  54.7068710  33.6486549  17.1051655  53.2228661
  33.0910301  16.3002224  52.9754372  33.5484123  18.2600594  52.3586578
  34.2510948  19.0217457  52.6965523  33.9232330  17.8851490  50.8711395
  33.4724579  16.9535122  50.5291519  33.5810089  18.6721039  50.1990662
  35.4791603  17.7304230  50.7417145  35.9755592  18.6933651  50.8618546
  35.8083611  16.9254246  51.3987579  35.9040222  17.2784729  49.3748665
  35.5838394  16.2365932  49.3663597  35.4101601  17.8513947  48.5900383
  37.3111382  17.2844429  49.0895538  37.6782150  18.2065067  48.9020576
  38.1802940  16.3555355  49.3177948  37.8820877  15.2363110  49.9712563
  36.9411583  15.1505756  50.3282051  38.5667000  14.5135193  50.1414833
  39.3735809  16.4722233  48.9264297  39.5728073  17.2558441  48.3211632
  39.9375343  15.6346130  48.9481201  32.1295662  18.8190517  52.4200249
  31.2328415  18.0648823  52.7323112  31.9608841  20.0915565  52.2257347
  32.7608604  20.6855946  52.0606194  30.6825943  20.8351250  52.3248558
  29.9716377  20.0813370  51.9865532  30.1898308  21.3051720  53.7108765
  30.0871849  20.3905640  54.2948837  31.2759571  22.1406898  54.4392586
  32.1979637  21.5824718  54.6017570  31.4567013  23.1445160  54.0548553
  30.8537769  22.2868900  55.4334831  28.8837242  22.1072254  53.7713623
  29.0725574  23.1768684  53.6802292  28.2171402  21.7431374  52.9895668
  28.4003277  21.9583626  54.7369003  30.6341991  21.9399967  51.2522011
  31.5832100  22.5922871  50.8247757  29.4160309  22.0571766  50.7107430
  28.7473412  21.3215771  50.8892021  29.0181561  23.1670418  49.6909294
  29.7145538  24.0049076  49.7243156  29.0684948  22.5327187  48.2795792
  30.0935173  22.2899609  47.9994087  28.6770420  21.5154686  48.2877388
  28.2356415  23.2126541  47.1642189  28.0236435  22.5208244  46.3490334
  27.2625408  23.5246372  47.5434837  29.0664730  24.6825542  46.3070068
  29.7974606  23.6276894  44.9219551  29.0544682  23.4244843  44.1507416
  30.6854706  24.0498009  44.4514656  30.0027466  22.5938892  45.1998291
  27.6298847  23.6629505  50.0474548  26.6599483  22.8850784  50.0711441
  27.4303932  24.9842339  50.2220268  28.1733284  25.6548862  50.0864830
  26.1781597  25.5831795  50.5791130  25.3840065  24.8740788  50.3454399
  26.1761494  26.0481262  52.0476151  26.1902122  25.2072754  52.7410622
  27.0517960  26.6812000  52.1909981  24.8588963  26.7492027  52.3786659
  24.7640419  27.6228733  51.7338371  24.0998058  26.0381222  52.0527153
  24.6455097  27.2653408  54.1479340  26.1820679  28.2723198  54.3912163
  26.0236816  29.2362270  53.9076004  26.3357983  28.2661839  55.4703026
  27.0144157  27.6706810  54.0260773  25.8172703  26.7350960  49.6189804
  26.6541004  27.6906586  49.5678444  24.6716557  26.7708302  48.9119568
  24.1534977  25.9068069  48.9832001  24.0159607  27.8616943  48.1958809
  24.7844124  28.4428349  47.6861153  23.0882740  27.3249969  47.0909348
  22.3370399  26.6580963  47.5140076  22.6464157  28.5658016  46.2142487
  21.7671967  28.3962460  45.5926933  22.3095875  29.4212227  46.7998276
  23.4764977  28.9042645  45.5941620  23.8457451  26.5935287  46.1485405
  24.1770515  25.7742500  46.5235367  23.1779423  28.7886238  49.1404152
  22.2562504  28.3250065  49.7922554  23.5600529  30.0517731  49.1512871
  24.3680725  30.3164272  48.6061630  22.8754883  31.0708599  50.0306931
  21.9270992  30.6511383  50.3660889  23.7101002  31.5208054  51.2607079
  23.1015129  32.1324501  51.9267502  24.0678959  30.2344246  52.0387230
  24.8035126  29.6269779  51.5114937  24.4854946  30.4450397  53.0232773
  23.1761856  29.6152363  52.1364937  24.9539909  32.3409004  50.9760284
  25.6760521  31.8735085  50.3064919  24.7125645  33.2226028  50.3823853
  25.4323635  32.6677933  51.8992844  22.4510574  32.2201424  49.0994110
  23.1089840  32.4301300  48.0737038  21.4156647  32.9871941  49.4824295
  20.8407593  32.6303329  50.2322540  21.2475929  34.3440781  49.0115852
  21.5914307  34.3489571  47.9772491  19.7418289  34.6840782  49.1816673
  19.1449699  33.7723808  49.1557961  19.6204205  35.1439552  50.1624184
  19.3530827  35.6235161  48.0444565  19.7298832  36.6023369  48.3411636
  19.7070637  35.2720642  47.0752869  17.8609982  35.7499046  47.8097801
  17.2823353  35.5060577  46.7842789  17.1155014  36.2707710  48.7736473
  17.4896526  36.3871117  49.7045517  16.1270485  36.4754410  48.7394142
  22.1699734  35.4046593  49.7974243  22.5651379  35.0914307  50.9536247
  22.6869888  36.4433365  49.1510963  22.3319702  36.5965881  48.2180481
  23.7017326  37.3856239  49.7093124  23.3455658  37.9194565  50.5903702
  24.9717579  36.6366196  50.1517334  24.7044334  35.9011002  50.9104462
  25.7964802  35.9021378  49.1430969  26.2122002  36.6457138  48.4631233
  26.5121269  35.2369690  49.6263199  25.1988697  35.2385788  48.5180702
  25.8222980  37.5413666  50.7964783  26.2204208  37.0873222  51.5427628
  24.0529003  38.3971710  48.6081581  24.2555332  38.0954475  47.4347305
  24.1532936  39.6489754  49.0050316  24.1061592  39.8660507  49.9903030
  24.8499165  40.6570320  48.2183838  24.3946991  40.8006020  47.2384491
  24.6141338  42.0843964  48.9250565  24.7067928  41.8762093  49.9909706
  25.4509487  42.7767830  48.8331871  23.3651161  42.8997459  48.6694221
  23.0256710  43.7870216  49.5835419  22.8822327  42.8759422  47.4772835
  26.3778400  40.4160309  48.0573883  27.0173168  41.0045853  47.1575813
  27.0492992  39.6677437  48.9131241  26.4322796  39.1732864  49.5415306
  28.4946995  39.6478386  49.0479469  28.8082333  40.6888046  49.1266327
  28.9302177  39.0032196  50.3559837  28.4810734  38.0100746  50.3491096
  30.4985561  38.9072685  50.3452263  30.7788715  38.3084831  51.2118187
  30.7823830  38.3776398  49.4358101  30.9025364  39.9188805  50.3059349
  28.3930683  39.7567253  51.5433731  27.3338280  40.0134239  51.5286751
  28.5215092  39.1883583  52.4645462  29.0073509  40.6523590  51.6360626
  29.0751038  39.0941505  47.7627449  28.6439838  37.9955482  47.2893143
  30.2526360  39.6009254  47.3004074  30.6121960  40.9843369  47.4169044
  31.2727070  41.1071205  48.2752457  29.7392311  41.5801773  47.6833763
  31.2012367  41.3444176  46.1100159  31.7880173  42.2604904  46.1778564
  30.3777256  41.6166840  45.4498558  31.9982891  40.1099472  45.7397194
  32.9422035  39.9040451  46.2444267  32.2566299  40.1267319  44.6809044
  30.9653721  39.0557976  46.1746674  30.1768723  39.0227509  45.4228172
  31.4931698  37.6355972  46.3549767  31.9897442  37.2758636  47.4259567
  31.5553284  36.9456291  45.2048798  31.1472702  37.3787231  44.3887787
  32.4426842  35.8105392  44.9086761  31.9968586  35.0264778  45.5207138
  32.2201462  35.4296455  43.4433250  31.1509457  35.5725670  43.2868423
  32.7715912  36.1338806  42.8203773  32.6513634  34.0524178  42.9512711
  33.7015800  34.0521584  43.2430687  32.1585121  33.2392311  43.4841232
  32.6782303  34.0214272  41.4439125  33.6162529  34.5378761  40.7544098
  31.8147163  33.3442726  40.7342491  31.0016022  32.8718719  41.1027451
  31.9011173  33.3365517  39.7279816  33.9301872  35.8943405  45.3123817
  34.4699478  34.9300385  45.9090385  34.7447472  36.9712334  45.0944710
  34.3486977  37.7800674  44.6372681  36.1664200  37.0294838  45.4270668
  36.6912003  36.1080704  45.1746864  36.8254433  38.1178207  44.5934486
  37.8413658  38.2468338  44.9667549  36.7582664  37.8737526  43.5332451
  36.3225975  39.5901833  44.7628021  37.1985970  40.4607086  45.1331444
  35.1669998  39.9232712  44.5488701  36.3483162  37.2944145  46.9150887
  37.5369987  37.3063774  47.3488922  35.3098068  37.5048866  47.6842422
  34.4323997  37.5921669  47.1916580  35.3539314  37.9320412  49.1009064
  36.3730316  37.8638611  49.4815483  34.8239708  39.3370438  49.2547951
  33.8808479  39.3925591  48.7111664  34.6838799  39.7068253  50.2705421
  35.6014786  40.5312729  48.6005440  36.3401337  40.9344139  49.2933388
  35.9826965  40.2205429  47.6278038  34.7524147  41.7448654  48.2550163
  34.2022018  42.3994255  49.1341286  34.4997826  41.9682198  46.9810600
  35.1316872  41.7359962  46.2281532  33.8689461  42.7342873  46.7932129
  34.6258812  36.9809418  50.1473351  34.6178818  37.2652779  51.3660812
  33.8498878  36.0186081  49.6563148  33.7264671  35.7944794  48.6792641
  33.1064720  35.0561790  50.5168724  32.4912415  35.5015144  51.2987099
  32.2001343  34.2338829  49.5490723  32.6268692  34.1227875  48.5522461
  31.9278221  32.8449631  50.1035843  32.8139992  32.2143936  50.1755295
  31.4469776  32.9387589  51.0772820  31.3049145  32.2199821  49.4636765
  30.8442268  34.9365654  49.4986115  30.3326626  34.8227844  50.4543610
  31.0431690  35.9948540  49.3296356  29.8501816  34.4421616  48.4115562
  29.0033207  35.1186180  48.2960854  30.3945484  34.3826027  47.4691010
  29.4494076  33.4844513  48.7436333  34.1827888  34.1455460  51.1588058
  35.2159767  33.7983360  50.6045723  33.8346100  33.7041969  52.3386116
  32.8808022  33.9451218  52.5673141  34.7095070  33.0786705  53.3147926
  35.7509079  33.3044815  53.0854568  34.6159439  33.6964874  54.6922951
  33.5590363  33.6042824  54.9423828  35.2803612  33.1331444  55.3474998
  34.9979477  35.1854019  54.8265953  35.8983841  35.3548889  54.2361755
  34.2909241  35.8304710  54.3049622  35.2779503  35.6690025  56.2732277
  34.3881569  35.7822685  56.8925323  35.7921944  34.8249664  56.7328568
  36.0132065  36.9035187  56.2508392  36.4252968  37.2550850  55.3983803
  36.1638222  37.7444000  57.2500839  35.7433357  37.5385361  58.4728699
  36.1876335  38.0103836  59.2475090  35.1985359  36.7177467  58.6955757
  36.7524948  38.8794403  56.9855385  36.8045807  39.5449295  57.7435036
  37.0655632  39.0356903  56.0380821  34.5108604  31.5464706  53.1978836
  33.5348091  30.9864235  53.6354408  35.5073509  30.8177910  52.6715164
  36.3745766  31.2694073  52.4184189  35.4674835  29.3364315  52.5073166
  34.5170403  28.8868370  52.7947693  35.7792015  28.9231033  51.0848846
  36.8429146  29.1036892  50.9299393  35.6020241  27.8557758  50.9524918
  35.1226082  29.7170773  50.0051575  33.7506027  29.4761829  49.6373215
  33.5215988  30.3652840  48.6481705  32.5553703  30.4364185  48.1709557
  34.6702728  30.9650974  48.3096123  34.6885109  31.7361069  47.6574516
  35.6189766  30.6845818  49.2083893  36.5947189  31.1090221  49.3932610
  36.4105644  28.7146988  53.5935631  37.6349449  28.8323746  53.5058098
  35.8061829  28.0556946  54.5962791  34.8122635  27.9660091  54.4407806
  36.4734459  27.5805645  55.8378296  37.3817291  28.1529140  56.0263443
  35.5738182  27.8263931  57.0966759  34.6362915  27.2853012  56.9687691
  36.2833099  27.3023300  58.3521576  35.6403694  27.4101257  59.2257156
  36.6355247  26.2718983  58.3046532  37.1886139  27.8728790  58.5595245
  35.3628006  29.3101768  57.1108894  34.6590729  29.4827785  57.9251862
  36.2710266  29.8822861  57.3004074  34.7493858  29.6717339  56.2855988
  36.9471664  26.1527290  55.8229027  36.1893539  25.2429695  55.5488853
  38.2443047  25.9134827  56.0397453  38.7736740  26.7589874  56.1978302
  38.8989906  24.5479527  56.1915970  38.1429596  23.7865639  55.9997444
  39.9409103  24.4721355  55.0603447  40.6926880  25.2581196  55.1321640
  40.3801384  23.4778214  55.1410942  39.3387947  24.4215641  53.6632118
  38.8597183  25.5622959  53.0646019  38.8685608  26.5021744  53.5965385
  38.2696381  25.5097942  51.7860565  37.8511467  26.4282265  51.4016724
  38.1750679  24.2944050  51.1029282  37.7024879  24.2707043  49.8351059
  37.8933907  23.4269962  49.4187965  38.7388077  23.1282654  51.6699829
  38.8698845  22.2895393  51.0023346  39.3394165  23.2291870  52.9200363
  39.9465981  22.4414272  53.3409500  39.4150925  24.2452736  57.6214333
  40.1031189  25.1211948  58.1159325  39.1039925  23.0812931  58.1894684
  38.5152664  22.4123116  57.7141075  39.6253662  22.7574081  59.5627327
  40.3571968  23.5185947  59.8331413  38.4756393  22.7769032  60.5585213
  37.8302803  22.0376816  60.0840073  38.8394241  22.4704914  61.5392761
  37.8237228  24.1261559  60.7105255  37.5843201  24.5848064  59.7511368
  36.5742989  23.8268089  61.4816208  36.0020218  23.0327988  61.0018845
  36.8077164  23.3906994  62.4529190  35.9517555  24.7097435  61.6264420
  38.7278366  25.0642509  61.5023994  39.3279305  24.4281406  62.1530533
  39.4782028  25.4979477  60.8413734  38.2042389  25.9177303  61.9331131
  40.5972404  21.5304699  59.5324631  40.9212646  20.9370670  58.5056725
  41.1139030  21.1813450  60.7675209  40.7474327  21.6436005  61.5873489
  41.9588814  19.9776745  61.0535774  42.4689140  20.1191330  62.0064430
  40.9584351  18.8175087  61.1671600  40.4595184  18.7094517  60.2040901
  41.5311012  17.9220142  61.4085045  39.8414040  18.9515057  62.2105980
  39.3996849  19.9475327  62.1803780  39.0948105  18.1825409  62.0121269
  40.3981972  18.8934097  63.6126823  40.1822472  19.7570095  64.4756241
  41.0722046  17.9074440  63.9978752  43.0793228  19.8179626  60.0035629
  44.0126152  20.6123676  59.8561554  43.2043076  18.7300587  59.2034454
  42.4790039  18.0404720  59.3394890  44.2896881  18.4594078  58.2302208
  45.1369400  19.1270504  58.3867950  44.7818222  17.0194473  58.3506470
  43.9888039  16.2813091  58.4705429  45.3271446  16.8363876  57.4247856
  45.7911377  16.9586563  59.5566025  46.6176338  17.6589298  59.4356842
  45.3658676  17.1250629  60.5463257  46.4792747  15.6076393  59.7502670
  46.9851341  15.3757181  58.8130264  47.1952820  15.8213434  60.5438423
  45.5613556  14.4274168  60.0469780  44.6693459  14.8844318  60.4754143
  45.3417702  13.8732481  59.1344109  46.1690865  13.5474939  61.0993462
  46.8137665  12.8824978  60.6965179  46.6283035  14.0873203  61.8189392
  45.4240761  13.0005884  61.5067139  43.7834587  18.7026482  56.7766228
  44.5393791  18.7897663  55.8386612  42.4433098  18.9390659  56.5979500
  41.7555237  18.8057289  57.3254623  41.8802795  19.4741421  55.3421974
  42.2623062  18.8124485  54.5648155  40.4202690  19.3197994  55.4614067
  40.0403519  20.1599274  56.0427399  40.0408592  19.2324314  54.4433060
  40.0919495  18.3623219  55.8657990  42.3274879  20.9524040  55.0246964
  42.1328468  21.4624901  53.9125099  42.8259239  21.6396542  56.0830231
  42.8611679  21.1513844  56.9664612  43.4307404  22.9625874  55.9083595
  42.7018547  23.7217407  55.6246071  44.0470390  23.3932781  57.2453156
  43.2497444  23.1988106  57.9626808  45.3251190  22.7748623  57.8144150
  45.3207588  21.6852360  57.7861748  46.1573677  23.1094246  57.1951141
  45.5464859  23.1416874  58.8166809  44.2791557  24.9572048  57.2288704
  44.4730721  25.3516026  58.2263412  45.1770554  25.2486668  56.6839561
  43.3773880  25.4598427  56.8791924  44.5453339  22.9120750  54.8534241
  44.7212257  23.8063431  54.0961990  45.3563576  21.8860531  54.8437920
  45.4950027  21.3777523  55.7054825  46.3466606  21.5381641  53.7954636
  46.9803085  22.4108410  53.6372795  47.1560402  20.3075314  54.2206001
  46.5415077  19.4090214  54.1646576  48.5655212  20.1276035  53.5550995
  49.0437584  19.2350330  53.9584770  48.4710732  20.0223522  52.4743118
  49.2752571  20.9097652  53.8245468  47.6828003  20.4157562  55.6809311
  48.2213097  19.5232887  55.9996910  48.1964645  21.3678799  55.8140221
  46.8726959  20.4396687  56.4098053  45.7282982  21.2024555  52.3892708
  46.5287209  21.1101532  51.4324989  44.4065437  21.2461529  52.2004395
  43.9151840  21.5100822  53.0424614  43.8862648  21.3677940  50.8476334
  44.4068680  20.6998100  50.1614380  42.3539848  20.9643421  50.8177681
  41.9371338  21.6616898  51.5444336  42.0094032  21.0566730  49.7877960
  42.0241013  19.5301952  51.2290764  42.6048546  19.3609238  52.1358147
  40.5646477  19.3410587  51.5602036  39.9680176  19.3610458  50.6482124
  40.3432274  18.3805389  52.0254745  40.1174049  20.1049595  52.1962357
  42.3881111  18.5633278  50.0716972  43.4323578  18.6138000  49.7633057
  42.1793938  17.5397778  50.3829498  41.8494148  18.8132591  49.1576691
  43.9631348  22.8493977  50.3643684  44.0962448  23.0174160  49.1030006
  43.9844093  23.8717937  51.2102852  43.8308449  23.6894665  52.1917496
  43.9693871  25.2541866  50.7888451  44.0477829  25.3183327  49.7035637
  42.6019363  25.8840923  51.1255798  42.3464813  25.8754330  52.1851845
  42.6534157  26.9339085  50.8368797  41.4252892  25.2982082  50.3597069
  41.3485451  24.2716770  50.7181015  40.4646339  25.7246113  50.6485443
  41.3704262  25.3019886  48.8611717  42.2421608  24.7443848  48.5187378
  40.4782600  24.8158283  48.4664726  41.3663101  26.7234764  48.2732506
  42.1944046  27.2840195  48.4151993  40.3147659  27.4740086  48.0792236
  39.1145363  26.9588623  47.8184891  38.3508759  27.5908737  47.6248665
  39.0303192  25.9552021  47.8938255  40.3255692  28.7186756  47.8490295
  39.4287071  29.1059170  47.5925446  41.2684402  29.0704346  47.9348145
  45.1531601  25.9558697  51.4782104  44.9909172  26.8144665  52.3727646
  46.3912506  25.7667923  50.9750366  46.8243217  24.9449139  49.8643456
  46.3663826  25.2716103  48.9307175  46.6663818  23.9084301  50.1624374
  48.3282623  25.2310410  49.6319199  48.5320129  25.8186626  48.7367744
  48.8969841  24.3011761  49.6286926  48.7437325  26.1228256  50.7833099
  49.5115280  26.8663750  50.5694771  49.1375618  25.4577923  51.5518951
  47.4519043  26.6145687  51.4403915  47.4796371  26.5674591  52.5290222
  47.3169250  28.1240940  51.0583916  47.8414345  29.0053158  51.7149086
  46.5745811  28.4123745  49.9742699  46.0299110  27.6487217  49.5997467
  46.2180634  29.7894478  49.6168442  47.1407928  30.3371048  49.4251556
  45.3570824  29.7356148  48.2925186  44.9483452  30.7459068  48.2740250
  46.0578003  29.4429646  47.5105667  44.1737976  28.6645126  48.3187790
  44.4970398  27.4811554  48.6820755  43.0267448  28.9821815  48.0961609
  45.4961967  30.5494251  50.7876282  45.6521530  31.7472343  50.9123192
  44.7720070  29.8252602  51.7044716  44.8208885  28.8252411  51.8374023
  44.0280151  30.4838905  52.7722244  43.8915825  31.5644493  52.7289009
  42.6168365  29.8333435  52.7955627  42.6217346  28.7583904  52.9759750
  41.9745865  30.2718792  53.5593071  41.8498039  29.9974556  51.5015907
  42.3462677  29.5905533  50.6206512  40.4705887  29.1926098  51.5886269
  39.8591537  29.4484482  52.4539604  39.9016304  29.2198009  50.6593018
  40.6661453  28.1403828  51.7952118  41.4476891  31.4925423  51.3044662
  42.3087769  32.1397018  51.1376801  40.7762985  31.5057983  50.4458923
  40.9414673  31.9074459  52.1760674  44.6765633  30.2561932  54.1949615
  44.2889290  30.9496326  55.1570244  45.5887604  29.2693157  54.1922874
  45.5916901  28.5741272  53.4596176  46.2422714  28.8501034  55.4269562
  45.4643974  28.7842903  56.1876717  46.9167175  27.4685936  55.2100143
  46.1839905  26.7853813  54.7805557  47.6834488  27.5337734  54.4380150
  47.4498901  27.0837994  56.4524574  47.7808418  26.1929245  56.3167648
  47.1939278  30.0102558  55.9287071  48.0997658  30.3795071  55.2466621
  46.8772583  30.6592255  57.0352783  46.0869179  30.3433533  57.5790520
  47.5835571  31.8039246  57.5955009  46.9750366  32.2286453  58.3938866
  48.8136635  31.4195080  58.3382874  49.5016937  30.9862347  57.6123466
  49.3205185  32.3232384  58.6766243  48.6476631  30.4282837  59.5294876
  48.3849907  29.4595699  59.1044044  49.9291229  30.2367458  60.3326111
  50.7936745  30.4310665  59.6978645  49.9044952  30.8875828  61.2066269
  49.8982430  29.1916637  60.6407509  47.5437241  30.8026333  60.5057411
  47.7330437  31.7867126  60.9345245  46.5762367  30.8319740  60.0045319
  47.5470314  30.1372337  61.3690681  47.7922897  32.9187164  56.5025368
  48.8467865  33.4966316  56.4145966  46.8028679  33.1458168  55.6194458
  45.9281349  32.6658173  55.7761040  46.9378510  33.9056396  54.3714180
  47.6703072  33.3587723  53.7776642  45.6509171  33.8451729  53.5890732
  45.3507767  32.8166962  53.3884468  44.4550934  34.6602592  54.1267548
  44.2515602  34.4483032  55.1763992  44.7889862  35.6978455  54.1326866
  43.6113205  34.6233482  53.4377060  45.8426247  34.3406601  52.3098602
  46.0701027  33.5987816  51.7446404  47.4009323  35.3863983  54.4123764
  46.9603615  36.1471024  55.2712631  48.1991844  35.7993164  53.4052124
  48.4493561  35.0728874  52.7496109  48.6494980  37.1925507  53.2421837
  49.0343094  37.5503731  54.1971626  49.6374435  37.0878258  52.1245728
  50.2615700  37.9773140  52.2104759  50.3443413  36.2748566  52.2903290
  49.0129128  36.7952805  50.6966972  48.4533463  35.8673363  50.5787659
  48.3685989  37.6053162  50.3549271  50.1647987  36.7428360  49.6929321
  50.8846970  37.5519753  49.8159523  50.7220116  35.8191910  49.8494415
  49.5776634  36.8465614  48.2774124  49.0197754  35.9286003  48.0924339
  49.0738335  37.8123665  48.3157768  50.6673088  36.9414291  47.2151184
  50.3181419  36.8736877  46.2698174  51.1718864  37.8047447  47.3572159
  51.3309326  36.2083740  47.4208717  47.5653076  38.1887169  52.9732361
  47.7920570  39.3951721  53.1796532  46.3471947  37.7958336  52.5247612
  46.2772293  36.8279381  52.2448006  45.2007599  38.6584015  52.1103783
  45.6772041  39.4789619  51.5739250  44.3030014  37.8264542  51.2694931
  44.7552872  37.2914505  50.4344444  43.8698769  37.0449829  51.8938408
  43.1184120  38.5312309  50.6798935  42.9333611  39.7390251  50.5251274
  42.2187042  37.8106956  50.0572586  42.3377419  36.8220177  49.8885956
  41.4553604  38.3663063  49.6985092  44.4254723  39.3006477  53.2707672
  43.8055992  38.6474304  54.0879364  44.6475105  40.6415176  53.3655357
  45.1469612  41.1015358  52.6178513  43.8900146  41.5095825  54.3145103
  43.7764549  40.9659195  55.2523994  44.5117950  42.9031487  54.5668449
  44.0022240  43.5427208  55.2875252  45.9131927  42.8354454  55.2802086
  46.5471687  41.9943390  54.9996529  46.4771271  43.7320442  55.0229530
  45.7181206  42.7681465  56.3504982  44.6282043  43.6415863  53.4265022
  43.8308258  44.1742935  53.3817101  42.4313774  41.8456535  53.9101524
  41.6507149  42.2700539  54.7643661  42.0430374  41.6613960  52.6707649
  42.7097244  41.3372307  51.9848022  40.7697639  42.0188828  52.1412430
  40.2972450  42.8213692  52.7076759  40.9774246  42.6181870  50.7015648
  41.3021469  41.8963203  49.9521866  40.0819931  43.0619202  50.2663651
  42.0019569  43.7553711  50.6442719  43.0224419  43.4020653  50.7922211
  41.9007416  44.1802940  49.6456261  41.6690750  44.8062439  51.6783714
  40.6895370  45.5181656  51.4256935  42.3287735  44.9694328  52.7113609
  39.6958542  40.9133224  52.1065750  38.5138969  41.2369690  51.7693443
  40.0391083  39.6127663  52.4277992  41.0143166  39.3516769  52.3977890
  39.1684723  38.5513458  52.7234726  38.2537155  38.7462044  52.1637001
  39.7777901  37.1592636  52.3453178  39.9209633  37.0945854  51.2666969
  40.7621841  37.2535400  52.8037682  39.0161972  35.9242287  52.8194809
  38.7137032  35.9510155  53.8663254  37.7875595  35.8037453  52.0737724
  37.1054993  35.0687523  52.5011711  37.3052292  36.7750244  51.9639015
  38.0153923  35.5593605  51.0362434  39.8622131  34.6519508  52.5463371
  40.8786125  34.7417641  52.9296951  39.4842606  33.7914162  53.0983620
  39.7997627  34.5396118  51.4639397  38.6617584  38.5260124  54.1483994
  39.5320473  38.5058479  55.0402794  37.4342384  38.5190315  54.3607025
   9.8402500  36.3861046  45.5288696  10.1206293  36.4563980  46.4966278
  10.3924208  37.1280670  45.1230316   8.8535261  36.5835381  45.4422951
  10.2476749  35.0320587  44.9620667   9.7374125  34.2970276  45.5845299
   9.8925180  34.7773361  43.5361900  10.2332153  33.7659035  43.3147545
   8.8097630  34.6861458  43.4500122  10.4161949  35.8255844  42.5327415
  10.1701326  36.8550720  42.7929459  11.4940939  35.7434387  42.3931427
   9.8768053  35.5163002  40.8603172  10.4857006  36.9879913  39.9680519
  11.5732813  36.9373627  39.9160385  10.1379538  36.8927383  38.9394112
  10.2120247  37.9719772  40.3488007  11.7570868  34.9474335  45.1224785
  12.4801645  35.8730736  44.8097115  12.2816868  33.8409386  45.5803185
  11.6750593  33.0355873  45.6395988  13.6697054  33.4922981  45.7317200
  14.1057062  33.9856682  44.8630486  14.2949142  34.0988350  47.0171585
  15.3754902  34.1207504  46.8758240  13.9832869  35.1426506  47.0550804
  13.8841276  33.3863640  48.3425713  12.8462267  33.6842728  48.4912720
  13.8866110  32.2994614  48.2604675  14.8175211  33.9965744  49.8292656
  16.3181210  33.0043907  49.8156815  16.2771931  31.9287663  49.9873085
  16.7669048  33.1069374  48.8276634  17.0914421  33.4439735  50.4456444
  13.8448973  32.0076675  45.6125069  12.9506588  31.1646175  45.9013634
  15.0863438  31.6092644  45.2279778  15.5056906  32.3524094  44.6876259
  15.3322277  30.2259731  44.9822807  14.5695858  29.8381138  44.3069611
  16.6726055  29.9760284  44.2432518  17.3941898  30.0864105  45.0527153
  16.8204994  28.6057014  43.6034393  16.6790924  27.8033943  44.3276024
  16.2121639  28.5627937  42.7000084  17.8496284  28.5753689  43.2455673
  16.9673443  30.9352055  43.1010895  17.0902958  31.9175510  43.5571365
  17.9431782  30.8037395  42.6335754  15.9375830  31.1014271  41.9323921
  15.8058262  30.1866074  41.3545990  14.9378719  31.2202015  42.3502121
  16.3087387  31.8423710  41.2243347  15.1979885  29.3228035  46.2763519
  15.8127031  29.6385345  47.2589684  14.6445379  28.0651951  46.0862312
  14.1541386  27.9140186  45.2163162  14.8200340  27.0360394  47.0842209
  15.6603127  27.3501472  47.7033882  13.5455265  26.9123211  47.9643555
  12.7496843  26.5247078  47.3283577  13.6901960  26.0322418  48.5909615
  13.0497694  28.1723995  48.6916885  12.9664621  28.9940014  47.9802589
  12.0129900  28.0531330  49.0062752  13.9151640  28.4980183  49.9251213
  13.7450476  27.7188168  50.6680946  14.9487486  28.5791073  49.5886269
  13.5306921  29.7808990  50.4763412  12.8600178  30.3812313  50.0181961
  14.1432867  30.4309387  51.4586029  15.1536512  29.9624138  52.0782623
  15.4663782  30.3802509  52.9429665  15.6811514  29.2463150  51.5996704
  13.5592117  31.4853306  51.9771004  12.9096193  32.0618935  51.4616241
  13.9568148  31.9117393  52.8018341  15.2400713  25.6402321  46.4670525
  15.2018995  25.4624081  45.2788315  15.5931778  24.6504993  47.2670059
  15.8905907  24.9674854  48.1786919  15.7188959  23.2350578  46.8495293
  15.9675083  23.1244507  45.7940407  16.4935570  22.7935810  47.4765053
  14.4159250  22.4055176  47.1910667  13.7874784  22.6587849  48.2449646
  14.1636877  21.3928967  46.3576508  14.7589560  21.3590870  45.5424156
  13.1483078  20.3060932  46.5638123  12.7293539  20.4071884  47.5649910
  12.0262356  20.5207901  45.5044098  12.5373507  20.3181534  44.5632401
  10.9223118  19.4522076  45.5054817  11.3076658  18.4464607  45.3379440
  10.2931328  19.4704609  46.3953705  10.2774305  19.6529446  44.6499519
  11.4702044  21.9210320  45.4999504  11.1719351  22.0372334  46.5418854
  12.2060823  22.7230644  45.4422646  10.3713102  22.2725105  44.5068588
  10.0974369  23.3275452  44.5056725  10.7781582  21.9793968  43.5390472
   9.5887604  21.5441761  44.7195702  13.7457428  18.9011040  46.5794640
  14.5426922  18.5861034  45.6893311  13.2954359  17.9902935  47.4479027
  12.5520105  18.2876453  48.0635338  13.7496424  16.5843201  47.6540565
  14.5073347  16.4476795  46.8824768  14.4441204  16.4223175  48.9941406
  13.7137365  16.4074440  49.8031006  14.9298487  15.4481678  49.0507927
  15.4713221  17.5420170  49.2970505  16.1304359  17.5641823  48.4291916
  14.9317007  18.4774017  49.4452515  16.2836342  17.1313667  50.5527153
  16.9977798  17.9439220  50.6863251  15.6846972  17.0957909  51.4627228
  17.0549526  15.9036779  50.3793259  17.4382496  15.6414566  49.4824295
  17.2882786  14.9355955  51.2677612  16.9526043  15.0585957  52.5295601
  16.5768909  15.9099579  52.9221497  17.0422592  14.1964674  53.0480156
  17.9658527  13.9407330  50.8203392  18.0517521  13.8483458  49.8182449
  18.1609631  13.1909189  51.4682655  12.7597418  15.4348621  47.3812675
  11.5290470  15.5066004  47.3287125  13.4940147  14.2800713  47.2373734
  14.4805889  14.3152142  47.0239792  12.8766336  12.9263496  47.3079338
  12.2403126  12.9091406  48.1927490  12.1064968  12.8293247  46.5427017
  13.7901344  11.6984396  47.3977165  14.9942989  11.8436718  47.2539711
  13.1812630  10.5251446  47.5312347  12.1753931  10.5338898  47.6220551
  13.8973732   9.1868172  47.5452232  14.5006409   9.2800827  46.6421890
  14.6396484   9.1092319  48.9410477  15.1165447   8.1311426  49.0044136
  15.4416246   9.8468199  48.9710503  13.9126997   9.2701035  49.7371445
  12.8806305   8.0526438  47.3336258  11.6835642   8.1304264  47.7493782
  13.3478994   6.9173865  46.7528152  14.3082352   6.9739285  46.4451332
  12.7544184   5.5713024  46.4708748  11.8458672   5.5248475  47.0712738
  12.2243767   5.6660428  45.0590248  11.7389450   6.6391573  44.9848289
  13.2245560   5.6191397  43.9858627  12.7633190   5.6192312  42.9982605
  13.8900356   6.4712191  44.1244202  13.8635969   4.7365651  44.0139046
  11.3456841   4.6498022  44.7313309  10.6372356   5.1596866  44.3316803
  13.7540102   4.4267402  46.5946579  14.9516926   4.6205773  46.8004456
  13.2678814   3.2104156  46.4048462  12.2878370   3.2136254  46.1607094
  14.0022392   1.8998890  46.4261856  15.0438061   2.1760533  46.2619514
  13.9608335   1.3880851  47.8825226  14.4673996   0.4258554  47.8076477
  14.6966124   2.2916017  48.9242706  15.7359095   2.5418596  48.7113457
  14.1441708   3.2030778  49.1525688  14.6802130   1.8443345  49.9181480
  12.6388016   1.1832170  48.3829002  12.3529453   0.3514183  47.9981956
  13.5289049   0.8358112  45.4427299  12.3490486   0.7914931  45.1527481
  14.5219507   0.0551640  44.9122009  15.4890881   0.1722968  45.1787071
  14.1177778  -0.9990535  43.9728317  13.0423145  -1.0148844  43.7961082
  14.6027470  -0.6833283  42.5230789  14.1000080  -1.2472423  41.7373543
  14.2343655   0.7738431  42.0635910  14.3855886   0.9593788  41.0001984
  13.1718636   1.0008643  42.1510925  14.8930416   1.5057905  42.5310364
  16.1148739  -0.8715453  42.3834610  16.7051220  -0.1674092  42.9698906
  16.3599110  -1.9267466  42.5043182  16.2612286  -0.6352358  41.3294983
  14.4484463  -2.3713338  44.5684929  15.3648796  -2.5197699  45.4583549
  13.7805481  -3.4070239  44.0875473  12.9495964  -3.2506371  43.5351334
  14.0785961  -4.7627630  44.4537621  14.6568317  -4.7633600  45.3777428
  12.7631807  -5.5056558  44.7603760  12.1538658  -5.7237244  43.8832893
  13.0224438  -6.5284443  45.0338478  11.8221445  -5.0049276  45.8605843
  11.3924561  -4.1336508  45.3662720  11.0178204  -5.7293930  45.9883194
  12.3970375  -4.5214624  47.1314087  11.9513378  -3.5546410  47.7916451
  13.4658031  -5.1772194  47.5098877  14.9393272  -5.4598651  43.4358406
  15.9556131  -5.9898024  43.8588104  14.7226954  -5.2194014  42.1618118
  13.8757429  -4.7196746  41.9314995  15.6312323  -5.6039915  41.1167336
  16.4133434  -6.2885671  41.4449997  14.7541513  -6.4980783  40.1449966
  13.8060532  -5.9807544  39.9980698  15.2966852  -6.5962701  39.2047234
  14.4271784  -7.9061856  40.7015953  15.3910513  -8.3570843  40.9376907
  13.8000402  -7.7218962  41.5738525  13.5758972  -8.7135572  39.7448997
  14.0813551  -8.8116217  38.7841759  13.3709354  -9.7044916  40.1500435
  12.2623568  -8.0466537  39.5590515  11.9183416  -7.4143586  40.2675400
  11.5128431  -8.0792046  38.4656181  11.8045940  -8.8398981  37.4456215
  12.5011578  -9.5606079  37.5700340  11.0819731  -8.9746132  36.7529678
  10.3852224  -7.4509492  38.5972748  10.1411695  -7.0728569  39.5014801
   9.7182789  -7.5632896  37.8471642  16.2868977  -4.4004245  40.4126167
  15.5458450  -3.4683685  40.0210152  17.5979919  -4.4691968  40.3735352
  18.0843124  -5.2858143  40.7151909  18.4243031  -3.6054349  39.4692535
  18.2761974  -2.5365601  39.6231079  19.8832436  -3.8614676  39.6616440
  20.1979790  -3.6995740  40.6925812  20.2087097  -4.8744893  39.4250870
  20.8128338  -2.9723890  38.7556877  20.4060230  -1.8975552  38.2689743
  22.0518780  -3.2280040  38.8278732  18.0864964  -3.8189254  37.9856110
  18.7615681  -4.5219512  37.1950378  16.8992100  -3.3544099  37.5576019
  16.2031384  -3.0757761  38.2343216  16.5012665  -3.3310561  36.1484642
  17.4709797  -3.3350685  35.6507263  15.7361889  -4.6530409  35.8003693
  16.2510033  -5.5230842  36.2079201  14.2962627  -4.7103639  36.2777672
  13.7738562  -3.8024638  35.9762611  13.7454119  -5.5090804  35.7810631
  14.2870893  -4.8990898  37.3512688  15.6614799  -4.7262750  34.3914452
  16.2950706  -5.4161086  34.1809883  15.6942472  -2.0606096  35.7784538
  14.9664326  -1.5575107  36.5846748  15.6617432  -1.6747354  34.4509850
  16.3518028  -2.1068149  33.8532982  15.0369406  -0.4670927  33.9292946
  15.4222488   0.3545599  34.5330544  15.2251015  -0.2356588  32.4369316
  14.7102060  -0.9439948  31.7878990  14.8222036   0.7611900  32.2578545
  16.7101192  -0.2780482  32.0678406  16.6654873   0.3242577  31.1604614
  17.1644516   0.2639953  32.8972206  17.2824116  -1.5732317  31.5368443
  18.3059273  -1.5841894  30.8565865  16.7245216  -2.6590488  31.7666416
  13.5049553  -0.4771307  34.1637039  12.9511080   0.5777510  34.3359261
  12.8068008  -1.5738153  34.3126869  13.4117699  -2.3825858  34.3149223
  11.4023647  -1.8445362  34.6029320  10.8421259  -1.2546635  33.8774796
  11.0400257  -3.2526448  34.1928902  11.1251612  -3.3921299  33.1152077
  11.7860222  -3.9150345  34.6320114   9.6222038  -3.6312747  34.6022072
   9.5750751  -4.6646481  34.2586670   9.5001764  -3.7735527  35.6759682
   8.5010233  -2.8414018  34.0017281   7.4106221  -2.7837956  34.5710106
   8.6170874  -2.1111929  32.9689903  10.9350557  -1.4990256  36.0160027
   9.7627029  -1.1199467  36.1977158  11.8764029  -1.4280157  36.9830551
  12.8227692  -1.6840249  36.7402573  11.6792622  -0.7343115  38.2671318
  10.6431618  -0.6770250  38.6007690  12.3106346  -1.5321219  39.3885307
  13.3685560  -1.7476177  39.2386475  12.1667156  -0.8498932  40.2263565
  11.6169071  -2.8256493  39.6802597  10.5660515  -2.7828779  39.3939552
  12.0206919  -3.5970945  39.0245667  11.7647438  -3.2922559  41.1531487
  11.5820923  -2.5432997  42.1567192  12.1757355  -4.4636407  41.4305344
  12.2199993   0.6171636  38.2509766  11.6249113   1.4948840  38.8747635
  13.4067278   0.8311223  37.7058105  13.9117928   0.0192593  37.3804054
  14.2477179   2.0290976  38.0475502  14.0639877   2.1724758  39.1123428
  15.7890816   1.7415335  37.6993790  15.7231035   1.2188762  36.7451363
  16.6984806   3.0465028  37.5491600  17.7407074   2.7451680  37.4439850
  16.4490604   3.4092560  36.5520172  16.5066261   3.8637002  38.2444878
  16.3649063   0.8162526  38.7837143  16.6346436   1.4121524  39.6556358
  15.6679363   0.0112398  39.0167160  17.6503429   0.1153587  38.3352661
  17.6297798  -0.3740050  37.3615189  18.4983616   0.7987780  38.3789062
  17.9020367  -0.6831061  39.0332680  13.7639036   3.3165631  37.4080849
  13.5198765   4.3037267  38.1063118  13.4996796   3.2726226  36.1135445
  13.4461346   2.4262674  35.5649872  12.8717842   4.3995523  35.3971024
  13.4563446   5.2961473  35.6032715  13.1349010   4.1316667  33.9167824
  12.7645378   3.1190526  33.7569580  12.6506758   4.9309578  33.3557472
  14.5702896   4.1963873  33.4244080  15.1465282   3.3801277  33.8600311
  14.6941967   4.1637006  31.8778687  14.7236156   5.1702390  31.4605846
  15.6760454   3.7594955  31.6315136  13.9571314   3.5791304  31.3273106
  15.3126373   5.4800615  33.8828430  14.8157473   6.4301534  33.6865425
  15.3694191   5.4095626  34.9690781  16.3390827   5.3825245  33.5292931
  11.3734713   4.5358229  35.6756516  10.8987865   5.6930180  35.9004707
  10.6485615   3.4436650  35.9504204  11.0744476   2.5279415  35.9373627
   9.1806412   3.5069139  36.2678032   8.6339722   4.0274377  35.4814796
   8.6395273   2.0564623  36.4183578   8.6963129   1.6182817  35.4219284
   9.2564344   1.4551550  37.0861588   7.1838732   2.0854669  36.8857307
   7.0944762   2.5059147  37.8873940   6.5194335   2.6350574  36.2189674
   6.5002928   0.7358565  36.8708572   5.2628903   0.6090448  37.1101303
   7.1841121  -0.4281395  36.7525597   8.1777544  -0.4936146  36.5837746
   6.7716856  -1.3371010  36.5983086   8.9618168   4.2873273  37.6061630
   8.2945118   5.3061132  37.5799828   9.5075665   3.7772479  38.7185860
  10.1592951   3.0056610  38.7165451   9.3428373   4.4444799  40.0223961
   8.3046169   4.5287237  40.3434906  10.0623331   3.5346005  41.0899239
  11.0678768   3.3426566  40.7155724   9.9663134   3.9971714  42.0722198
   9.4215965   2.1341014  41.1742020   8.4313211   2.4145947  41.5330582
   9.3071489   1.7378622  40.1652451  10.1249228   1.2348613  42.1077309
  11.0037766   0.9113029  41.5500336  10.4841042   1.8235890  42.9518242
   9.3817616   0.0126265  42.6529045   8.4132652   0.3402459  43.0307693
   9.0540276  -0.7163053  41.9117203  10.2683630  -0.5148978  43.7350540
  11.0135546  -1.0592324  43.3245773  10.6828127   0.2280811  44.2794037
   9.7243376  -1.1056714  44.3475266  10.0933704   5.7957258  40.1339607
   9.6169710   6.6639166  40.8302422  11.2143755   5.9692078  39.4540062
  11.6745148   5.3004045  38.8531113  11.8054962   7.3344774  39.3776779
  11.8467512   7.6583052  40.4176445  13.2566118   7.2448273  38.8467331
  13.2678146   6.8075533  37.8483505  14.1353998   8.5097466  38.7530518
  13.7766991   9.3487177  38.1567650  14.1903334   8.8812695  39.7763100
  15.0990543   8.3340330  38.2749367  13.9653854   6.3362327  39.6487617
  13.9519882   5.4493747  39.2814674  10.9272051   8.3825035  38.6279068
  10.7629795   9.4328203  39.2041855  10.3596907   8.0927448  37.4434776
  10.4992828   7.1662874  37.0662651   9.3644295   8.8595104  36.7094498
   9.8705292   9.8198776  36.6111717   9.0045385   8.1684160  35.3785400
   9.9298229   7.7180738  35.0191803   8.3819122   7.2808814  35.4913216
   8.6463060   9.0937185  34.1951294   8.9065628  10.1457167  34.3120308
   9.2949305   8.7588749  33.3856468   7.1738758   8.9869709  33.6966362
   7.1034722   9.5994854  32.7977638   6.8548312   7.9730639  33.4551773
   6.2284575   9.5074530  34.7592354   6.3314190   8.8389997  35.6140251
   6.4840159  10.5224323  35.0635490   4.9071145   9.4049597  34.2817192
   4.3074040  10.0824776  34.7305107   4.7233677   9.4245958  33.2887650
   4.5448494   8.5090389  34.5752983   8.0982294   9.1658211  37.5885201
   7.5926166  10.2590513  37.5784988   7.7800326   8.2841434  38.5383835
   8.2410831   7.3859572  38.5101852   6.7089090   8.4519701  39.4991417
   5.9632893   9.0040464  38.9269791   6.1602535   7.0755024  39.9135017
   5.9664707   6.5181313  38.9970474   6.9081531   6.6328583  40.5713844
   4.8731794   7.3028293  40.8048401   5.3517952   7.6771593  41.7097740
   4.2887478   8.0613432  40.2840767   3.9459622   6.1454749  41.0566673
   4.3970022   5.1681371  41.5904961   2.7441871   6.0947461  40.4768105
   2.4918382   6.8957143  39.9156761   2.2526085   5.2130790  40.5101891
   7.0877614   9.3977079  40.6866875   6.2997227  10.2368984  41.0612793
   8.2983866   9.1767168  41.2239342   8.7659254   8.3297129  40.9339485
   8.9989185  10.0696707  42.2011185   8.3284798  10.1694183  43.0547371
  10.4391356   9.5220766  42.5389748  10.2524204   8.5175028  42.9185410
  11.0096626   9.3171015  41.6331139  11.2907057  10.3903952  43.5586929
  11.6454630  11.3088627  43.0910721  10.5397730  10.7192860  44.8397408
   9.9788103  11.6459761  44.7186394   9.9054947   9.9346867  45.2522888
  11.1823711  10.9242277  45.6959953  12.5905466   9.6529179  43.7637596
  13.1192999   9.3260498  42.8684006  13.1947803  10.2556295  44.4418030
  12.1504440   8.7904091  44.2642403   8.8831100  11.5091715  41.6208344
   8.3817406  12.3863611  42.2927322   9.3067369  11.7552843  40.3251572
   9.7693272  10.9838667  39.8657837   9.3390951  13.1166449  39.7043991
   9.8073215  13.8781128  40.3281212  10.1172352  13.0022793  38.3684540
   9.4771261  12.4304543  37.6966095  10.0450468  14.0389462  38.0394936
  11.6411219  12.6128025  38.3548431  11.8941517  11.6921053  38.8805771
  12.0619135  12.4801102  36.8699837  11.6875944  11.5752439  36.3912354
  11.7475672  13.3573036  36.3044586  13.1468029  12.4504309  36.7688026
  12.4854021  13.6809063  38.9810448  13.5091162  13.3100452  39.0317497
  12.3380957  14.6231279  38.4532013  12.1942329  13.8919334  40.0100212
   7.8790464  13.7092867  39.5690727   7.5071988  14.8009768  39.9813080
   7.0696383  12.9262161  38.9131165   7.3842883  12.0708542  38.4778557
   5.6834846  13.3293161  38.6587486   5.5881982  14.1639299  37.9641685
   4.9589472  12.2295885  37.8654099   5.4379635  12.1547785  36.8891678
   5.0114269  11.2960434  38.4256325   3.5110781  12.5743303  37.5867920
   2.9345100  12.5869417  38.5117302   3.5178411  13.5349779  37.0718040
   2.8081291  11.3819342  36.7754288   3.1746056  11.1839037  35.5969467
   1.8924178  10.7821150  37.3551483   4.9479351  13.6657896  39.9851723
   4.3554363  14.7298927  40.0806694   5.1268129  12.9104376  41.0686226
   5.7799706  12.1522045  40.9323578   4.5829687  13.2160597  42.3204880
   3.5035193  13.2744808  42.1809311   4.7826362  11.9243126  43.1940994
   4.3462377  11.1417017  42.5734749   5.8279390  11.6854591  43.3900528
   4.0079632  12.1257887  44.4912682   4.5395999  12.7467947  45.2122498
   3.0632377  12.6162481  44.2566528   3.6504307  10.7526369  45.0516472
   2.9894216  10.3383274  44.2903862   4.5505524  10.1379175  45.0528564
   3.0053766  10.7378836  46.4228668   2.5065463   9.7705946  46.4830666
   3.8704536  10.7372217  47.0859947   2.0734830  11.9263048  46.5750084
   2.6466274  12.7320948  46.7806931   1.4855716  12.1781788  45.7933235
   1.4816670  11.8100662  47.3851585   5.1858573  14.4951677  43.0155144
   4.5211844  15.1955957  43.7657127   6.4639525  14.8477783  42.7051010
   6.9089632  14.3619928  41.9395447   7.0533543  16.1375141  43.2630844
   6.8314104  16.1650105  44.3298950   8.5749369  16.1175594  43.1027794
   8.6884995  15.8228512  42.0595398   9.3118906  17.3704166  43.3111076
   8.9842978  18.0422173  42.5177193   9.0679255  17.7863102  44.2886620
  10.3846102  17.2022800  43.2157021   9.2973175  15.0879145  43.9462814
   9.2715540  15.3661957  44.9998474   8.7627506  14.1510258  43.7895088
  10.6861496  14.7834635  43.6126862  10.8717203  14.8954268  42.5444527
  11.3555727  15.2583084  44.3299675  10.8671951  13.7480249  43.9011116
   6.3210654  17.3410244  42.5232315   6.0610442  18.3780460  43.1493950
   5.9488692  17.1719589  41.2765198   6.0554953  16.2334995  40.9187164
   5.1898289  18.1044464  40.4625931   5.5620251  19.1168804  40.6192818
   5.2544894  17.7076225  38.9910126   4.9798789  16.6626797  38.8468552
   4.3195782  18.7713718  38.3027420   4.2918148  18.4660778  37.2567329
   3.3031757  18.8237019  38.6929817   4.7727690  19.7531414  38.4400291
   6.7164106  17.8145885  38.3871956   7.0363050  18.8415451  38.2107697
   7.4057837  17.3121948  39.0657730   6.9543409  16.9385281  37.1099091
   6.5466819  17.5254726  36.2868538   8.0206852  16.8131294  36.9220619
   6.5257301  15.9428902  37.2243538   3.7048507  18.1981888  40.9593964
   3.1443059  19.2889729  41.0609283   3.1744053  17.0085945  41.3714104
   3.5950921  16.1166420  41.1533623   1.8782160  16.9036922  41.9803963
   1.2041632  17.5845051  41.4605408   1.3633857  15.4965334  41.7621193
   1.5264766  15.1140690  40.7545395   1.9955993  14.8236256  42.3414307
  -0.0983702  15.3509245  41.9413338  -0.3439683  15.4924946  42.9938240
  -0.6438040  16.1079597  41.3778610  -0.6032920  13.8944855  41.5486488
  -0.5782663  13.4345665  40.3661118  -1.1652943  13.3061333  42.4838409
   1.8133080  17.4149570  43.4663734   0.7267295  17.9053516  43.8798218
   2.9388075  17.5111275  44.0743103   3.7111545  16.9841690  43.6923485
   3.0527275  18.0439949  45.4226723   2.1628537  17.8121929  46.0079002
   4.2787800  17.4485455  46.1173935   4.2330666  16.3727016  45.9483719
   5.1553612  17.6939144  45.5178108   4.5376763  17.8355007  47.5902023
   5.5552521  17.5912056  47.8950920   4.4281640  18.9134884  47.7087364
   3.5526929  17.1679516  48.5095901   3.0131190  16.1291428  48.1200981
   3.3577740  17.6765003  49.6916084   3.2166901  19.5517635  45.4472885
   2.6073835  20.3305931  46.2457275   4.1593595  20.0521450  44.6262360
   4.6224799  19.4341583  43.9753036   4.6450658  21.4278355  44.5417290
   4.2669654  21.9589691  45.4152527   6.1235614  21.4557972  44.7465668
   6.5530834  20.9876404  43.8608818   6.5258207  22.4688549  44.7486343
   6.5808439  20.7173653  46.0407524   6.3541031  21.3516903  47.0796890
   7.1738353  19.5686817  45.9555626   7.4404526  19.1199112  46.8202171
   6.9975963  19.0446548  45.1103172   4.3464279  22.2969685  43.4069252
   4.7057381  23.4604969  43.4707985   3.6450746  21.8175774  42.3871384
   3.4343007  20.8298206  42.3839569   3.1040437  22.5822754  41.2068253
   2.8668871  21.7671623  40.5231247   1.8566276  23.3388863  41.4925194
   2.1572635  24.2081585  42.0773964   1.4475538  23.5991287  40.5162773
   0.9577829  22.4030437  42.2355690   0.7224443  22.3903275  43.6005478
   0.9861090  23.1496220  44.2121468   0.1538643  21.2574196  43.9365120
  -0.3458328  20.9951096  44.8573227   0.0924289  20.5047951  42.8037834
  -0.4768670  19.6830063  42.6600266   0.5176167  21.2301102  41.7240410
   0.5283254  20.8976440  40.6965446   4.2103796  23.3371105  40.4263878
   3.9627497  24.4869404  40.0153732   5.3958139  22.7155666  40.3672104
   5.4747286  21.8538418  40.8880768   6.5830731  23.3275089  39.7740250
   6.5863833  24.3910255  40.0128212   7.8183241  22.5801010  40.2504120
   7.8022046  21.6074028  39.7587852   9.1521168  23.2491512  39.8019066
   9.3191805  24.1251678  40.4286270   9.9202166  22.5202122  40.0603104
   9.1339817  23.5234852  38.7471542   7.6449757  22.4883938  41.7053528
   7.3691478  23.3849430  41.9096069   6.4683266  23.1010036  38.2258568
   5.8453321  22.1358624  37.8812866   6.9878473  24.0080395  37.3992653
   7.4522762  24.7874470  37.8430290   7.0368242  23.9541626  35.9373932
   6.4525785  23.0764160  35.6611328   6.2539892  25.2368088  35.3503418
   5.9346166  25.0103111  34.3330879   5.3746891  25.2785606  35.9931450
   6.9391217  26.6424732  35.3340912   7.0303860  26.9760571  36.3677711
   7.9452972  26.6379280  34.9149399   6.1493869  27.6856785  34.5243378
   6.2615504  27.5794449  33.4453392   5.0869012  27.6915932  34.7676201
   6.6050224  29.0875683  35.0037994   6.4330506  29.2489300  36.0679855
   7.6700053  29.2464657  34.8344955   5.9333434  30.1789417  34.2508659
   4.9277730  30.1052856  34.3100548   6.3321581  31.0908661  34.4224510
   6.2933588  30.1595383  33.3074074   8.4789610  23.9582729  35.4461403
   9.2749071  24.6317558  36.0854568   8.8139601  23.2420902  34.3406868
   7.7547960  22.7742615  33.3801270   7.1273403  23.6061993  33.0603142
   7.0532136  22.0892258  33.8561707   8.5191069  22.0866508  32.2888184
   8.0774832  22.2607937  31.3076229   8.5326996  21.0013809  32.3893661
   9.9588690  22.5667915  32.2878075  10.1295090  23.3359261  31.5345383
  10.7112370  21.7881374  32.1623306  10.1180477  23.1888599  33.6924629
  10.8025398  22.5355930  34.2335854  10.8437843  24.5774097  33.6460190
  12.1053324  24.5213585  33.8556862  10.1409264  25.7060890  33.4687729
   9.1646080  25.6757660  33.2119026  10.7274017  27.0212803  33.3596611
  11.5378723  26.9426079  32.6350594   9.6569195  28.0066223  32.8579826
   9.2429743  27.6658745  31.9089603   8.8198261  27.9134979  33.5498695
  10.0812845  29.4858150  32.7382851  10.6570892  29.8354435  33.5951996
  10.7743397  29.5550518  31.8998432   8.9742908  30.4964848  32.3889542
   7.8090954  30.0675335  32.1591225   9.2822514  31.6724319  32.3778954
  11.3233128  27.5495129  34.6302376  12.3269548  28.2270889  34.5045471
  10.8480978  27.2336063  35.7854424  10.0470867  26.6184654  35.7763748
  11.3159122  27.6974163  37.1167297  11.7214432  28.7037868  37.0124855
  10.1449251  27.8395443  38.0583687   9.6855555  26.8511105  38.0673332
  10.5576057  28.2003479  39.0005035   9.1555138  28.9062805  37.5020828
   8.0123177  28.7029552  37.7857590   9.5140572  29.8579559  36.8115807
  12.4432716  26.8271122  37.6643333  13.0568762  27.2723999  38.5963860
  12.7130604  25.5823078  37.1472473  12.1820374  25.1683521  36.3944168
  13.7816973  24.7382164  37.5853424  13.7811356  24.7782993  38.6746063
  13.7290173  23.2774124  36.9880104  13.8947277  23.2188835  35.9122734
  14.8032408  22.3514767  37.6990013  14.8302917  22.5862713  38.7630730
  14.5754929  21.2919617  37.5821228  15.7866840  22.6424789  37.3298721
  12.3138628  22.6885986  37.3462944  12.2141838  21.7254887  36.8457108
  12.3462906  22.5081520  38.4207649  11.5217361  23.3283749  36.9572906
  15.0986795  25.3648472  37.1011353  15.3023806  25.7766037  35.9483643
  16.0944290  25.4419231  38.0153465  15.8682137  25.2952747  38.9887009
  17.4419155  25.9709568  37.7408028  17.4092522  26.7219086  36.9514313
  18.0598049  26.6528473  39.0228958  18.3779411  25.8801823  39.7228165
  19.3533344  27.3819466  38.6682510  19.0359516  28.3656349  38.3222427
  20.0275841  27.5010796  39.5163612  19.9047947  26.8151989  37.9180603
  17.1331196  27.6073475  39.7382240  16.0795326  27.3282757  39.7514610
  17.4496326  27.7093029  40.7762604  17.3145523  28.6102734  39.3518028
  18.3533802  24.8537369  37.2380981  19.0984631  25.0646591  36.3543701
  18.2641106  23.7178078  37.9199524  17.5565414  23.6351604  38.6359215
  19.1152058  22.5049992  37.7096214  19.2506313  22.3610287  36.6376877
  20.5549812  22.6485062  38.3345070  21.0490189  21.7053013  38.1012726
  20.9316597  23.5709763  37.8926239  20.6496181  22.7819500  39.9111061
  20.0743694  23.5801086  40.3802872  20.2495937  21.8722820  40.3589859
  22.1079769  22.8474674  40.3871574  22.5408535  23.5183201  41.2999229
  22.9634705  22.0545216  39.7824402  23.9040108  21.9864426  40.1441689
  22.7377491  21.3664589  39.0783653  18.3805103  21.3536682  38.4654808
  17.6234875  21.6465397  39.3941116  18.7341633  20.1648369  38.1384010
  19.3797817  20.0268612  37.3740463  18.3651619  18.9873123  38.8818855
  17.9727936  19.2676468  39.8594131  17.1625328  18.3575115  38.2018585
  16.4997177  19.1286049  37.8091888  17.5326366  17.7571449  37.3707848
  16.3773651  17.3355560  39.0813942  17.1519108  16.6361160  39.3959808
  15.9892826  17.9150352  39.9190674  14.9134073  16.4363995  38.3283119
  13.9300528  17.7529240  37.6168022  14.0987873  18.7090816  38.1121674
  14.2084160  17.8955765  36.5726471  12.8743773  17.4935875  37.5369110
  19.5655327  17.9619331  39.1474533  20.4563713  17.8073158  38.2946701
  19.5753937  17.2064667  40.2766953  18.8339119  17.2714710  40.9593964
  20.5883942  16.1856651  40.6060524  21.1939793  15.9843693  39.7224007
  21.5560150  16.6311398  41.7319908  20.9848881  16.6743221  42.6593781
  22.3510971  15.8994646  41.8755035  22.2026577  17.9797916  41.3764153
  21.4014397  18.6531658  41.0719185  22.8813286  18.6558838  42.6041374
  23.6798344  18.0009880  42.9528580  23.2385426  19.6183662  42.2379036
  22.0559502  18.7183838  43.3133240  23.2572975  17.9651489  40.2730751
  23.9779224  17.1801968  40.5025330  22.8555222  17.6434574  39.3122444
  23.7651577  18.9288483  40.2348328  19.9617462  14.8817558  41.0859833
  18.9655590  14.9576607  41.8501778  20.4819698  13.7346392  40.7029572
  21.3207703  13.8169498  40.1464157  20.0376968  12.4788713  41.2701378
  19.2948875  12.6346369  42.0524902  19.2220192  11.5866451  40.3266563
  19.7529469  11.3329229  39.4091377  19.1959686  10.6609154  40.9015007
  17.7926197  12.0748177  39.9235802  17.2654476  12.2593184  40.8596077
  17.7156963  13.1069365  38.8490410  18.1067123  12.7054615  37.9141502
  16.6452789  13.3058243  38.7966003  18.0310535  14.0831003  39.2175064
  17.0505638  10.8604965  39.2348862  17.1298409  10.0086460  39.9102936
  16.0383511  11.1590691  38.9621582  17.5252304  10.5627232  38.2999420
  21.1510010  11.6901789  42.0118484  22.3601551  11.8262587  41.6207733
  20.7276440  10.8901548  43.0457954  19.7569656  10.7438326  43.2834358
  21.6854439  10.0307865  43.7981567  22.7372379  10.3153200  43.7686119
  21.4344692  10.2145786  45.2994881  21.6378460  11.2556705  45.5502129
  20.3729324  10.0321760  45.4667397  22.2272129   9.3094397  46.0870361
  21.7573299   8.4724455  46.0710831  21.4030514   8.5648823  43.4075356
  20.2639961   8.1560631  43.5021019  22.3904419   7.7506638  43.1550636
  23.2928505   8.1930265  43.0546722  22.3162022   6.2846112  43.0980949
  21.2974815   5.9488640  43.2919807  22.5560398   5.8804154  41.6028824
  21.9522190   6.4850001  40.9261436  23.6287613   5.9012442  41.4106941
  22.1574535   4.8741908  41.4734993  23.1730976   5.5388350  44.0903320
  24.3381004   5.9700704  44.1733017  22.6846504   4.4756389  44.7773743
  21.6890392   4.3082643  44.7483177  23.6087170   3.6318531  45.5090218
  24.1768723   4.3118887  46.1437302  22.8324986   2.8265300  46.5517883
  23.4914341   2.0740063  46.9849281  22.2095737   3.5875425  47.6655655
  23.0239754   3.9320722  48.3028564  21.7066669   4.4738879  47.2788124
  21.5271854   3.0076981  48.2870369  21.7802792   2.1394794  45.9171715
  22.0365467   1.3200006  45.4877701  24.5109577   2.7038474  44.6524506
  24.0862198   2.3611264  43.5461617  25.6944542   2.3629756  45.1298866
  26.1046028   2.6299298  46.5300255  25.8318806   1.9190115  47.3099747
  25.6853333   3.5533736  46.9294815  27.6441574   2.7791748  46.5096588
  28.0395851   2.6268232  47.5139122  27.8820000   3.7266996  46.0261993
  27.9733200   1.6207964  45.5386658  27.9905701   0.6815207  46.0914459
  28.9286480   1.8340678  45.0591202  26.8314018   1.5744725  44.5804367
  27.2026386   2.0884812  43.6938248  26.5527439   0.1652720  44.0698891
  27.3867378  -0.5311295  43.5804596  25.3175678  -0.2772763  44.2209625
  24.6903191   0.4043337  44.6235390  24.7777691  -1.6289965  43.9813042
  25.5721302  -2.3378079  43.7474709  24.0766315  -2.0274549  45.3365326
  23.4710255  -2.9062037  45.1148567  24.8391380  -2.3008535  46.0658760
  23.1246700  -1.0625806  46.0050964  22.6991444  -0.1274139  45.3078766
  22.7383118  -1.2467332  47.1856842  23.8810158  -1.6626695  42.7347069
  23.5529251  -2.7412062  42.2907066  23.5956402  -0.5429675  42.1096802
  23.9509945   0.3306711  42.4710350  22.8333225  -0.3752931  40.8306885
  22.2923203  -1.3177792  40.7462158  21.8176212   0.8067744  40.9552269
  22.2602215   1.7031120  41.3897247  21.3746052   1.0415068  39.9873772
  20.6940498   0.4076957  41.9830399  21.0914307   0.2878676  42.9909248
  19.4549751   1.4173584  41.9670105  18.8167152   1.4220792  41.0834389
  18.8328037   1.2522670  42.8466415  19.8520012   2.4299488  42.0386391
  20.1508102  -0.9792863  41.6185646  20.8111248  -1.8054510  41.8822708
  19.2230625  -1.1065016  42.1764183  19.9567204  -0.8835992  40.5502663
  23.8016014  -0.2136588  39.6605186  24.7118664   0.6042557  39.6974525
  23.6809082  -1.0178944  38.6538544  23.0045815  -1.7515668  38.8100777
  24.4459648  -0.9462557  37.4264832  25.0298061  -0.0277875  37.3660965
  25.4525013  -2.1322200  37.5250435  24.9630680  -3.1032233  37.6006126
  26.0665283  -2.0696375  36.6266251  26.4748878  -2.0354216  38.6023827
  27.1346989  -0.8565989  39.0166664  27.1445522   0.0050751  38.4898643
  27.6238537  -1.0726192  40.2572441  28.3653889  -0.4291549  40.7072220
  27.3093243  -2.3080523  40.6848564  27.6282349  -2.7499392  41.5352287
  26.5555248  -2.9163759  39.6556282  26.1462517  -3.9046857  39.8044167
  23.7181110  -1.1443459  36.0913734  24.3616295  -0.9604148  35.0771866
  22.4126301  -1.3724383  36.1214676  21.8551769  -1.4897829  36.9554787
  21.6212177  -1.5881656  34.8745575  22.2112961  -2.2530210  34.2437782
  20.3049641  -2.3425238  35.0765457  19.6614647  -1.7363611  35.7141800
  19.7230358  -2.5899642  34.1887245  20.5587673  -3.3009281  35.5294724
  21.4321232  -0.3287667  33.9338951  21.3224850  -0.5160832  32.7319603
  21.3459530   0.8758371  34.5202103  21.3892803   0.8486028  35.5289154
  20.8760567   2.1132364  33.8237686  21.3138924   2.1989405  32.8292580
  19.3472862   1.9907080  33.5130386  19.0900860   1.0664424  32.9956551
  18.5112286   2.1241264  34.7897987  17.4730206   1.8418503  34.6150360
  18.9145775   1.4840760  35.5744934  18.5439529   3.1546121  35.1435394
  18.8802834   3.0690691  32.5389633  18.6622963   3.9950092  33.0711441
  19.6393013   3.1458356  31.7604408  18.0453091   2.7306974  31.9254303
  21.1757412   3.4238126  34.6219063  21.0069256   3.3912933  35.8261948
  21.5967751   4.4807434  33.9211349  21.5251656   4.4711151  32.9137192
  21.5597553   5.7787447  34.5917892  22.1215668   5.6297431  35.5138893
  22.2553902   6.7926865  33.7713814  21.7434750   6.9071245  32.8158989
  22.2444286   7.7648301  34.2642479  23.7012558   6.5001512  33.5029068
  24.5987854   6.7678361  34.5563965  24.2261181   7.2102313  35.4684296
  25.9615211   6.5793295  34.3928642  26.7101326   6.8260121  35.1311913
  26.3706684   5.9566255  33.1782112  27.4239960   5.7914653  33.0060921
  25.5062428   5.7911811  32.0700264  25.8591595   5.2979884  31.1763744
  24.1656170   5.9670706  32.3074455  23.3730698   5.7896376  31.5955524
  20.1429653   6.3445020  34.8096123  19.3820591   6.5037737  33.8562241
  19.7065639   6.7153096  36.0670242  20.3795109   6.6537542  37.3424568
  21.2928753   7.2395000  37.2386856  20.7567654   5.6773648  37.6465034
  19.4050446   7.2629461  38.3450966  19.5597115   8.3416195  38.3197479
  19.6826935   6.8194199  39.3012848  18.0041885   6.8813734  37.8634453
  17.2880726   7.6187391  38.2261734  17.8278427   5.8105183  37.9647980
  18.2683868   6.9597259  36.3486862  17.5918808   6.2229047  35.9156342
  17.7526798   8.2998161  35.8015289  16.5460110   8.4346733  35.5729179
  18.6203537   9.2290659  35.4899025  19.5784950   9.0690765  35.7664452
  18.3877125  10.6018810  35.0121613  17.7159004  11.0950642  35.7146835
  19.8081417  11.3282537  35.0284348  19.7220592  12.2416487  34.4398727
  20.1075706  11.6470232  36.0268478  20.6591988  10.7745180  34.6319771
  17.7214966  10.6259613  33.6180992  17.1659603  11.6349363  33.2258415
  17.6450729   9.5119390  32.8791580  18.2062054   8.7472363  33.2262306
  16.8589420   9.3759012  31.6379528  17.1261768  10.1762962  30.9479866
  17.1751575   8.0435648  30.9812336  17.1376762   7.2428579  31.7198563
  16.5043850   7.7103720  30.1893063  18.6523857   7.9636602  30.5922585
  18.9283791   8.7240505  29.8616867  19.2844772   7.8271518  31.4697132
  18.8441486   6.6653223  29.8080730  18.6313877   5.8408842  30.4886074
  18.1700859   6.6343613  28.9520473  20.2461090   6.6250224  29.2561073
  20.4455376   7.5961733  28.8031216  20.8451996   6.3182149  30.1134624
  20.3499489   5.4983692  28.3195477  20.0641174   4.6250734  28.7387791
  20.0012493   5.7433267  27.4038467  21.3259220   5.2790504  28.1799889
  15.3556833   9.4886713  31.7690411  14.6667175   9.8525305  30.8079243
  14.8665695   9.2683897  32.9603691  15.4306355   8.9186077  33.7216721
  13.4281073   9.3487558  33.2808495  12.9127293   8.6468372  32.6252632
  13.3224297   8.8246126  34.7593613  13.4176483   9.7369947  35.3480873
  12.3434515   8.3560038  34.8598976  14.0789146   8.1590929  35.1752014
  12.8064508  10.8083487  33.1322174  11.5812845  10.8821096  32.8536949
  13.5028200  11.9119415  33.1476326  14.4939032  11.8380346  33.3276062
  12.9018927  13.2282267  33.2263451  12.0809803  13.2518559  33.9430351
  13.8933878  14.3517237  33.5821495  14.6388102  14.2341623  32.7956200
  13.3149920  15.7435131  33.5591431  14.1005421  16.4695110  33.7687683
  13.0076675  15.8821573  32.5225945  12.4858561  15.7535009  34.2666245
  14.6689234  14.1104002  34.8565903  15.1979198  13.1588879  34.8029633
  15.3243351  14.9199028  35.1779060  13.9426126  14.0642471  35.6680374
  12.3008375  13.4699144  31.7814331  11.1655827  13.9828787  31.7231140
  12.9767666  13.0985231  30.6546345  13.9483767  12.8560200  30.7860336
  12.4238663  13.5294867  29.3454227  12.3301458  14.6129618  29.2719212
  13.4259691  13.0916796  28.2317657  13.6568518  12.0446548  28.4280624
  12.9523716  13.1262712  27.2506409  14.6302776  14.0115032  28.0322170
  14.4370956  14.7880917  27.2921543  14.8471403  14.4733229  28.9954376
  15.8117981  13.1650057  27.3952332  15.8654356  12.2067089  27.9118481
  15.6117191  12.9600477  26.3435383  17.0771217  13.8810654  27.6092052
  17.1201954  14.4277172  28.4573898  18.2147903  13.8623953  26.8471355
  18.3105984  13.0881968  25.8207130  17.5576553  12.4775686  25.5373230
  19.2048550  13.0590048  25.3521481  19.3113918  14.5511866  27.1600266
  20.1666012  14.2023859  26.7512989  19.1172924  15.4058619  27.6619797
  11.0130358  12.9293737  29.0518112  10.3751650  13.3701344  28.1090603
  10.6270018  11.8890152  29.7908173  11.0611191  11.7771759  30.6958809
   9.3370171  11.2400732  29.6869507   9.1174603  11.0915699  28.6296692
   9.2814770   9.8553591  30.4143543   9.4313850  10.0516577  31.4760036
   8.3266344   9.3355618  30.3357029  10.3826370   8.8383274  30.0108662
  10.3196955   8.8312960  28.9227066  11.3513155   9.1249638  30.4202595
  10.0865383   7.3475332  30.4383831  11.0209103   6.5201569  30.4035797
   9.0963507   6.9414868  31.0006104   8.1722593  12.1026316  30.2052135
   7.0311909  11.7212772  29.9652615   8.4239445  13.2592106  30.7318478
   9.3998480  13.3403730  30.9790821   7.5007401  14.2952147  31.1901779
   6.4903984  13.9131594  31.3362751   7.9123292  14.7376261  32.6063995
   8.8575249  15.2681160  32.4911346   7.2511773  15.4463663  33.1050644
   8.2834425  13.6045828  33.6330528   8.9506550  12.8255510  33.2642212
   9.0403423  14.0847473  34.8999290   9.3171816  13.2612858  35.5582352
   9.9587030  14.6063843  34.6304703   8.4435453  14.8396473  35.4118462
   6.9611435  12.9020166  34.0342865   6.3653498  13.6899910  34.4949760
   6.4012966  12.4473114  33.2170258   7.2296820  12.3082905  34.9080582
   7.5254927  15.4391994  30.1488247   8.5370464  15.7455921  29.5638790
   6.2831097  15.8427744  29.7947903   5.4701791  15.4854898  30.2760296
   6.2276192  16.8447266  28.7013435   6.6991715  16.4102936  27.8198605
   4.8238063  17.1216660  28.0847416   4.3633661  16.1574135  27.8695278
   4.1187716  17.4783058  28.8356323   4.7568927  17.8567734  26.8393555
   5.0156765  17.3298950  26.0797291   6.8097620  18.1611729  29.0538502
   6.6457424  18.6130886  30.1885204   7.5339022  18.8254261  28.1374092
   7.5777411  18.4367180  27.2062359   8.2133350  20.0831566  28.2614098
   8.4854631  20.4443874  27.2696648   7.5276556  20.7524395  28.7810383
   9.5071764  20.0012054  29.1435032  10.1495895  21.0189419  29.3769875
   9.8320713  18.9020004  29.7888432   9.3171301  18.0384464  29.6928787
  10.9261971  18.8645039  30.7680855  11.1215620  19.8572063  31.1736507
  10.6199884  17.8681507  31.9028988  10.3703556  16.8923244  31.4863110
  11.5630751  17.6090603  32.3841171   9.6327457  18.3045902  32.8775711
   8.2930079  18.2043438  32.8147507   7.8078346  17.6944065  31.9956169
   7.6899710  18.7734852  33.9612923   6.6916351  18.7649803  34.1141090
   8.6699467  19.1588516  34.8576431   8.6937685  19.8795891  36.0574989
   7.8390765  20.3006115  36.5660667   9.8615541  19.8717232  36.8219185
   9.8552456  20.3031845  37.8119698  11.0262852  19.3021870  36.2943611
  11.8663759  19.3381824  36.9721222  11.0642776  18.7915230  34.9504051
  11.9099102  18.4451313  34.3748016   9.8712959  18.7493057  34.2520714
  12.2927542  18.3901272  30.1137371  13.3444700  18.3554726  30.7331905
  12.3197527  18.1671162  28.8057919  11.4340839  18.1382504  28.3211708
  13.5049858  17.7739162  28.0042458  13.8497581  16.8348370  28.4370995
  13.1791964  17.5245724  26.5520267  14.0814543  17.5270061  25.9404507
  12.6557016  16.5690575  26.5196152  12.3937407  18.6496201  25.8887463
  11.3912668  18.7000637  26.3137188  12.8903971  19.5707455  26.1936436
  12.3619967  18.5633831  24.3835220  12.8284693  17.6002235  23.7891560
  11.6878901  19.3998890  23.6707020  11.4084482  20.2856026  24.0675983
  11.8830843  19.3349094  22.6818771  14.7619476  18.7063408  28.1226254
  15.8752012  18.2063828  28.1728516  14.5855513  20.0155334  28.1415005
  13.7055702  20.3752804  27.8004494  15.6448154  20.9895439  28.4275131
  16.5316334  20.4946804  28.0315762  15.3988600  22.2606087  27.6246872
  14.5297327  22.7851143  28.0216923  16.2149181  22.9577980  27.8146381
  15.1009798  22.1030941  26.1577587  16.2425995  21.9062176  25.3424168
  17.2332230  22.0146046  25.7587318  16.0081196  21.7444191  23.9668598
  16.8753395  21.7212429  23.3235931  14.7227087  21.9288559  23.4451351
  14.5243349  22.0213242  22.1110325  15.2211113  22.5017948  21.6579895
  13.6098518  22.0333958  24.2439747  12.6885281  22.1840115  23.7009449
  13.8303289  22.1503048  25.6228142  12.9489851  22.1622849  26.2469044
  16.0335770  21.2129040  29.9255753  16.9301224  22.0383396  30.1503448
  15.3257589  20.5797157  30.8772125  14.7079592  19.8389683  30.5776844
  15.7811460  20.8103848  32.2762527  15.9448099  21.8706341  32.4690933
  14.6997080  20.4454136  33.3052444  14.3289595  19.4603500  33.0218811
  15.1754646  20.5272160  34.8328285  16.1926956  20.1457043  34.9211426
  15.1443510  21.5741539  35.1345825  14.5522089  19.9161415  35.4856987
  13.4734058  21.3151588  33.1129990  13.7765207  22.3599873  33.1804581
  13.0572519  21.2593269  32.1071167  12.6892862  20.9888325  33.7962036
  17.0797291  19.9898720  32.5748940  16.9677372  18.7464924  32.5088806
  18.2259541  20.5960045  32.7850189  18.3690548  22.0486507  32.8794212
  17.6241188  22.4640198  33.5581245  18.3187046  22.6501522  31.9718056
  19.7462845  22.2340794  33.5383072  19.6922035  22.2987766  34.6250381
  20.1454697  23.1978626  33.2222786  20.5306854  20.9901028  33.0970345
  21.3091316  20.6437397  33.7768555  20.8768768  21.2109165  32.0873375
  19.4697056  19.9026680  32.9809647  19.6245842  19.2874413  32.0946198
  19.4650764  18.9560280  34.2576141  19.2544327  19.4194717  35.3809166
  19.9536324  17.7517700  34.0586624  20.3405628  17.5750446  33.1426086
  19.8424969  16.7169132  35.0749550  19.8662128  17.1974602  36.0530243
  18.5059643  16.0216389  35.0257759  17.7175007  16.7628670  35.1561737
  18.0671387  15.2736893  33.7588196  17.0055981  15.0262728  33.7548599
  18.2381287  15.8992376  32.8827171  18.5949001  14.3371964  33.5784073
  18.2806797  15.1838398  36.2929916  18.7105465  14.1888075  36.1779823
  18.6240101  15.6828394  37.1992073  17.2028046  15.2046137  36.4537849
  20.9976921  15.7525120  34.8960114  21.2208557  15.2884817  33.7715149
  21.6182632  15.4150381  36.0192566  21.3126087  15.9700279  36.8058090
  22.7443905  14.4343891  36.1324615  22.5626831  13.7613926  35.2945137
  24.1741543  14.9826584  35.9639206  24.3547516  15.4712000  35.0064163
  24.5977917  15.9481478  37.1050453  24.5239582  15.4246159  38.0582314
  25.6293240  16.2631073  36.9474182  23.9700089  16.8378277  37.0554771
  25.1411514  13.8834906  36.0416260  25.9788818  14.3521566  36.0289192
  22.6103535  13.6084976  37.4528313  21.9797401  14.0829697  38.4168243
  23.2075806  12.4341984  37.4541893  23.7871017  12.3300438  36.6335754
  23.3885937  11.5669365  38.6566086  22.6698647  12.0894623  39.2878723
  22.8059330  10.2057657  38.2374535  21.8079491  10.4229994  37.8567467
  23.3865776   9.8281937  37.3957939  22.6601372   9.0173483  39.5912933
  23.9716244   8.8630619  39.7940216  24.7782574  11.6822329  39.2840309
  25.7831020  11.9785862  38.6209183  24.8519859  11.3872776  40.5702896
  24.0272388  11.2067013  41.1246223  26.1605244  10.9898930  41.1186180
  26.8905602  10.5685263  40.4275322  26.8418674  12.2635269  41.8006668
  27.8087540  11.9159088  42.1645241  26.9936466  13.0057516  41.0169792
  26.0207996  12.6595678  42.9808350  25.0248737  12.2208767  42.9193535
  26.3574905  12.1426706  43.8794785  25.8424358  14.4019470  43.2996521
  24.8624611  14.7698069  41.8292351  23.9483356  14.1766939  41.8556671
  24.7256413  15.8321075  42.0314713  25.4340134  14.7780924  40.9011421
  25.9483643   9.8429766  42.1734924  24.7754078   9.5617418  42.4436455
  26.9786663   9.2156677  42.5763550  27.8750210   9.4049158  42.1511116
  26.8191261   8.0339308  43.5101242  25.9487610   7.4822240  43.1548996
  28.0053425   7.1948276  43.1256180  27.9146709   6.8895235  42.0831833
  28.9286175   7.7374454  43.3286705  28.1808834   5.9641967  44.0642319
  28.3823299   6.1980023  45.1096268  27.2174969   5.4543390  44.0588150
  29.3217049   5.0317774  43.5044899  29.1228352   4.5705609  42.4351845
  30.2837219   4.6255488  44.2466469  30.9432507   3.9281719  43.9323425
  30.3889656   4.9176927  45.2077293  26.8891106   8.3692780  45.0293694
  27.6464691   9.2651281  45.4534874  26.1318340   7.5545487  45.8040886
  25.5317974   6.8660746  45.3727455  25.9214363   7.6023231  47.2845001
  25.5541592   8.5902958  47.5622063  24.8226738   6.5956626  47.7045593
  23.9655476   6.7360945  47.0459900  25.2311134   5.6029940  47.5151024
  24.3496494   6.7833591  49.1379433  24.3122482   5.8046765  49.6163635
  25.0891094   7.3549514  49.6988182  22.9705696   7.4499493  49.2912903
  22.9648495   8.5744944  49.8209839  21.9229317   6.8242097  48.9761391
  27.2318134   7.4051561  48.0266075  27.9188671   6.4381685  47.7475853
  27.4076271   8.2287502  49.0716591  26.6925030   8.9231043  49.2346573
  28.4095402   7.9066019  50.0965881  29.3786755   8.0467424  49.6177979
  28.3358917   8.8334389  51.3457260  28.3556995   9.8745670  51.0236092
  27.3806763   8.6919537  51.8513412  29.4808636   8.7461452  52.3744164
  29.7052307   7.7068772  52.6145859  30.2824554   9.2982864  51.8838158
  29.3049126   9.5136242  53.9969254  30.5855789   8.6920242  54.9977341
  30.4567776   8.9540396  56.0479050  30.5742893   7.6117425  54.8529396
  31.4633408   9.1671677  54.5597000  28.3152657   6.4330215  50.5982246
  27.2499962   5.9315004  50.8093300  29.4803562   5.7984991  50.8530846
  30.3108826   6.3273721  50.6280708  29.6015854   4.3955269  51.2308006
  28.9604397   3.8704784  50.5227356  30.9910622   3.8443511  50.8814659
  31.3948250   4.3084521  49.9816437  31.6168270   4.1323214  51.7262154
  30.8849411   2.3591549  50.7812309  31.9652576   1.8162124  50.4624138
  29.8387604   1.7289162  50.8843803  29.0806618   3.9798460  52.6554031
  29.8427124   3.3627098  53.3933868  27.9752235   4.4955912  53.1389389
  27.3928967   5.0349140  52.5143394  27.4951286   4.2455182  54.5005188
  28.2971249   4.3438344  55.2321167  26.5457687   5.3204093  54.9082146
  25.6738281   5.3333330  54.2542610  25.9889641   5.1579928  56.2793388
  25.2915993   5.9689870  56.4892731  25.2483807   4.3629742  56.3664207
  26.7799931   5.1591887  57.0292511  27.2086143   6.7196894  54.7885971
  28.0925999   6.6870475  55.4254684  27.4653339   7.0120530  53.7704048
  26.5605717   7.4734411  55.2358131  26.9365597   2.8259635  54.7505684
  26.0516930   2.4567819  54.0650024  27.5106049   2.0779102  55.6801643
  28.2238159   2.4994910  56.2578316  27.1524506   0.6360739  55.7746429
  27.3345928   0.1245572  54.8295097  28.0700607  -0.0247707  56.8016243
  28.6078262   0.7758529  57.3094749  27.5514984  -1.0560925  57.7161827
  26.9726086  -0.6022843  58.5205727  26.9395599  -1.7397163  57.1277199
  28.3533897  -1.5942713  58.2215919  29.1015415  -0.6192337  56.0394707
  29.3421040   0.0643577  55.4098396  25.6373806   0.5374375  56.1560707
  24.9872818  -0.2950230  55.5323486  25.0683842   1.3896465  56.9998245
  25.7552567   1.9099993  57.5266495  23.5911198   1.4248185  57.2993851
  23.3348312   0.3714984  57.1856651  23.3286743   1.7508899  58.3058167
  22.7275219   2.3438101  56.4275856  21.6693859   2.7628181  56.9030533
  23.1582775   2.7600584  55.2373657  24.0351944   2.3801668  54.9105606
  22.2102909   3.3834319  54.3068924  21.5280571   4.0747428  54.8016129
  22.7165756   3.8062382  53.4391327  21.2327328   2.4245441  53.6025696
  21.4628830   1.2037344  53.6470909  20.1363983   2.9018648  52.9860420
  20.0922070   3.9091017  52.9258652  19.1591549   2.0045421  52.3375168
  18.8883038   1.1428726  52.9476509  17.8686619   2.8684993  52.1066513
  18.1326542   3.8374870  51.6830101  17.2916222   2.3361747  51.3505058
  16.8577919   2.9754949  53.2448463  17.2822552   3.5778508  54.0480270
  15.7311487   3.7725875  52.5956039  15.0570173   3.1827199  51.9745522
  15.1692038   4.2600455  53.3922882  16.0178490   4.6045136  51.9523354
  16.2980976   1.6641349  53.7415771  15.7089748   1.9227196  54.6214485
  15.5427580   1.3375727  53.0267906  17.0764332   0.9168227  53.8959122
  19.7627926   1.4192495  51.0167007  20.5471630   2.0863116  50.3565254
  19.5729580   0.1016189  50.8194809  18.7915974  -0.3192720  51.3015900
  20.2114677  -0.6522622  49.6925774  21.2038345  -0.2622043  49.4663773
  20.3411636  -2.1297493  50.2075386  19.3638916  -2.5869670  50.3624306
  20.7717381  -2.6650572  49.3612785  21.2050800  -2.3755372  51.4041557
  20.7498875  -1.8303958  52.2310295  21.0305462  -3.4295011  51.6204834
  22.6293869  -1.8960311  51.2382545  23.0006599  -2.4500697  50.3761063
  22.6254730  -0.8395264  50.9701424  23.5466194  -2.1351175  52.4432907
  23.4115143  -3.0987771  52.9344177  24.5678692  -2.1184592  52.0626678
  23.2532520  -1.0768225  53.3955116  22.3477058  -1.1386050  53.8385353
  23.9418983  -1.2552544  54.1124725  23.5002937  -0.1759809  53.0113831
  19.4114513  -0.6053360  48.3702698  18.1151657  -0.5221104  48.4259262
  20.0288830  -0.6226452  47.2246208  21.0359116  -0.6267222  47.3019409
  19.4238911  -0.3836794  45.8864708  20.2233601  -0.0256825  45.2377892
  18.8542252  -1.7047950  45.3267975  18.2552204  -2.1088898  46.1428871
  18.1618671  -1.4172459  44.5355644  19.9824886  -2.6606460  44.8126755
  20.5482292  -2.0915051  44.0750313  20.5559444  -2.9790506  45.6832314
  19.3655071  -3.9369981  44.1302834  18.6597767  -3.6543479  43.3491592
  20.2281494  -4.5181684  43.8044128  18.8118305  -4.8762102  45.1467133
  19.3498650  -4.7989254  46.0915108  17.7870426  -4.5910897  45.3846703
  18.5747471  -6.2840896  44.6916313  19.4014702  -6.7013068  44.2884483
  18.1058865  -6.8485560  45.3856430  17.8742313  -6.1883149  43.9703789
  18.4045620   0.8165837  45.9024124  17.2062931   0.7391921  45.6296082
  18.9342327   1.9511541  46.3599358  19.9179459   1.9827303  46.5866737
  18.2141190   3.2443991  46.6642685  17.1801929   2.9300458  46.5218697
  18.4709110   3.8280792  48.1101341  18.2856922   2.9608521  48.7439423
  19.5301857   4.0826402  48.0749435  17.3774757   5.1795096  48.7399254
  16.1935101   4.5605421  48.7405586  18.4812202   4.3852463  45.7065697
  19.5803833   4.5735574  45.2057953  17.4895706   5.2187696  45.3505325
  16.6015186   5.2364922  45.8313141  17.7130623   6.4251976  44.4463692
  18.7795296   6.6230283  44.3386040  17.0992546   6.2428594  43.0168915
  16.1660881   5.7613010  43.3091240  16.8037853   7.5324507  42.1781425
  17.7423401   8.0857630  42.1454391  16.4606838   7.3359127  41.1623917
  16.0845852   8.1663437  42.6968269  17.9502258   5.3139672  42.1796188
  18.8628216   5.8143973  41.8558311  18.3727150   4.5371566  42.8169327
  17.1699200   4.4796462  41.1185837  16.6788769   5.0730281  40.3472977
  17.9117928   3.9273186  40.5418167  16.3274841   3.9444969  41.5567818
  17.1394863   7.6240959  45.1449242  16.0840435   7.5456257  45.7364845
  17.8026371   8.8292742  45.0060081  18.5716057   8.7030210  44.3634758
  17.3390827  10.1155109  45.6341743  16.2680321  10.0007095  45.8008308
  18.0443916  10.4712715  47.0609283  18.9002075  11.1166792  46.8631172
  17.3948078  11.1175604  47.6512260  18.4650116   9.2417879  47.8925934
  17.6102009   8.5874424  48.0635757  19.2786465   8.7062740  47.4033852
  18.9603157   9.7536497  49.2380257  19.6630688  10.5714273  49.0783958
  18.1076088  10.1030493  49.8201866  19.6765461   8.6244488  49.9014854
  20.4881554   8.2167234  49.4597282  19.6526012   8.4580479  51.2265778
  18.9557190   9.1611156  52.0068626  19.3862705   9.2289085  52.9179764
  18.3834476   9.9770155  51.8428040  20.3980408   7.6300159  51.7764206
  20.2920208   7.4896598  52.7709885  20.8111248   6.8874907  51.2304192
  17.4682865  11.2783241  44.6447563  18.0066547  11.1082029  43.5387115
  16.9255791  12.4291525  44.9635239  16.4513531  12.5181293  45.8508186
  16.8267651  13.6340714  44.0440445  17.6675205  13.5548811  43.3548698
  15.5868635  13.5929747  43.1034126  15.6385822  12.6485329  42.5616951
  14.3098726  13.5359879  43.8622932  13.4302711  13.3763580  43.2386551
  14.4286585  12.7631989  44.6217575  14.0684347  14.4920683  44.3267479
  15.4410753  14.6121883  41.9410820  15.3471003  15.6526146  42.2521858
  16.2357082  14.4924726  41.2046547  14.4926033  14.4565468  41.4270058
  16.8569698  14.9317913  44.7929916  16.3399029  15.0232897  45.9040260
  17.4858074  15.8709078  44.1268730  17.8067379  15.5608969  43.2207832
  17.4724998  17.3277206  44.4594727  16.6359825  17.5820522  45.1103592
  18.8396873  17.6888885  45.0641251  18.7079086  17.3597698  46.0948601
  19.6369553  17.0826168  44.6341248  19.2152672  19.1748142  45.1321640
  19.9445686  19.3074551  45.9313049  19.6652908  19.5037403  44.1954727
  17.8739510  20.2403164  45.5921021  17.7172031  19.7487793  47.3456306
  17.5896664  18.6689987  47.4225082  18.6402225  19.8046360  47.9227066
  16.8746643  20.3016281  47.7610703  17.2732086  18.1999035  43.2123032
  17.9632072  18.0480614  42.1730537  16.2418613  18.9967041  43.2497864
  15.7124376  18.9625568  44.1092300  15.6809359  19.8800507  42.2321625
  16.2865448  19.8751526  41.3259010  14.3292418  19.3615818  41.7507286
  14.5919733  18.3749447  41.3691254  13.6711788  19.3675518  42.6196480
  13.7671566  20.2989273  40.6505585  13.5115824  21.2626324  41.0910759
  14.5057163  20.4760189  39.8687210  12.4049683  19.7032604  39.6371078
  10.9358063  19.6462517  40.6864166  11.0261879  18.7796459  41.3413391
  11.0785980  20.4966412  41.3531647  10.0530672  19.6807327  40.0479164
  15.5920687  21.2974510  42.7317467  14.7995958  21.6586876  43.5970001
  16.4022560  22.1554508  42.1101799  16.9018688  21.9012451  41.2700233
  16.5287304  23.5574493  42.5342941  16.3653679  23.5477371  43.6119385
  17.9429417  24.0651684  42.1551971  18.0745487  23.9252167  41.0822601
  18.1133709  25.5061054  42.5188217  19.0867443  25.8356514  42.1554489
  17.2799606  26.0502243  42.0744591  18.0334682  25.5410519  43.6053238
  18.9010296  23.2198868  42.7691116  18.9661598  23.5552235  43.6662788
  15.4807673  24.3782387  41.7872849  15.4733772  24.3613625  40.5530968
  14.6460648  25.1480885  42.4868660  14.8542643  25.3063297  43.4624252
  13.4445076  25.8628254  41.9291344  13.4462156  25.8073978  40.8405418
  12.1915197  25.1070480  42.3154182  12.1199427  25.0238857  43.3998795
  10.9460478  25.8303719  41.7917442  10.8817186  25.8692646  40.7043419
  10.0186872  25.3370667  42.0828743  10.8374424  26.8338089  42.2033463
  12.2100191  23.6638908  41.7301216  12.3769846  23.7609749  40.6573753
  12.9340935  22.9843693  42.1796379  11.1981936  23.3409939  41.9751663
  13.4162474  27.3020496  42.3601151  13.6590881  27.5864677  43.5084076
  13.1395588  28.2730045  41.4175529  13.0133648  28.0202579  40.4478645
  12.6277409  29.6863041  41.7264786  13.1183872  30.0878773  42.6131096
  12.7762270  30.5718803  40.4607239  13.8237944  30.7573414  40.2234306
  12.3000059  30.1113987  39.5951195  12.0800266  31.9063168  40.5616074
  12.1995764  32.3215790  39.5609245  10.9978981  31.7784920  40.5340462
  12.6228657  32.8967056  41.6348114  12.6570625  32.6090240  42.7883606
  13.0810223  34.0753746  41.1923714  13.2832699  34.7667160  41.9003601
  13.4882193  34.0598907  40.2682190  11.1207294  29.6347046  42.1736565
  10.3305254  28.9995461  41.5330429  10.7099323  30.3879089  43.2029915
  11.2890778  31.1630592  43.4925270   9.4573174  30.3086262  43.8514557
   8.7396927  30.3434772  43.0317612   9.4489050  28.9378948  44.5857735
   9.4548569  28.2784138  43.7179337  10.6620483  28.8000221  45.4630737
  11.6188221  28.9453831  44.9615250  10.6154079  29.5461235  46.2563324
  10.7641897  27.8342609  45.9580193   8.2863941  28.6680775  45.3204460
   8.4781790  27.8537197  45.7912331   9.1834631  31.3900623  44.8737755
  10.1225786  32.0212288  45.3847656   7.9139180  31.6348629  45.1230583
   7.2158151  31.1701660  44.5601997   7.4401751  32.5288811  46.2300568
   8.2072592  33.2701340  46.4541740   6.2004089  33.3336563  45.7769241
   5.3902864  32.6940193  45.4266930   5.8226924  33.8776054  46.6426926
   6.5017629  34.3596115  44.6938591   6.9152818  35.5367966  45.0430222
   6.3457246  34.0685349  43.4575615   6.9923615  31.7331486  47.5729599
   6.6633916  32.3253899  48.6048164   7.0846505  30.4256496  47.5499306
   7.5227575  30.0030098  46.7439919   6.7061930  29.6170750  48.6730080
   5.8797283  30.1073189  49.1875114   6.2612915  28.2146053  48.2370644
   7.1666002  27.6797085  47.9500008   5.5115786  27.3984203  49.2829094
   4.5363555  27.8214188  49.5239639   5.5159488  26.3505650  48.9827766
   6.0672240  27.3432045  50.2190247   5.4368439  28.1969776  46.9787788
   5.9384708  28.6157913  46.1063881   5.0825267  27.1792469  46.8151283
   4.4894071  28.7220497  47.1002808   7.8053041  29.6325111  49.7902756
   8.9555426  29.4897175  49.4064827   7.4943609  29.8610725  51.0652657
   6.2657585  30.3458328  51.6444702   5.5551553  29.5509357  51.8709259
   5.7205791  31.0869522  51.0599861   6.6093235  30.9307823  53.0055428
   5.7672901  30.7095776  53.6613998   6.8278799  31.9986477  53.0037193
   7.9240904  30.3108559  53.3963089   7.6518865  29.5013638  54.0736008
   8.6400461  30.9819126  53.8708534   8.5095749  29.7551994  52.1007423
   9.3632555  30.3978424  51.8854675   8.9977093  28.3009949  52.3454590
   8.3133631  27.2992268  52.0317497  10.2539482  28.1588421  52.8349915
  10.7644691  28.9727650  53.1464386  10.9465637  26.8805676  52.9732971
  11.2214327  26.3882828  52.0404510  12.2858925  27.3123989  53.6576195
  12.7792158  27.9324665  52.9091225  12.2074728  27.8206806  54.6186600
  13.2810440  26.1963272  53.9672699  12.8881636  25.3613243  54.5473709
  13.6069651  25.7948494  53.0077438  14.4619474  26.8131142  54.6972771
  14.4048300  26.8680096  55.9250946  15.4050760  27.4701195  54.1408386
  16.1000500  27.9248848  54.7155571  15.6295109  27.3434563  53.1642685
  10.2033911  25.7429810  53.7431488  10.3010483  24.5616875  53.4486427
   9.3968916  26.1069355  54.7607117   9.1851053  27.0701103  54.9787560
   8.7302456  25.0642815  55.5835724   9.4321432  24.2956753  55.9071236
   8.2721491  25.6245670  56.9166527   7.9732447  24.7456493  57.4878426
   9.1178389  26.0508213  57.4562950   7.0726643  26.6490993  56.9799004
   7.2524567  27.7549591  56.4129028   6.0450931  26.3258171  57.4768372
   7.5554647  24.5215664  54.7678223   7.2731237  23.3084755  54.8869629
   6.8262777  25.3225861  53.9892578   7.0191693  26.3129711  54.0343513
   5.5303402  24.8980122  53.2630882   5.1097617  24.1202507  53.9005051
   4.5954018  26.0560818  53.1321564   5.0348597  26.9643364  52.7197838
   3.7426634  25.7720108  52.5155182   3.9371293  26.4345322  54.4706688
   4.7394915  26.5467205  55.1998672   3.4215765  27.3946972  54.4905167
   2.9641132  25.3203907  55.0246582   2.7223163  24.2420864  54.4377289
   2.3648269  25.5640259  56.1760864   2.5893579  26.3872776  56.7164078
   1.6639162  24.8924236  56.4549675   5.9348321  24.2542019  51.9130020
   5.0520744  23.8665409  51.1344376   7.1968594  24.2430992  51.5918961
   7.8901815  24.7022514  52.1651192   7.6915097  23.3647957  50.4173203
   6.9797235  23.2830353  49.5958748   9.0001411  23.9263306  49.8935204
   9.5977144  24.1804886  50.7689705   9.7947102  22.8983402  49.0675163
  10.1530857  22.1059875  49.7246590   9.1949472  22.5580845  48.2233543
  10.6350031  23.4506874  48.6468964   8.7263680  25.2184715  49.0660248
   8.6298170  25.0207386  47.9984665   7.8303261  25.7364273  49.4079742
   9.9002066  26.2328568  49.2353058   9.8529625  26.7215652  50.2084618
  10.8711042  25.7378006  49.2547607   9.8989077  26.9336815  48.4004745
   7.9418840  21.9249630  50.9508400   8.3372602  21.8080273  52.1107674
   7.6015692  20.8210430  50.1535187   7.2097583  21.0290928  49.2461586
   7.4594746  19.5165806  50.7334633   7.9879522  19.4832535  51.6861954
   6.0621209  19.2997379  51.1966171   5.3991575  19.6312733  50.3974533
   5.8758602  18.2363930  51.3472977   5.7133317  20.1012669  52.4703979
   6.4269557  19.8777161  53.2634087   5.7982016  21.1446877  52.1667824
   4.2379694  19.7904606  52.8544617   3.9992130  20.3578911  53.7539711
   3.6751904  20.1561508  51.9955902   3.9997611  18.4483089  53.1969528
   3.3707917  17.9199200  52.6093292   4.5910068  17.7965393  54.2338676
   5.2558165  18.4002819  55.1763458   5.4704547  17.7587128  55.9262924
   5.4091372  19.3979282  55.2123299   4.4314742  16.5492783  54.2868195
   4.8907971  15.9905519  54.9917641   3.8498676  16.1071892  53.5894012
   7.9673753  18.4958897  49.7459793   7.8477216  18.5964146  48.4821434
   8.4107704  17.3730583  50.2974243   8.1986485  17.2074776  51.2709198
   9.3453159  16.4371967  49.6178589   9.5352802  16.6849766  48.5735321
  10.7278919  16.6052399  50.3411980  10.6366615  16.1652241  51.3342552
  11.5085287  15.9861946  49.8990517  11.2021952  18.0633850  50.5040932
  11.5942001  18.9493961  49.4940300  11.8951159  20.0691471  50.1523209
  12.0784607  20.9882450  49.6156235  11.5645962  20.0591717  51.5058022
  11.5526667  20.8498974  52.1340637  11.2166090  18.7456875  51.7000237
  10.9156876  18.2996960  52.6364746   8.9185839  14.9988232  49.7237167
   8.2653933  14.6623116  50.7322769   9.1267614  14.1890621  48.6643829
   9.7492609  14.4765167  47.9227867   8.4891253  12.8308439  48.5356827
   7.6547680  12.8122826  49.2368317   7.8974967  12.7818537  47.0542297
   8.7597857  12.9358892  46.4055138   7.3581352  11.3945503  46.6852493
   6.5610914  11.1373262  47.3828583   7.0585413  11.3514261  45.6381187
   8.1492081  10.6626654  46.8484955   6.8478212  13.8321295  46.7382317
   7.2695389  14.8013868  47.0042801   6.6419663  13.7591009  45.6703377
   5.9740772  13.5452814  47.3233719   9.3496370  11.6263580  48.8761978
  10.4010334  11.4507933  48.3180962   8.8402090  10.6965723  49.6676254
   7.8972998  10.8365469  50.0014343   9.5628271   9.5208673  50.1010437
  10.5148525   9.3929605  49.5858841  10.0033102   9.8352480  51.6109810
   9.1740513  10.0934143  52.2695999  10.4537411   8.9141264  51.9807816
  11.1204872  10.9215269  51.6087570  10.8957748  12.2954702  51.6220398
   9.8783569  12.6075726  51.4380455  11.9953928  13.1753054  51.8424454
  11.7086315  14.2163210  51.8210678  13.3048582  12.7071800  52.0003471
  14.2939091  13.5944471  52.2239304  15.0778379  13.2238588  52.6359024
  13.5548277  11.3532839  51.9761238  14.5512161  10.9634409  52.1231995
  12.4436159  10.4467134  51.7322350  12.6720238   9.3938341  51.6569023
   8.6947842   8.2797451  49.8552818   7.5254679   8.1672773  50.2613869
   9.1493731   7.3062258  48.9987183  10.0204153   7.4956074  48.5238266
   8.3336792   6.1844583  48.3744278   7.3506551   6.1657858  48.8449860
   8.2233295   6.5531859  46.9123764   9.1493626   6.9596729  46.5057640
   7.9537072   5.6249566  46.4085960   7.0071216   7.4823127  46.5943336
   7.0751977   8.4329033  47.1233368   7.0495973   7.7172189  45.0627975
   6.1996231   8.3578167  44.8276939   7.9366183   8.2226038  44.6808548
   6.9578686   6.7716522  44.5283813   5.7192411   6.7728057  46.9179840
   5.9045906   5.7534490  46.5793762   5.4174376   6.8885603  47.9589539
   4.8483949   7.1056275  46.3532219   8.9720154   4.8577805  48.5815239
  10.1976919   4.7827930  48.7369003   8.1906586   3.7763677  48.4548378
   7.2661200   4.0784807  48.1827087   8.5475760   2.3106632  48.5631561
   7.5893364   1.8056138  48.4414978   9.4997406   1.8584465  47.3836784
  10.5168610   2.2258475  47.5200005   9.5021381   0.7695752  47.4332123
   9.0331678   2.2096679  45.9921608   9.0503931   3.2993436  46.0124855
   9.8976917   1.9432321  45.3841209   7.7174110   1.5367122  45.6721382
   6.9829845   2.0999625  44.8045998   7.3377275   0.5227787  46.2689438
   9.1346235   2.1478000  50.0034218   8.5443602   2.5049982  51.0615616
  10.3681812   1.6179841  50.1636772  11.0011034   1.5440542  49.3800659
  11.0729647   1.3596964  51.4503632  10.2893801   1.2753079  52.2033424
  12.0527639   0.1644497  51.3933792  12.8890371   0.4050092  50.7369652
  12.4776030  -0.0842085  52.3658943  11.3223381  -1.1438462  50.9919243
  10.5408621  -1.3824104  51.7133675  10.8457308  -0.9574142  50.0295334
  12.2001152  -2.4626985  50.7564812  12.4750671  -2.9937603  51.6677818
  11.5013781  -3.1402607  50.2657814  13.5576134  -2.3469248  49.9176064
  13.3533840  -1.7500230  49.0287323  14.2245817  -1.6822211  50.4666328
  14.1524277  -3.6441414  49.6375771  13.5331202  -4.1512871  49.0216560
  14.9724960  -3.4631622  49.0764732  14.4010105  -4.1803217  50.4566116
  11.7815189   2.5646517  51.9791794  12.3339167   2.5025899  53.1098022
  11.6995573   3.6899559  51.2478676  11.2533894   3.6845551  50.3417740
  12.2767105   4.9886565  51.7650337  13.2003202   4.7355957  52.2856216
  12.7265930   5.8802705  50.5523567  13.1001148   5.3294487  49.6891212
  11.8957682   6.4241867  50.1029282  13.3842134   6.6874599  50.8749733
  11.3270721   5.8001981  52.6356659  11.7416801   6.8730278  53.2019958
  10.0599403   5.3252273  52.8744431   9.7589750   4.4948258  52.3845901
   9.0791731   6.0809736  53.6250954   8.9211626   7.0722136  53.2001495
   7.7289481   5.3864841  53.4411583   7.6445332   5.1030712  52.3920364
   7.5705681   4.0061150  54.1968193   8.2863808   3.2359426  53.9095154
   7.6959310   4.2312679  55.2559166   6.5462394   3.6845775  54.0084991
   6.5791659   6.3205233  53.7800903   5.6259251   5.8201370  53.6096611
   6.5575829   6.5258775  54.8503571   6.6778002   7.3011489  53.3145447
   9.4086227   6.3276777  55.1138763   8.9422331   7.2820425  55.7352638
  10.3816242   5.5820017  55.6727371  10.7955437   4.8247929  55.1479454
  10.8449593   5.8374043  57.0998001  10.0012598   6.1552348  57.7123833
  11.6616669   4.6243372  57.6238594  11.9325743   4.9125319  58.6395645
  10.8324699   3.2955315  57.6786537  10.4740944   3.1095347  56.6661987
  11.4390888   2.4563282  58.0190239  10.0542240   3.3697245  58.4382095
  12.9241123   4.2463403  56.7563820  12.5737982   3.8880498  55.7883911
  13.6147518   5.0877399  56.7000999  13.3067522   3.3785818  57.2936745
  11.7036209   7.1347237  57.0964165  11.7118397   7.8526917  58.1307526
  12.4529686   7.5403504  55.9971390  12.2581997   7.1682487  55.0786018
  13.2682781   8.7751751  56.0482750  13.7838860   8.8772650  57.0031700
  14.1962023   8.8314800  54.8489151  13.5906248   8.8566694  53.9429703
  14.8261623   9.7207670  54.8283539  15.0865860   7.5996041  54.6511917
  14.4844599   6.6927052  54.7067032  15.7553263   7.5315857  53.3266678
  16.3591385   8.4380131  53.2830505  16.4195461   6.6802297  53.1779900
  15.0647316   7.6240363  52.4884338  16.1807022   7.3640962  55.6664200
  15.7476139   7.3004928  56.6646652  16.7760639   6.4768314  55.4510002
  16.7393208   8.2987270  55.6163101  12.4862728  10.0879183  56.0572853
  13.0946512  11.1335554  56.3193207  11.1725216  10.0472956  55.8242149
  10.7786913   9.1350288  55.6431961  10.2854824  11.2425327  55.6004448
  10.6424341  11.5947905  54.6326599   8.8686552  10.8675137  55.3415108
   8.2534304  11.5432787  54.7474174   8.9233332   9.9559259  54.7464294
   8.0629044  10.4023438  56.5098877   8.6749706   9.5771179  56.8738594
   7.8922029  11.2044802  57.2278976   6.7220483   9.8083992  56.0643845
   6.1196737  10.5535755  55.5448074   6.8207622   8.9499331  55.4000130
   5.9581585   9.4070177  57.2923470   5.2548094  10.0656052  57.5951080
   5.9094238   8.2599258  57.8810577   6.6566391   7.2745204  57.5263596
   7.3591809   7.3287325  56.8027611   6.4718409   6.3414865  57.8660622
   4.9059844   7.9949059  58.6737976   4.7386661   7.0546327  59.0024223
   4.2113638   8.7224970  58.7644234  10.4565239  12.3483658  56.6909447
  10.4732895  12.0010967  57.9130745  10.4599705  13.6285639  56.2966118
  10.4344597  14.1005983  54.9464989   9.4831553  13.8090544  54.5013847
  11.3336792  13.7699451  54.4267159  10.5531530  15.6688290  54.9514580
   9.6079216  16.1942692  55.0876656  11.0623302  16.0265141  54.0565300
  11.3152637  15.9458857  56.2201385  11.0575466  16.9234161  56.6277122
  12.3794413  15.8758068  55.9949379  10.8463154  14.7199593  57.1360588
  11.7714205  14.3609066  57.5870209   9.8019295  15.0722189  58.2614098
  10.1857548  15.6794739  59.1993523   8.5301208  14.6836491  58.1358643
   8.2611208  14.0191250  57.4244232   7.5106072  14.9399672  59.2252083
   7.6280408  15.9567204  59.6000710   6.1279550  14.7899513  58.6739540
   5.9220424  13.7358131  58.4882317   5.3998947  15.0341568  59.4475136
   5.7033296  15.5514908  57.4309425   5.0800085  14.8638296  56.6138878
   6.0920925  16.6983166  57.1385345   7.7244058  13.9573832  60.4103317
   7.6498504  14.4522238  61.5131683   8.1720829  12.7383585  60.1797409
   8.5283594  12.7068224  59.2351913   8.7624044  11.8071795  61.1039581
   8.1216545  11.9889803  61.9667969   8.5434389  10.3759604  60.5315132
   7.5107121  10.2178946  60.2207222   9.1091309  10.2598267  59.6070633
   8.9842949   9.2558184  61.4367294  10.0075569   9.5278797  61.6956100
   8.0917406   9.1179771  62.6745834   7.0514083   9.0305614  62.3612709
   8.3696232   8.1900864  63.1744843   8.1816483  10.0049915  63.3016586
   9.0715647   7.9557872  60.5982971   9.4062300   7.1355009  61.2333031
   8.0618420   7.6900134  60.2853661   9.6426020   8.0477705  59.6744156
  10.1633816  12.2899151  61.5331230  10.5984821  11.8660269  62.5390549
  10.8001566  13.2795982  60.9090004  10.3028917  13.7504282  60.1666069
  12.0374403  13.9069099  61.4110870  12.5658026  13.0999393  61.9187584
  13.0251913  14.3690996  60.3209038  12.4653435  15.1561537  59.8157120
  13.9452543  14.7301702  60.7804832  13.2593899  13.2812996  59.4217758
  13.8528748  12.7356520  59.9429703  11.7283411  15.0867071  62.3842964
  12.2508154  14.9969635  63.4869881  10.8864651  16.0965443  61.9985237
  10.6327543  16.1748524  61.0240517  10.4279728  17.1803055  62.8664284
  11.3366613  17.7099686  63.1525116   9.5626869  18.1673679  62.0701065
   9.8130455  18.2518024  61.0126152   8.5431013  17.7954140  61.9691277
   9.4646950  19.5458679  62.8135872   9.4344759  19.4336529  63.8973732
  10.5122252  20.4834595  62.2960014  10.4552441  21.5108719  62.6555519
  11.4433889  19.9924583  62.5787544  10.4844828  20.5496387  61.2083626
   8.1442671  20.1664429  62.3575134   8.1472321  21.2140713  62.6584625
   8.0044479  20.0968456  61.2787590   7.3644934  19.7212543  62.9754601
   9.7005167  16.6798267  64.1541519   9.7380981  17.3704433  65.1556473
   9.0737057  15.4830923  64.0103073   8.9246855  15.0986433  63.0883026
   8.4989853  14.7137060  65.1298752   7.5449867  15.1382809  65.4424973
   8.0184698  13.3430481  64.5394669   8.7387133  12.9640436  63.8144150
   7.8890562  12.1909542  65.5769653   7.1933069  11.3878441  65.3339691
   8.8869019  11.7833948  65.7391357   7.6315179  12.6842699  66.5141983
   6.8218722  13.5636826  63.8197136   7.0330286  14.0984459  63.0509224
   9.4930649  14.6385870  66.2422562   9.1833801  14.9683285  67.3929672
  10.7878933  14.3623638  65.9667130  10.9030571  14.1863050  64.9788666
  11.8507566  14.2889309  66.8907928  11.5789194  13.5872068  67.6793289
  13.1259232  13.7306633  66.2534790  13.4888573  14.4885979  65.5592728
  13.8752556  13.8300314  67.0387955  12.9363251  12.4689064  65.5745544
  12.4353962  11.7274923  66.1970291  12.3709898  12.7966423  64.7021561
  14.3165789  11.9395046  65.0862961  14.9662809  11.9903574  65.9600220
  14.2982931  10.8742237  64.8562088  15.0628824  12.7745371  64.0466232
  14.5791979  12.7110415  63.0718803  15.0074091  13.8213167  64.3454132
  16.5413952  12.3995409  63.9796600  16.8673668  12.2473841  64.9234238
  16.6030827  11.5251818  63.4778748  17.0869255  13.1304617  63.5457802
  12.1053762  15.4546528  67.8164597  12.5951433  15.2280302  68.9358902
  11.6879606  16.6577415  67.3435135  11.2717314  16.6462650  66.4233398
  11.6030979  17.7523270  68.2425461  12.3604603  17.6006908  69.0116425
  12.1205740  18.9627533  67.4009933  11.3470087  19.1812840  66.6648331
  12.2628403  19.7787533  68.1095200  13.4256287  18.8008022  66.5884933
  13.3917303  18.4580631  65.4014816  14.6124296  18.9914169  67.1837234
  14.6805458  19.2799110  68.1492462  15.3988829  19.1186466  66.5629196
  10.2013588  18.1114407  68.8137970  10.2484722  18.6759586  69.9227142
   9.1106606  17.8379478  68.0393066   9.2485151  17.3768482  67.1513443
   7.8497815  18.4583988  68.3896484   8.1151991  19.4283314  68.8102264
   6.9368911  18.7593937  67.2121201   5.9354515  18.9722481  67.5861664
   7.4698033  19.8932724  66.3613129   8.3536787  19.5680637  65.8125839
   6.7042880  20.1786289  65.6397476   7.6712437  20.8227139  66.8939133
   6.9165831  17.7034302  66.3302917   6.2540660  17.0547981  66.5791931
   7.1221085  17.5969009  69.5014954   6.2809830  18.1507149  70.2014847
   7.3766317  16.2871704  69.4461136   8.0526438  16.0109596  68.7483978
   6.5942931  15.2197752  70.0697327   5.6482377  15.6422930  70.4081955
   6.2972765  14.1239529  69.0650940   5.5859327  14.5794640  68.3761826
   7.1955190  13.8117304  68.5323792   5.6947913  12.8376617  69.6687546
   6.4652390  12.2843838  70.2057800   4.8306260  13.0208454  70.3073120
   5.2907968  11.8723345  68.5564575   4.1163478  11.8515720  68.1094589
   6.1953855  11.1624508  68.0567856   7.3127542  14.6537781  71.2544098
   6.6990266  14.1772881  72.2760620   8.6275406  14.6074924  71.1484528
   9.0124416  14.8783569  70.2548218   9.6152077  14.0996952  72.1752930
   9.1784821  13.3335781  72.8159485  10.8064413  13.4509373  71.4762115
  11.2845211  14.2953405  70.9796982  11.5540485  13.1605091  72.2143402
  10.5422478  12.3257179  70.4846954   9.8545961  12.6822214  69.7177887
  11.7407703  11.8092337  69.7844467  11.5613155  11.2507315  68.8657684
  12.4820843  12.5599880  69.5107269  12.2666054  11.0718479  70.3909607
   9.8897409  11.1333637  71.2283478  10.5010223  10.8464384  72.0839844
   8.8729391  11.3983355  71.5182037   9.7717228  10.2802362  70.5602570
   9.9791574  15.2084179  73.1819534  10.6109295  16.2138329  72.7549667
   9.5506096  15.2331142  74.3497772  24.9947128  11.3604832  29.8912678
  24.7449207  10.3254032  29.6682434  25.8018208  11.4960823  30.6080093
  24.3791561  12.4108829  29.2452679  24.7294025  13.8437548  29.5292511
  24.2220917  14.7589769  28.8869896  25.5177937  14.0747433  30.4233093
  23.3971252  12.2200041  28.2739105  22.2991734  11.4356327  28.6665230
  22.5988808  10.5504608  29.2408352  21.8517780  10.7270575  27.3879967
  22.6138153  10.6502638  26.6153851  20.5656738  10.4509592  27.1924686
  19.6011486  10.7655659  28.2324429  18.6171303  10.4075279  27.9359455
  19.8250580  11.5622950  29.2969837  19.1159916  11.8780622  30.0592480
  21.2031326  12.1617193  29.4917107  21.1043167  13.1673088  29.0648460
  21.4449806  12.2557907  30.9163380  21.7502403  11.4109182  31.2901497
  20.2090282   9.6425657  25.9647236  21.0080051   9.0972214  25.2177143
  19.0650673   9.2406425  25.7830181  40.6694641  20.7697010  47.4953079
  41.4799347  20.3695526  46.8898773  40.7800293  21.7772179  47.8905602
  39.5551605  20.0848579  47.8792381  38.4462242  20.8175621  48.5810280
  38.2507668  22.0222836  48.4592285  37.5358238  20.1299534  49.0737419
  39.3672714  18.7560272  47.5239792  39.0056152  18.5046711  46.1197433
  38.9227829  17.4114590  46.1546402  40.1127243  18.9716396  45.1458588
  41.0537987  18.4300289  45.0783195  40.0170784  20.0954437  44.4048653
  38.8009300  20.9537258  44.4647865  38.8741074  21.9599037  44.0565567
  37.6717911  20.4941597  45.0733490  36.7573509  21.0734692  45.1816330
  37.5987701  19.0842304  45.7239113  36.9937553  19.1683846  46.6349907
  36.8374100  18.2208900  44.9002304  36.3910484  17.5212440  45.4081573
  41.2108536  20.6068478  43.6300468  42.2536125  20.0124702  43.5613327
  41.1766510  21.7618523  43.1894836  17.1284027  10.9085960  55.7681923
  16.1516438  11.3876228  55.7694283  17.3740444  10.3026028  56.6376495
  17.8668308  10.8819618  54.6253357  17.5028305  11.6922112  53.4552155
  16.6568279  12.5700235  53.5526352  18.2429466  11.6635065  52.4416008
  19.0777855  10.2629623  54.5343590  20.1463947  10.2598152  55.5697670
  21.0786114   9.9425173  55.0865669  19.7934151   9.2799196  56.6763611
  19.2649994   8.4308958  56.2480392  20.2191067   9.3650208  57.9411125
  20.9677544  10.5367956  58.2677269  21.3047791  10.5418224  59.3025169
  21.1809349  11.5635262  57.3851929  21.8008347  12.3989506  57.7034950
  20.5340595  11.6316195  56.1066933  19.6946049  12.3309660  56.2037392
  21.4827652  12.2593565  55.2377701  21.0729237  12.3350334  54.3585472
  19.9821129   8.2794256  58.9559212  20.1477394   8.5550900  60.1681404
  19.6378422   7.1997776  58.5609169  74.8639221  62.5917435   9.0054636
  43.5416641  34.2043152  63.1737900  54.0528603  49.0028992  84.3724899
  17.0991936  43.7843819  37.4457169  35.1148109  43.4519691  50.9694176
  12.3087502  47.1583786  47.6189346  31.9031086  12.4223814  79.7495499
  28.3179607  62.7313538  73.2848969  82.3120422  21.1166229  83.4601746
  56.7669067  57.9721718  68.4618454  56.0264282  58.1237679  69.0491638
  57.4836464  58.4782066  68.8445206  50.7040329  38.2730179  71.0960617
  50.7024345  39.0851135  71.6027527  51.6273155  38.0263519  71.0418625
  50.7798080  16.5549870   7.9841628  51.2233467  15.7409563   7.7457156
  49.8496284  16.3660145   7.8605165  55.2662849   2.5475335  39.6060219
  54.7609291   2.9155359  38.8811607  56.1482277   2.8997602  39.4862556
   4.6789780  55.5972557  56.3795357   5.2330928  56.1515121  55.8300018
   3.7849429  55.8212395  56.1211510  36.2984276  36.7880554  64.8858871
  36.3626671  36.0060081  65.4340668  36.4551582  36.4706841  63.9965363
   1.3339046  19.5816536  48.5974388   1.9719930  18.9905357  48.9970055
   1.7568017  19.8822823  47.7930679  48.1615829  34.5096016  42.2842331
  47.4660759  35.1541710  42.4147224  48.3783035  34.5760345  41.3542595
   9.5553446  29.4317017  28.4360294   9.0925093  30.2623425  28.5458069
   9.2226925  29.0794449  27.6105061  52.8372536  69.9917755  11.0827990
  52.8630180  69.0355225  11.0489187  53.1169090  70.2075424  11.9724464
  72.2677078  24.2306366  69.8140488  71.4711227  24.0178261  70.3002625
  72.1655731  25.1528511  69.5788422  84.1972427  45.1641998  72.0503159
  84.1065598  44.9230919  72.9722061  83.5076904  44.6717949  71.6050186
  49.3398323  36.3635712  12.5962687  48.8772278  36.1754684  11.7796621
  48.6882896  36.2122421  13.2809725  62.6994591  15.8235846  32.0378380
  62.2178612  15.1182299  32.4700089  62.4554024  16.6121540  32.5224266
  39.0679054   2.3805330  51.6746635  38.2526855   2.0263424  51.3194199
  39.5572052   2.6728947  50.9056740  78.1673737  43.7979736  56.5377617
  77.5603409  43.4043312  57.1644821  77.6077499  44.1140594  55.8284378
  25.3935204  13.6205225   6.8953552  25.5449944  13.4472437   5.9662361
  25.3244724  12.7524509   7.2927423  69.8383942  44.9632187   2.0462711
  70.3315277  44.1784935   2.2855651  70.2605286  45.6697006   2.5350723
   2.3490326  31.2631950  65.4531860   2.6186707  30.8715115  66.2839203
   1.5666018  31.7700977  65.6701736  78.3130875  42.5603104  28.8741112
  78.9396744  42.2387581  29.5223618  78.8528290  42.8194580  28.1272869
  75.7476349  34.7544746  77.7623367  75.7121811  34.7751465  78.7186584
  75.8486404  35.6713142  77.5065308  16.5286446  33.6630783   1.5485386
  16.3799553  33.9347076   0.6428114  17.1964836  34.2670975   1.8731713
  75.8833008  57.7171974  50.4162064  76.7310104  57.3143959  50.2281189
  75.9223938  57.9336319  51.3477974  32.2813683  69.7133942  45.1918945
  31.4700871  69.9412384  44.7378616  31.9954109  69.3956146  46.0483246
  79.3845139  34.5362740  77.0738525  79.0906754  34.3451080  77.9645538
  78.7263947  34.1275902  76.5116425  48.1378479  11.6544266  77.0951157
  48.6339378  11.9611111  76.3361206  48.1834297  10.6998310  77.0412445
  43.7529068  21.2220058  76.2291031  44.6220970  20.8750362  76.4299698
  43.2180595  20.9807491  76.9853897  46.6359901  39.0592232  82.4984970
  46.1273346  39.3180389  83.2669525  46.1204376  39.3699303  81.7542572
  20.3811054  45.0831223  22.7365456  21.1343880  45.3628235  22.2163887
  20.3896923  45.6603088  23.5000992  31.5300426  65.0434952  12.2652159
  32.1951027  65.2254181  12.9291687  31.9065685  65.3778305  11.4511623
  75.0020218  30.2384109  78.1601562  75.7243729  30.8578339  78.2638855
  74.3196716  30.7389374  77.7128220  32.6421165  39.7489967  59.8545189
  33.1559258  39.2085915  60.4546776  32.9773483  39.5272026  58.9858093
  58.8176117  19.6209888  43.0044250  58.2719650  20.3482246  43.3038101
  58.1980553  18.9122200  42.8311424  63.6676140  44.5319939  25.4701462
  64.4356232  45.0685883  25.2740269  64.0253448  43.7377586  25.8669453
  57.7115326  12.4142570  53.5075569  57.6632843  12.8811989  54.3417435
  58.4763603  11.8454323  53.5953636  69.3848724  36.3037720   9.9305620
  70.1620407  36.6852303  10.3388815  69.0301437  35.7136765  10.5955343
  23.6427803  28.2642403  65.0767746  24.2220097  27.8330116  65.7050781
  22.8251972  27.7688560  65.1256104  79.1391220  32.9763412  26.1582184
  78.6702805  33.6528168  26.6468868  78.4570312  32.3641777  25.8820858
  10.5057917  42.2552071  87.8935089  10.9729891  41.5770912  88.3814774
   9.8235703  41.7811317  87.4180527  70.5039902  42.7908249  54.2824898
  70.4886093  43.7262421  54.4849510  69.9402542  42.7028122  53.5139236
  42.2704391   3.4243753  16.7390881  41.5008163   3.8010411  16.3124352
  42.9619980   4.0714364  16.6002045  25.6686401  16.3888969   7.4114437
  25.3925724  16.8584251   6.6243215  25.6672916  15.4671497   7.1533484
  78.3499146  45.8730240  49.6830139  78.0607910  46.7851257  49.6563225
  77.7040329  45.4331055  50.2357635  84.2421188  64.2449570  62.2212143
  84.9097366  64.6402435  62.7818069  84.3259201  63.3040657  62.3758965
  79.2914200  53.9376526   6.7108250  79.6726151  53.4933472   7.4681306
  78.7649612  54.6430626   7.0869508  10.5443287  30.1599731  20.7738895
  10.6989393  30.5502396  21.6341343   9.6759882  29.7632599  20.8434258
  41.2754669  49.6666183  81.8475494  41.2788620  50.0056190  82.7427063
  40.6601562  48.9337730  81.8713074  36.4821243  43.0085030  44.2664604
  35.5862541  42.7072220  44.1152000  36.9699402  42.2126160  44.4781876
  36.9842072  36.8394356   8.8368673  36.9899368  36.9132500   9.7911997
  37.8999100  36.6879005   8.6028595  60.7962761  30.7572327  82.8817978
  60.3244667  31.4955158  83.2672424  60.2925682  29.9871616  83.1454315
  23.8498802  50.5737953  37.0171623  24.0622425  49.7428169  36.5921860
  23.3402767  50.3250771  37.7883148  60.9132919  54.4221802  40.6439819
  61.5524521  54.9115524  41.1618843  60.0678024  54.6469154  41.0323982
  63.1067886  48.9169235  86.2118759  63.5375977  49.6613045  86.6320343
  62.4326286  49.3114014  85.6585922  73.2026367  38.7291183  65.5475845
  73.3963165  37.8280144  65.8059082  73.5960007  39.2654305  66.2359619
  60.9731293  34.0686493  88.3088455  60.2233162  34.3433456  88.8366241
  61.6766739  34.6657906  88.5631790  38.8918724  53.7592659  49.7319412
  38.2623253  53.6737785  50.4478989  39.1753311  54.6727409  49.7700462
  49.8492165  16.8953571  15.6987219  50.1014786  17.7428799  15.3322496
  49.8531914  17.0332451  16.6459293   4.6181850  66.5306778  71.2175217
   4.6112833  67.3690414  71.6793976   4.3355980  66.7447281  70.3283920
   4.3539176   2.0573597  45.2801399   5.3056464   2.0373278  45.1799278
   4.1027193   1.1377134  45.3660622  17.5177040  64.7564468  62.7964973
  17.2485237  65.3167572  62.0686035  17.1951523  63.8865166  62.5611000
  59.7516441  17.3303146  60.6737785  58.8790855  17.1450157  60.3266029
  59.6275864  18.0928230  61.2389565  56.1768227   9.9017591  45.8211327
  57.0114365  10.3490467  45.9610825  56.3418694   9.3112106  45.0861206
  52.4005089  55.9398575  54.0595398  52.1057663  55.1281242  53.6466827
  51.7750244  56.6006203  53.7622375  20.5989208  24.4927845  79.6689529
  21.3336296  23.9213505  79.8923264  19.9722157  24.3667088  80.3814011
  36.4776115  58.9873314  45.4510155  36.3722687  59.6691132  46.1145744
  37.3768768  59.0923882  45.1403351  63.5404778  20.8027592  42.1495438
  64.2745972  21.4165440  42.1734200  63.9390450  19.9464817  42.3049927
  24.2491570  40.7275276   7.2901669  23.5248127  40.3174820   7.7628374
  24.6833344  40.0021553   6.8412189  28.7872677  62.0764771  26.2315502
  28.2272530  62.6717033  26.7298679  28.7667103  61.2575035  26.7266159
  50.8035431  51.1963272   6.5242286  51.7118492  51.0143204   6.7652364
  50.6590080  50.6825142   5.7296610  35.9068413  48.3189507  89.0692520
  35.4047966  49.0711136  89.3829956  36.7008858  48.7003593  88.6947479
  13.4309521  38.9039192  58.6786461  13.9117279  39.7246208  58.7860527
  13.3524475  38.7945862  57.7309570  31.4934063  50.1813583  66.2426987
  32.2825928  49.6857796  66.0240250  31.1173763  50.4191322  65.3951797
   3.4635844  70.8077164  75.0940704   3.6078017  70.0218277  75.6211548
   3.2738972  71.4938202  75.7340012  47.9989052  71.1636353  66.9351501
  47.4472313  70.9603958  66.1797791  47.3797569  71.3346024  67.6448441
   0.4936854  40.8682289  80.9193726  -0.3911366  40.8380051  80.5554962
   0.5367256  41.7089653  81.3749390  39.2552261  10.5919046  78.6466751
  40.1637688  10.8503380  78.4917755  38.7424583  11.1671228  78.0788498
   4.6378913  35.6275635  27.0984402   3.9128439  35.4284935  26.5060635
   4.7215061  34.8466072  27.6455631  38.8668480  69.4745407  31.3213234
  38.6044540  70.1754074  31.9181194  39.5864525  69.8493118  30.8134346
  20.2975349  38.5731125  10.6211157  19.3949947  38.8480186  10.4596195
  20.2752953  37.6194725  10.5416822   4.1845961  20.0850849  31.1390209
   3.8405437  20.2116241  32.0232430   5.0273137  19.6504097  31.2698498
  41.6510620  40.5833435  24.5311203  42.0447884  40.8304062  23.6943588
  40.8455276  40.1254883  24.2908840  36.1851082  32.8017349  77.6292343
  35.3490906  32.5637245  78.0300598  36.6077003  31.9637318  77.4410782
  23.6918049  56.4393349   6.0362887  24.6412983  56.4280510   5.9155889
  23.5649548  56.8287888   6.9014287  29.3058796  52.8277016  42.1774216
  29.0537968  53.7121582  41.9120445  30.0062466  52.5862350  41.5712776
  30.1732712  28.9807968  69.8446350  29.4456234  29.5434189  70.1096191
  29.9881992  28.1384144  70.2598114  23.4112453  63.5068474  64.3598633
  23.1246071  63.0652237  63.5604630  22.7778816  64.2138672  64.4831696
  20.5827866  55.8030701   8.6861944  20.6403809  55.4286003   9.5652218
  19.9565334  56.5217972   8.7725964  78.1417694   2.7859449  68.3529663
  77.4864883   3.4835885  68.3647766  78.8215866   3.1059029  67.7599258
  19.8032303  23.0111580   0.8300747  19.9611263  22.8118420  -0.0927328
  18.8877640  23.2889023   0.8618831  12.8342409  66.4995193  79.6189499
  13.5280132  67.1477203  79.7404175  12.0870228  67.0054245  79.2996368
  75.6181870  34.9677200  80.3755112  75.7370834  35.9169540  80.3431473
  75.5597382  34.7653580  81.3092499  46.6000938  21.7310333  14.4551744
  46.8661385  22.4233131  13.8500309  47.1135406  21.8941555  15.2463722
  62.4354095  52.3320312  83.8839645  61.9640274  51.5864601  84.2556534
  62.1667519  53.0772514  84.4212799  39.9961624  71.3544388   8.8337793
  40.0091743  72.1020432   8.2361498  39.9091797  70.5919647   8.2616863
  28.6119041  41.1006012  73.0570145  29.2124901  41.7749863  72.7396393
  28.3615246  40.6140213  72.2716599  77.5074921   0.7714738  35.1103172
  76.8649521   1.2768207  34.6123238  77.9862518   1.4267416  35.6179047
  52.6895523   2.0026650  74.4522324  52.3305435   2.5883875  73.7856903
  53.5901833   1.8425235  74.1703720  67.8943481  10.9744835  18.4402256
  68.2419739  11.7550764  18.0088806  67.5878754  11.2875500  19.2912807
  10.6171417  42.4417038  19.7176933  10.5238056  43.0134277  18.9556866
   9.7196941  42.2017975  19.9484844  59.8342972   6.3865371  75.1544266
  58.9773827   6.0680904  74.8706665  60.4201279   5.6395969  75.0314865
  60.3116150  33.6548691  77.1125565  60.2762222  34.4010010  77.7111053
  59.7569237  32.9917221  77.5233841  74.2615509  48.1299667  60.2955894
  74.2950745  47.9781685  61.2400818  75.1793442  48.1707802  60.0268402
  26.0963554  -0.2528489   6.4164968  25.4916649   0.4804281   6.3029752
  26.7930107   0.0951574   6.9730887  73.4022980  13.2043610  52.1231270
  72.8655090  13.1082506  52.9097939  73.9665070  12.4311190  52.1222153
  85.8008347  44.9017944  15.4724159  85.5520401  45.7238770  15.8949308
  86.3761063  44.4718018  16.1051846  11.9733839  10.4651814  59.5855026
  11.8391581  11.1704435  58.9523964  11.9560213   9.6652145  59.0601616
  67.7831955  70.1318283  33.0217323  66.8849564  69.9837875  32.7259674
  67.8678741  71.0843887  33.0629158  62.7224121  57.2801399  10.5772381
  63.3642921  57.7876091  11.0739212  62.2545776  57.9315414  10.0547085
  18.4689541  26.1314735  19.2295303  19.0111427  26.3234863  19.9946404
  18.1401520  25.2460785  19.3850899  67.8977585   5.5432172  87.3020706
  67.8989563   5.8007145  86.3801498  67.8299332   6.3690243  87.7813110
  69.6458740  40.4648781  18.3472309  69.5449219  40.5398216  19.2961388
  70.4832077  40.0161095  18.2301521  74.3492432  12.8023291  67.4574890
  74.4778214  13.6496239  67.0311203  74.5045013  12.1598091  66.7651749
   0.2918362  67.2078629  43.1794014   0.9628258  67.3893433  43.8374825
   0.5586280  67.7218475  42.4172516  -0.1720081  11.8088322  69.5236588
   0.5860651  11.2258081  69.4831696  -0.1453338  12.1753654  70.4075012
  32.0204315  70.7300262  54.5769119  32.4700012  70.4954147  53.7650757
  31.5240326  71.5182495  54.3566322  53.1478653  59.4019470  27.0447140
  54.0517693  59.6865807  26.9099045  52.6833611  60.1963539  27.3081322
   3.3968263  38.1563873  58.6347237   3.2726498  37.2094383  58.6987953
   2.8373821  38.4224815  57.9050331   9.0272093  63.7439499  85.6413040
   8.5516367  63.9114380  84.8276672   8.4052620  63.9695663  86.3330536
  65.9300385  23.2048302  67.2959900  65.4183502  23.9436340  67.6254959
  66.2648239  23.5034962  66.4504471  66.3244324  45.3629608  31.2318192
  65.7884064  45.5618439  31.9995098  67.1567764  45.0583420  31.5932693
  37.3621788  52.0364723  60.1770668  37.4939842  51.7894173  59.2617378
  37.1977234  51.2080193  60.6274605  66.8353958  66.0276642  20.9466038
  66.9983749  65.3046265  20.3408890  67.6972656  66.2378922  21.3060608
  76.5587158  13.2658978  29.6375389  76.8689346  14.0486679  30.0928040
  77.3576965  12.8184385  29.3588867  34.6644211   8.5797033  84.5715256
  35.5613632   8.3138514  84.3689117  34.1712189   7.7597027  84.5956268
  15.9478798  68.0287323  24.9849167  16.4324455  67.3171616  24.5664749
  16.5188770  68.7918472  24.8963318  44.5608177  28.6870518  83.0050507
  43.7181473  28.8178082  83.4398346  45.1981125  28.6669254  83.7189713
  52.9316406  60.0504341  45.2599983  52.0475540  60.1569061  45.6111107
  53.0356407  59.1046295  45.1557121  50.2627373  32.0164948  30.0027103
  50.9746323  31.4557743  29.6944389  50.6821022  32.6213264  30.6147079
   9.0938721  70.1794815  67.7958832   9.2269258  69.4868622  67.1487274
   8.2796106  69.9403687  68.2386398  37.3716393  61.4858284  61.2737427
  37.5775909  60.6863823  61.7582054  36.5332909  61.7749596  61.6340256
  12.1264877   6.5241218  11.6961403  11.2143250   6.8061299  11.7644186
  12.2623711   5.9654059  12.4613876  40.0300026  59.8235092   3.4880202
  40.5228844  59.0213242   3.3153961  39.4771423  59.6079865   4.2391019
  72.8725510  49.5042801  81.3475876  72.5945053  50.3560944  81.6842499
  72.8200455  48.9192810  82.1034012  44.1718140  31.0151958  42.4279633
  44.3385315  30.3266544  41.7842674  44.7394943  31.7373295  42.1587181
   6.2834773  39.4111748  86.3546448   5.6388607  39.9682770  85.9183655
   6.9742866  39.2889938  85.7034302  76.3638992   1.3859582  42.8260880
  76.5467987   1.8777978  42.0255432  76.2484131   0.4826888  42.5311317
  19.6919327  65.7604599  66.6683884  20.5204811  65.4164047  66.3346786
  19.4607239  65.1725311  67.3874969   6.1422501  19.4653873  72.7298965
   5.6494908  19.0129375  72.0452728   6.8419085  18.8556118  72.9641647
  43.6465988  30.9647675  75.9442291  44.3915367  31.3706303  75.5008545
  44.0322418  30.5101738  76.6931305  23.6283302  41.4927330  38.6372833
  24.2496624  41.6941605  37.9375687  24.1625900  41.0953484  39.3249512
  49.4638519   0.2090922  59.7497864  48.5736885   0.5130404  59.5724182
  49.3746681  -0.3604623  60.5139122  70.4828720  63.6366539  33.7594109
  70.1070099  62.7573357  33.7174110  70.8080292  63.7155571  34.6562271
  49.1459160   2.2208343  54.6151314  49.5301781   2.7651341  55.3023796
  48.2011986   2.2986491  54.7481308  85.6972961  34.8832817  59.5049973
  85.9259186  34.0055695  59.8109093  85.4742279  35.3641663  60.3020058
  70.3962250  30.2093391  64.6046066  70.5204926  29.8014050  63.7476463
  69.9419327  31.0303516  64.4154358  80.9433365  27.8469715  46.7892761
  80.8137741  26.9575558  47.1184959  81.5465546  28.2483864  47.4147530
  10.4078169  29.0422192  15.5584326   9.6789751  28.4246349  15.4983301
  10.6150455  29.2573795  14.6490402  19.9547138  50.8695145  54.4912109
  19.4876022  51.6158218  54.1156311  20.5382729  51.2561188  55.1440735
  44.5121231  63.3708801  61.9835472  43.6634102  63.7905464  62.1242752
  44.9612617  63.4507256  62.8250542  45.6072960  69.1532440  37.0136261
  45.0481720  69.0786438  36.2402916  46.4992714  69.1377640  36.6666756
  34.2528076  48.7964897  72.5950470  34.7580147  48.2556725  71.9879913
  34.5700188  49.6867981  72.4435425  77.4440231  35.1684418  57.2895012
  77.8291855  35.0836830  56.4173203  76.7804871  35.8515472  57.1929512
   7.0309639  28.6960258  29.9877472   6.7181568  29.4074593  29.4289570
   7.2885408  29.1270885  30.8026524  79.5054321  32.6980400  44.4934769
  79.8707047  31.9635220  44.9867287  78.9920502  32.2875824  43.7976341
  15.0426941  45.2375641  31.5220642  14.2548838  45.5097961  31.9926777
  14.9570560  45.6409149  30.6582317  82.5309677  63.4825287  79.6195221
  82.0921936  62.9452591  78.9599457  81.8622284  64.1051102  79.9048462
  11.3345776  59.1468391  20.6637402  12.2064943  59.4535408  20.9125881
  11.4945898  58.3353653  20.1819305  51.2208557   0.0420247  62.3525620
  51.7255669   0.0002355  61.5403099  51.8409271   0.3713514  63.0031662
  62.4426003  66.5892105  70.1845474  62.6441193  65.9458542  70.8640366
  63.1264648  66.4647369  69.5264740   3.3714576  42.8437347  24.2004547
   2.8314750  43.4438744  24.7147312   3.8835542  42.3643684  24.8517609
  51.3986053  41.0985336  78.8525620  50.8707962  40.4285049  79.2869720
  51.2440262  41.8933945  79.3629913  41.6882172  17.6482544  20.4398384
  42.4791870  17.1697922  20.6881828  41.9711189  18.2280560  19.7327099
  49.1768532  45.3602905   1.3209174  49.3247986  45.2969933   2.2644939
  49.1250954  44.4514236   1.0250926  10.0804300  64.1532440  15.8963614
  10.3326559  63.7816582  16.7416649  10.8972940  64.1932907  15.3990068
  68.7311172  45.8656235  88.6558762  69.4843369  45.6800041  88.0951309
  68.9476547  45.4532166  89.4920959  16.7140884  39.3125992  49.5509186
  17.2873840  38.7380333  50.0583038  16.0575199  38.7255135  49.1761131
  71.5900955  22.6767998  31.8075752  71.3728867  23.0820408  32.6471176
  71.3760376  23.3450661  31.1565495  45.3342514  31.1491871  36.3206444
  46.0909920  30.5705433  36.4141426  44.6128578  30.6673260  36.7251701
  51.7862244  31.5406399  55.1683502  51.5571632  32.2730255  55.7405128
  51.2305870  30.8206387  55.4668388  70.3552704  24.6235561  61.7390556
  71.2879944  24.6812992  61.9462471  70.1875839  25.3797398  61.1766510
   7.2968421  29.4682083  21.3351765   7.5616131  30.0947952  20.6617393
   6.3417206  29.5278625  21.3555946  69.6108322  65.5796585  55.6376915
  70.2197037  65.9892807  55.0231018  69.5816650  64.6612091  55.3696785
  27.7006645  47.6653709  40.3597069  27.3653088  47.4406128  41.2276077
  28.3960228  47.0274887  40.1990471  78.7212296  30.5036736  46.8658104
  78.3094177  30.0307789  47.5890083  79.6547318  30.4992065  47.0774422
  61.4541054  24.5081940  87.2095108  60.6715698  24.6513977  87.7418365
  61.5816994  23.5596123  87.2215881   9.0929317   8.7508688  21.0219746
   9.2009306   9.1761303  20.1712570   8.2323294   8.3345709  20.9741096
  70.0038986  25.8537140  56.0179482  69.2400284  26.1839676  56.4908829
  69.6501999  25.5249481  55.1914825  61.2117157  52.7162476  29.7544575
  61.0838394  51.7859917  29.9401970  60.7759705  53.1670151  30.4777603
  86.5158386  67.7287903  47.6786270  86.3787308  66.9872818  47.0890427
  86.5299759  68.4932480  47.1027527  28.9390430  69.9183960  47.6987305
  29.6521931  69.4259338  47.2923737  29.3378315  70.7499847  47.9549789
  19.5935230  65.8892212  34.8805466  19.3121338  66.2635651  35.7153587
  19.1407185  66.4120560  34.2188454  66.1417770  66.7320557  33.2726974
  65.5138245  66.0097656  33.2867165  66.9223404  66.3791428  33.6997910
  76.0190430  64.4791031  43.0852394  76.6713257  63.8075752  42.8857346
  75.5515594  64.6114426  42.2605057  28.8980961  21.9017544   8.8179607
  29.5356808  21.5774345   9.4539909  29.4288387  22.2195568   8.0875187
  57.0220261  58.7940941  46.9468803  56.6555977  58.9056587  46.0696602
  56.8417473  57.8802338  47.1673088   8.0776234  27.3668270  84.4979782
   8.2373304  27.8450890  85.3116074   8.1860991  26.4460945  84.7361298
  81.4573517  33.6881065  82.3615036  81.8960419  33.1220169  82.9965744
  81.2919312  34.5008850  82.8392639  26.3182030  23.1955261   9.2881937
  26.9127235  22.4933758   9.0240726  26.3355522  23.8120708   8.5562077
  52.8163338  16.7019997  56.8523293  53.5613899  16.1590767  56.5947266
  52.9455032  16.8576221  57.7879181  64.8857574  61.9067993  39.1882019
  65.2397690  62.2485046  40.0092659  64.8429794  60.9598923  39.3214989
  74.4678726  28.5300732   4.8127494  75.2717743  28.7770195   4.3555942
  74.3946838  27.5856152   4.6753650  32.1077042  30.6678581  68.5917969
  32.4657211  30.1907482  67.8431778  31.3977547  30.1118717  68.9128571
   2.6094668  35.6458397  16.1206322   3.4107432  35.8655510  15.6453266
   2.4808724  34.7119789  15.9545050   3.6090422  13.6326122  47.9621353
   3.5812559  14.5826073  48.0760193   3.7374077  13.2890491  48.8462830
  54.8135605  35.8304672  17.5100899  54.1278267  35.4376259  16.9700165
  55.4001770  36.2527733  16.8825817  63.2735100  30.5512848   7.1974134
  63.3276596  31.4309864   6.8240151  64.0465317  30.0994492   6.8590107
  50.5315094  20.1398163  50.0811157  51.0934639  19.5024242  49.6404686
  49.9128151  19.6079655  50.5816994  28.1172237  53.8839226  71.7111893
  28.4835129  54.7496376  71.5306244  28.8817825  53.3204079  71.8300629
  32.9812584  68.3909302  41.0554008  33.5500145  69.1494141  41.1874695
  32.3069420  68.6996765  40.4502525  82.4947815  26.7444763  33.7735558
  83.1459427  26.5390892  34.4444046  81.6890793  26.9078121  34.2638664
  60.8878326  20.8820782  35.5705948  61.5429306  20.8782635  34.8726921
  60.4330025  20.0450897  35.4767342  13.9673243  50.5854263  72.3306503
  14.9001894  50.7990112  72.3112564  13.6345911  51.0357933  73.1069794
  80.4705048  24.4107189  24.0853615  79.5562286  24.4626827  24.3639660
  80.7154541  23.4978313  24.2365799  56.1508598  55.5246506  47.9264793
  55.9715462  55.7951927  48.8269691  56.5129280  54.6424217  48.0090370
  22.6811886  66.0135040   2.5524738  22.6444683  66.0757141   1.5980036
  22.5126076  66.9050827   2.8572674  75.7952652  68.7652054  59.2050476
  76.6979828  68.5445786  58.9755707  75.5326157  68.0848389  59.8250084
  67.2551804  26.4098339  28.7527370  66.6460419  26.3436241  29.4881229
  67.3339996  25.5137348  28.4255867  11.9456139  47.3022690   4.2179918
  11.6614828  48.1773987   4.4819074  12.8488436  47.2398605   4.5286593
  11.5664034  66.9431000  65.2190628  11.8454294  67.5753326  64.5567551
  12.3486052  66.7907562  65.7493286  45.9543610  51.2533646  33.6422729
  46.7664909  51.7595901  33.6625710  45.5637131  51.3926010  34.5049667
  27.6186123  63.2871742  88.8398438  27.2761803  62.4332123  89.1038895
  28.4373779  63.0870476  88.3861847  50.0444221   4.4671087  18.8242264
  49.1971245   4.9102697  18.7803555  50.0034447   3.8032849  18.1358280
  72.3368988  24.9736080  83.2264023  72.8953629  25.1188736  83.9901047
  72.6166077  24.1250095  82.8830719  56.6728745  60.5376930  18.5705910
  56.0337486  60.0535812  19.0934563  56.9743309  59.9070168  17.9166775
   9.3276501  55.3145485  10.0943613   8.8333855  55.2728806  10.9130173
   8.6779690  55.5565910   9.4343901  63.0114326  29.0165310  21.0833912
  62.3655167  28.7702827  21.7455006  63.8019524  28.5362797  21.3297024
  35.9677620  46.8114700  23.9181976  35.1689148  46.2926102  24.0123196
  36.6393738  46.3014374  24.3710041  62.7323723  21.0582218  46.9157753
  62.7048912  21.7960186  46.3065681  62.6978912  21.4621735  47.7828751
  -0.1475918  14.1973963  35.0209084  -0.5752833  13.4948320  35.5105171
   0.7493177  13.8885212  34.8929176  43.3831406  44.3764534  28.0088711
  42.4454041  44.3778458  27.8168240  43.7754974  43.8908195  27.2833042
  80.4420013  18.0844002  64.8735962  80.3053665  18.0149517  63.9287453
  81.1589127  17.4773064  65.0571823  56.2784119  18.0092125  69.5420303
  55.3444061  17.8012428  69.5171661  56.4809303  18.3080406  68.6555099
  51.5166817  67.6812668  69.5792770  52.2533073  67.5199509  68.9897156
  50.7490044  67.6864929  69.0075531  58.5658989  25.8000774  74.3777008
  59.1550331  25.2490845  73.8623810  58.6301155  25.4527683  75.2673569
   6.3752818  11.4153891  51.1990013   6.3964796  12.2900457  51.5872803
   5.5325651  11.3743868  50.7469177  67.7770004  63.9752960  28.2465420
  68.3081284  63.3073883  27.8129120  68.4107895  64.5180206  28.7155857
  76.7435150  60.5605583  17.2774963  76.6894608  59.6095352  17.3716545
  76.8237915  60.7036972  16.3344707  13.9122791  61.0451698  60.6150665
  14.2084637  60.4108047  61.2678223  12.9636707  60.9233513  60.5758896
  39.5780602  35.8907204  65.1056671  39.1041069  35.6495667  65.9015656
  39.7285347  36.8320312  65.1924438  66.2106476  18.4343624  27.4209385
  66.1206512  17.5016880  27.6165199  66.9448395  18.4809055  26.8085403
  33.2410088  39.6760025  70.8408966  33.1432877  40.5107727  71.2989807
  32.3442879  39.3664207  70.7132797  54.7195358  36.0370064  68.3567963
  54.2436256  36.1495132  69.1796494  54.2438774  36.5806351  67.7287445
  50.9941826  19.7183857  18.1022549  50.9953461  20.3485889  17.3817883
  51.8594398  19.3107147  18.0652676  34.6028595  48.7732544  12.2143927
  35.5471687  48.6343269  12.2865572  34.4608231  49.6470947  12.5783463
  42.2119408  13.9359884   7.1452298  41.6877937  13.8659639   7.9431014
  41.6498337  13.5795202   6.4573374  63.7487259  37.0982590   7.0050378
  63.9308319  37.6126251   7.7914839  64.5794525  36.6679916   6.8025746
   6.4534893   1.5849072   2.2349441   6.7757096   0.8117331   2.6982019
   6.6027484   1.3893726   1.3098929  17.1045437  46.4158669  62.7591324
  17.4751472  45.5887108  63.0668602  17.8497639  47.0158615  62.7293854
  47.3839340   8.9459858  56.5320740  48.1411781   9.4863920  56.3067398
  46.8610229   9.4972239  57.1142540  48.4089851  16.4574280  80.2141190
  47.8259163  17.1717262  80.4710999  49.2848816  16.8427258  80.2383652
  51.3334503  29.3623352  63.3836021  51.9695587  29.2060204  64.0815735
  51.2066803  28.5043888  62.9785233  70.9149323  35.5514107  88.8228378
  71.3933487  35.2880135  88.0367279  71.3043137  35.0312691  89.5257339
  85.1795959   7.3774195  11.1832161  85.7924500   6.7333946  11.5380039
  85.7251053   8.1339417  10.9679880  77.8905945  24.4512291  19.2054787
  77.0283051  24.7217369  19.5209465  77.7211304  23.6602001  18.6938286
  37.7987938  22.2068481  16.8741302  36.9470520  22.3413773  16.4585876
  38.3674965  21.9095211  16.1639156  72.6256561  19.6640167  25.0950375
  72.2292023  20.3064308  25.6835594  72.3423462  18.8169708  25.4392471
  27.9844437  41.6078377  10.9105940  27.4280109  42.2333412  11.3746643
  28.4879417  42.1438179  10.2978563  80.0351791  17.4998932  19.6533451
  79.8106766  17.1222992  18.8029022  79.3748856  17.1510201  20.2521248
  12.5052261  24.5693359  88.8709488  12.1583023  25.3553104  88.4489059
  11.8195267  23.9118862  88.7534409  38.5171661  48.0849457  63.5027618
  38.7424393  47.3248367  64.0391541  39.0099449  48.8073311  63.8920670
   9.2596989   6.9017320  16.5891800   9.2697487   5.9590702  16.7550697
  10.0775614   7.2207918  16.9706669   7.1466126  50.8007011  33.4228935
   6.6991839  50.6656761  34.2582436   7.7398095  50.0534782  33.3453903
  62.2943420  26.6893272  45.3348160  62.6118355  26.9923191  46.1854782
  61.6619492  26.0025043  45.5459709  48.5673523  45.0893135  49.9407387
  49.3831825  44.6405945  49.7187042  48.2983475  44.6995468  50.7725754
  61.1547546  23.7492657  44.3458900  61.0337563  22.9406300  43.8481979
  62.0491600  23.6920567  44.6820412  53.6808510  47.5341949  24.9856758
  54.1582947  47.0039902  25.6237698  52.7728348  47.2411728  25.0623207
  48.9404259  66.4614258  26.2086258  49.3813362  66.4996719  25.3598824
  49.6525192  66.4143066  26.8465405  53.1134758   8.4042749  54.6872025
  53.1713943   8.2323265  55.6270485  53.9453583   8.8244333  54.4688721
  29.0945168  51.3003349  28.5705376  29.7376766  51.5686226  29.2267399
  29.2397995  50.3603477  28.4630795  66.5278168   6.4019446   1.8156401
  67.1446915   6.9302030   1.3090438  65.8868637   7.0320811   2.1447957
   4.4171867   7.6243629  36.4109879   3.6275582   7.7702456  36.9319839
   4.5498576   6.6767688  36.4373550  80.2304916  55.3324432  57.6114845
  79.7286835  54.5208702  57.6874428  81.0516510  55.0683670  57.1965294
  64.9470673   9.8908463  22.4099617  64.1540909  10.1089954  22.8996887
  64.6305771   9.4195442  21.6392899  72.9748459  10.5696878  26.3529625
  72.2577972   9.9449158  26.4612942  73.0646439  10.9825087  27.2118855
  49.3777199  53.1930389  61.0068665  50.0501823  52.8866997  61.6152916
  49.3501129  52.5234375  60.3234215  64.7564087  68.9983597  54.6899834
  65.1558151  69.1760101  55.5415421  64.7476120  69.8472519  54.2477875
  42.5750008  14.4462976  72.1015778  42.5155296  14.4794550  73.0563583
  41.6862755  14.6339216  71.7995911  22.0330486  59.3195496  16.8985863
  21.2335796  59.8295555  17.0288715  22.0839520  59.1918068  15.9513149
  73.2087021  39.9635010   3.5719812  72.4629440  40.0910568   2.9856293
  73.6904831  39.2295837   3.1905625  77.5884399  24.1895809  67.6364288
  77.5835342  23.2826481  67.9425049  78.4545212  24.5187874  67.8767471
  61.6677856  23.2140503   1.7794094  61.3846169  22.8170586   2.6030865
  62.6194992  23.1117001   1.7789270  79.4605789  15.9673204   1.4395008
  80.0470810  16.1550026   2.1723216  80.0199051  15.5459957   0.7869127
  32.9879341  66.5221558  46.3078384  32.8625603  66.3824844  45.3692207
  32.1879425  66.9634933  46.5932732   1.1656765  38.5084457  41.9617348
   2.0663259  38.7199631  42.2073402   1.0475110  38.9211388  41.1061897
  40.9318085  31.4016590  84.5584793  40.7078857  30.6639385  85.1258087
  40.6944122  32.1763763  85.0680695  59.6178131   7.2875152  40.4950981
  58.8711395   6.7158442  40.6737061  59.3085442   8.1639929  40.7239456
  44.1634674  52.1520386   8.3884687  45.0509949  51.9186592   8.1163263
  43.6670609  51.3373260   8.3106489  81.1667862  55.5532646  41.3597946
  81.1100922  56.5071068  41.3031960  81.6686859  55.3901215  42.1583633
  65.8542480  47.6273193  68.6145706  65.0929337  47.5272751  68.0430603
  66.3188095  46.7934914  68.5428391  70.5972366  55.4842033  77.5206985
  70.6746826  54.5706863  77.7958832  70.4605789  55.9688072  78.3347702
   9.3750372  62.1722870  53.4494514  10.3020849  62.4071846  53.4899025
   8.9142103  63.0109253  53.4729767  54.9568710  41.8299217  10.1398840
  55.1768227  42.0591431  11.0428295  55.6931534  42.1576385   9.6234322
  14.5713749  42.3468781  87.9686050  13.7301483  42.4137917  88.4203720
  14.8960257  41.4752769  88.1947556  32.4059296  26.6548309  87.0850372
  31.6907425  26.1152420  87.4220657  31.9699841  27.4048252  86.6804504
  43.1336670  27.1333237  68.4418030  43.9268265  27.2251492  67.9138870
  43.1097221  27.9259071  68.9779663  25.6410942  65.1471710  70.0877762
  25.8692627  65.7605286  69.3892365  25.3448982  65.7037888  70.8079681
   7.1490068  42.8847656  22.8990021   6.3931165  42.6556854  22.3582783
   7.7062860  42.1069374  22.8734913  68.7491989   5.0952663  32.8767128
  68.6878052   4.5459938  32.0951996  69.2521210   4.5703964  33.4994545
  37.7409477   4.0722222  20.7681789  37.5017548   3.1943395  20.4709568
  38.5970421   4.2342968  20.3718643   6.0760746   5.1015830  22.2320957
   5.2893448   5.0403461  22.7738876   6.5269523   4.2684789  22.3694954
  72.9708252  23.2569103  28.5057507  73.6823578  23.1758385  27.8706322
  73.3840408  23.6366329  29.2811852  65.1521149  47.2089348  34.0045204
  65.4568405  47.0865936  34.9036369  64.8910522  48.1289177  33.9631958
  71.2865829  48.1472206  79.2526627  71.8616486  48.6684418  78.6924362
  71.6339340  48.2732239  80.1356735  42.3363113  28.4047318  56.3346634
  42.7060356  27.7130260  55.7859573  43.0612373  28.6775112  56.8970718
  47.7741737   9.1841583   9.5114403  47.9282150   8.4875574   8.8732796
  48.0854416   9.9789495   9.0782528  83.1221008  54.1412277  76.9369812
  83.6642838  54.3955879  76.1902771  82.5289536  54.8814354  77.0654755
  12.0356703  45.6936646  70.5254517  11.7563915  44.9918175  69.9375305
  11.9959173  45.3043747  71.3990097  83.8320465  37.1925430  50.1417236
  83.0799789  37.7501526  50.3409653  83.4469986  36.3722610  49.8333282
   4.1991348  39.4154358  42.1294174   4.6554575  40.2062531  41.8419952
   4.8281097  38.7090797  41.9821701  20.6069069  15.4299755  63.0129738
  21.0016651  15.7490292  63.8245163  21.2379284  15.6629000  62.3319550
  73.1319122  58.3778992  32.2833939  72.8649216  58.1558266  33.1753769
  73.0244522  57.5638046  31.7915268  34.8969765  70.4737930  29.9279194
  34.4296074  70.0750580  29.1938858  35.3871918  71.1963196  29.5356407
  10.4095736  34.9507408   4.5690737  10.5056849  34.0363579   4.8353434
  11.2583504  35.3476524   4.7647057  48.0826683  51.4077721   7.0078716
  49.0061264  51.2376785   6.8220615  48.0518990  51.5560989   7.9530091
  27.8028355  28.9573040  10.8909063  28.1840134  29.2045212  10.0483990
  27.0977249  28.3503227  10.6659021  37.6991043  51.4111290  13.4678516
  38.1112709  51.4272232  12.6040869  37.7553787  52.3152924  13.7769690
  66.1324158   2.1595287  48.5707092  65.8047409   2.8602586  49.1344795
  65.5205612   2.1382287  47.8349037  19.8593884  40.3270836  26.2712498
  19.4923820  40.8682785  26.9702816  20.1511383  39.5299416  26.7136059
  75.3388824  10.4340792  74.1851273  75.3744431   9.6733379  74.7649918
  76.2534409  10.6942205  74.0749588  86.0307388  23.9419193  38.2911568
  86.1537094  23.0701313  38.6667824  85.3158722  23.8337688  37.6638527
  15.0076036  64.8227386  12.2722006  15.8198557  65.0419998  12.7287121
  14.9476700  63.8694534  12.3344917  60.1711197  11.3989296  13.4546623
  60.3563080  10.4825048  13.6598539  59.2307549  11.4930906  13.6065874
  70.7262039  43.9119339  31.4484253  71.6408386  44.1736221  31.3426323
  70.7387695  42.9584122  31.3655281  81.3116074  28.5872917  66.1000290
  81.1611862  28.1263123  65.2747345  82.0099335  28.0914688  66.5274963
  84.1710052  13.4059877  54.3766212  84.2452621  14.3490067  54.5230217
  85.0295029  13.1472950  54.0415306   5.8726411  37.6343613  35.3339005
   6.3639035  37.3367996  36.0996361   6.4789996  37.5219994  34.6018257
   9.0194502  65.8822708   8.1519747   9.8492146  65.6322784   8.5584526
   8.4218807  65.1662216   8.3674145  21.4549294  39.9517441  74.7808380
  22.3319759  40.2947922  74.6095657  21.0371475  39.9218216  73.9201431
  30.2797699  43.9328156  38.6350021  29.3353558  43.9869537  38.7812233
  30.3980274  44.2126427  37.7272873   9.9017496  63.7825127  49.7773895
  10.6908579  64.0775681  49.3229866   9.7376051  64.4579697  50.4354553
  23.7774067   7.3128982  22.6581020  23.7981930   7.0911837  21.7271652
  24.3250332   8.0946302  22.7304192  82.2594833  30.3665237  62.9694138
  82.8039017  31.0848980  62.6472588  82.7542953  30.0013371  63.7029228
  77.6344910  40.2237244  13.7227716  77.8454666  39.4717979  13.1693020
  78.4843903  40.6052284  13.9426622  48.0799980   0.3879470  80.6837616
  48.4435158   0.6730567  79.8454285  47.5003815  -0.3397191  80.4584274
  50.7520218  41.3004456  60.1244736  50.5118408  41.4195938  61.0433578
  51.7091064  41.2860298  60.1270065  27.8262196  68.5776367  51.3800240
  28.1659412  69.3218689  50.8830948  27.6683178  68.9272308  52.2570000
  52.1847076  60.6162605  37.8769150  51.4526405  61.0354385  38.3292465
  52.7072449  61.3444748  37.5409203  73.3555450  17.4715385  17.6140633
  72.7489777  17.4911709  16.8738480  73.4656830  16.5408630  17.8088493
   0.8256802   2.0824573  32.1300621   0.3995306   1.2805520  31.8274441
   0.2377024   2.4271998  32.8021202  26.2825794  35.6969757  16.8024120
  26.3588219  36.6216850  17.0376301  25.3645668  35.5878601  16.5542622
  37.9154472  31.0858021  17.6145248  37.8389626  30.2443027  18.0642605
  37.1334038  31.5704651  17.8786068  57.9575043  69.0732727  24.6530457
  58.6950455  68.4744873  24.5359154  57.3849068  68.8968887  23.9065552
  53.0088501  69.0236282  57.0608826  53.0446548  68.4783325  56.2750053
  52.8707695  69.9112930  56.7303963  75.4097519  42.9833641   7.7904763
  74.7241898  42.5454712   7.2860150  75.0886383  42.9709473   8.6921196
  57.4732628   1.6366841  53.6510391  57.0206718   1.6930400  54.4925957
  56.9678230   2.2039278  53.0688019   5.5354004  17.8885956  14.5863962
   5.5422235  18.4256973  15.3786745   6.4477377  17.8770161  14.2970200
  41.9079742  50.6673546   7.2013068  41.3304024  51.4188805   7.0677247
  41.3430023  49.9961243   7.5840459   8.0776682   3.3645041   0.7374156
   8.2837725   2.8986828   1.5478251   7.1212087   3.3683593   0.6999841
  67.3929825  57.4554596  56.6426392  66.9518738  58.1795158  56.1983414
  67.1860809  57.5810509  57.5687332  51.9670105  20.6970043  57.5663834
  51.7571335  19.7860546  57.7721863  51.4382401  21.2087936  58.1785164
  39.5002861  60.0185509  17.8448067  39.1289787  59.2995491  18.3560791
  40.3181419  59.6657715  17.4942474  57.2429047   4.4942751  53.5569382
  58.0749092   4.2118607  53.9367332  57.4311790   4.6079025  52.6253433
  68.8028030  26.0318184  75.3507996  68.4966736  26.6306705  76.0318985
  68.0556641  25.4573479  75.1834869  30.4630775  63.2696075  22.3158016
  31.2512035  62.7909241  22.5726109  29.7409058  62.7449150  22.6613445
  65.6859665  35.6812401  67.1766281  65.5399246  36.0414810  66.3019028
  66.2376633  34.9128609  67.0301666  80.1653671  58.3823624  78.1409912
  81.0104218  58.8206902  78.2408905  79.5186539  59.0710907  78.2947769
  62.3064690  60.0983429  42.8589478  61.8339920  60.9077492  42.6643715
  61.6823044  59.4017982  42.6553001  26.5101814  37.0706482  84.2207794
  26.1204739  37.6778412  84.8498077  27.0259609  36.4685135  84.7570953
  36.2934685  40.2228661   1.5041403  36.0901985  39.3142242   1.7261312
  37.0827942  40.1670151   0.9655506  28.1813698  56.7332802  34.4815292
  28.2209148  57.6482277  34.2030716  28.7629929  56.6885338  35.2404366
   3.7723804  40.7094803  79.0603027   3.9543602  40.0733109  79.7519684
   4.6079998  40.8142281  78.6053238  73.6897964  32.2760277  34.9352798
  73.3687439  33.1576347  35.1248245  74.4394073  32.1632996  35.5197487
  32.5008583  48.2116661  62.5963440  33.2632599  47.9443626  63.1096916
  31.7526379  48.0230598  63.1627579  48.7403069  53.8311348  44.0992126
  48.4193230  53.6869011  43.2090454  47.9736443  53.6933975  44.6555290
  53.4772530  20.6037636  36.2712479  52.5886497  20.4577198  35.9467735
  53.3851776  21.3079681  36.9130020  82.3230209  71.3869781  65.2503357
  81.7857590  71.4109268  64.4585037  83.2124939  71.2334747  64.9317169
  77.2024078  46.8875809  81.8410645  77.8203583  46.3195915  82.3012390
  76.3490295  46.6634789  82.2122116  55.4890251   6.4843502  53.8491402
  54.6645737   6.0074472  53.9444351  56.1509018   5.8004489  53.7470360
  42.1939354  63.1929855  15.4643297  42.7610817  63.9576569  15.5635929
  42.7548943  62.4487648  15.6827192  55.5636292  54.6329155  35.2172546
  55.5343513  54.6460533  36.1739159  54.8150864  54.0936432  34.9621086
  38.9752541  62.0840988  40.9956474  38.0539551  61.8247490  40.9821663
  38.9700279  62.9674835  41.3642044  62.5443115  33.6052399  52.8925552
  61.8056450  34.2129822  52.9280243  62.1683197  32.7904549  52.5594063
  64.6103516  68.8899231  34.4104805  65.2432480  68.2752457  34.0392036
  63.8185959  68.3683014  34.5418816  35.4733276  25.8278484  80.1030579
  36.3746643  25.5104961  80.0472260  35.5541191  26.7815742  80.0924988
  78.0226212  11.8132410  35.0802956  78.8794250  12.0325794  34.7142181
  78.0608521  12.1267567  35.9838867   9.0627108  47.7259331  52.2143593
   9.0402269  47.7903442  53.1691246   9.7876358  47.1281624  52.0316353
  53.7893715  18.0839767  38.3126602  53.2280846  18.3109398  37.5712585
  53.8626137  17.1303444  38.2745056  84.1266556  27.4239254  69.7481003
  85.0794601  27.5057316  69.7069321  83.9011536  26.8712864  68.9997864
  51.0619583  46.4071465  69.5060959  50.4851875  45.6524010  69.6241226
  51.8187752  46.2193642  70.0612488  83.4591522  18.5088711  59.9577065
  83.9696884  19.2504635  60.2826996  83.3320160  18.6949348  59.0274124
  69.9247208   5.0563607  53.2652245  70.4145966   5.6552043  52.7016258
  69.6667938   5.5911369  54.0160370  66.4283295  49.1809578  60.4919128
  66.9439392  49.2720413  61.2932167  66.8519363  48.4677429  60.0142975
  33.9269562  65.7533798  64.5720291  34.5824547  65.0561295  64.5520477
  33.1056252  65.3043060  64.7719727  84.6315994  39.4885254   3.7118580
  85.0147629  40.1071548   4.3337221  85.3139420  39.3570290   3.0535698
  45.8774261  42.0544052  63.7906456  45.6560631  42.3751678  62.9163780
  45.6688728  41.1206093  63.7630806  86.7038345   5.1339612  52.3658104
  86.7407684   5.1792359  51.4103928  86.1817703   4.3527541  52.5485649
  63.9522667  13.9669981  59.7989883  64.0104599  13.5805569  60.6727791
  64.8327179  14.2999153  59.6252136  19.2781906  36.9559097  14.2286177
  20.0142365  37.3606110  13.7696114  19.4242134  37.1691628  15.1502647
  83.0423737  61.9498711  19.1850986  82.3852386  62.4010735  18.6551723
  83.4003677  62.6313362  19.7540226  22.1947594  35.6216393  73.1334839
  22.2358208  36.5344162  72.8481979  21.6904125  35.6473045  73.9466324
  50.5826187  53.8575783  10.6408958  50.6407356  53.2361374  11.3666134
  51.3465996  53.6636963  10.0977821  30.3885899  66.0298462  44.0138435
  31.2177391  66.4583206  43.8013573  30.6357822  65.1384201  44.2598076
  34.5098877  53.6190414  39.6419296  33.7200775  53.3159027  39.1941147
  34.9789047  52.8164024  39.8700104   9.1474934  60.7413750  37.5735855
   9.6921921  60.1848831  38.1302299   8.9791832  60.2101364  36.7953262
  16.8878403  48.6562958  49.7473831  17.4013500  49.3026962  50.2318535
  17.0818748  48.8368378  48.8276100  18.6080780  20.9783401  86.2144165
  18.7406063  20.0852222  85.8965988  17.7353420  20.9657021  86.6073608
  15.9070349  44.4471626  64.9174957  16.7276974  44.1368256  64.5348206
  16.1365719  44.6853065  65.8157349  42.6126785  67.8106079  40.9139824
  41.7629318  67.6675034  40.4972229  43.1217384  68.2911301  40.2611504
  86.3760147   9.3969984  66.1374130  87.1957779   9.7529907  66.4801712
  85.6967697   9.9608870  66.5074081   7.9621029   1.1042402  55.5483093
   7.9931912   0.7246640  54.6701393   7.0837803   1.4785858  55.6164780
  25.3771324  28.9705524  16.0925541  25.0624542  29.4052410  15.2999287
  25.5450783  28.0683708  15.8203478  49.8565903  10.1435928  71.1090088
  50.3714981   9.4106998  71.4466019  49.4208069   9.7925253  70.3324356
  84.1103745  50.9264755  44.3451729  83.6972275  50.6650887  45.1681099
  84.9843826  51.2226143  44.5994263  28.4256592  28.8533440   4.4968882
  29.2435265  28.3646049   4.5888681  28.6235485  29.7202606   4.8511848
  75.5520477   4.2264009   5.6961455  76.0650635   4.5835395   6.4210615
  76.0558701   4.4494820   4.9134378  39.6059914   7.9647326  72.1849670
  40.3714828   7.5307102  71.8083038  39.0184364   7.2482572  72.4251175
  22.4970131  17.7565746  77.4205704  21.9385300  18.0155449  76.6875839
  22.5281754  18.5304642  77.9830246   6.7008457  49.5403938  18.8717670
   5.7529087  49.4176903  18.9226742   7.0642715  48.6710129  19.0400829
  60.0787010  17.7077560  57.6608238  59.2830887  18.1050186  57.3066826
  59.8004112  16.8435059  57.9639091   9.6053429  29.4370880  74.0695953
  10.0520411  28.6616821  73.7298279   8.9026976  29.0877705  74.6177673
  13.8298483  16.2755070  53.9939041  14.4368963  16.5925636  54.6626358
  13.6577539  15.3662043  54.2384109  65.0708160  34.1018143   2.7914655
  65.0377884  33.6250610   1.9620985  64.5554810  33.5673637   3.3956387
  47.8290291  50.2135582  11.5678730  47.4631996  49.4035225  11.2125683
  48.5391960  50.4393616  10.9671183  21.3007545  55.0072289  11.0675631
  21.2468758  54.1021690  10.7606440  22.2382450  55.1687469  11.1736603
  52.6621094  11.0028515  84.5346603  53.2571983  10.7161636  83.8419037
  52.4459076  11.9067917  84.3057938  45.6873055   0.3630156  53.7858086
  45.8759155   1.1166755  54.3449631  45.9583817  -0.3941452  54.3048973
  46.1442566  17.2758102  73.2899094  46.6364403  17.1049232  74.0928955
  46.7894096  17.1821384  72.5890274  78.0920334  20.8976803  26.1677361
  77.7749481  21.7720966  25.9417152  78.3439178  20.5101681  25.3295116
  36.5882645  49.9842033  15.7559662  35.7809258  49.5558662  15.4714279
  37.1257515  50.0315742  14.9653368  33.4102325  48.5039597  50.4322433
  32.7787552  48.9855919  50.9665604  34.0037384  49.1766052  50.0982780
  12.0967369   3.8441551   3.2671568  11.5741949   3.0444398   3.2068532
  12.8780642   3.6596110   2.7459056  77.4081802  13.1707802  65.2207642
  77.0450058  12.2909565  65.1195526  77.2062454  13.6097679  64.3944855
   1.7914048   6.0405688  54.1991653   2.1371043   6.6817322  53.5781708
   1.0920076   5.5960908  53.7200890  62.9482956  13.4375725  75.9627533
  62.8856850  13.5482473  76.9114685  63.8457565  13.1392441  75.8151245
  84.6994019   5.4488349  17.8167477  85.1754074   5.9420166  18.4848938
  84.9396744   5.8700891  16.9914951  50.3365898  37.8435173  68.3855438
  50.4490280  38.1293602  69.2921219  50.6781311  36.9494209  68.3722076
  12.7195396  41.1309242  65.9636078  13.0362701  40.2741661  65.6774597
  12.9278927  41.1637077  66.8972778  57.7910919  29.5013695  19.6046295
  56.9201279  29.5058670  20.0016594  57.7023544  28.9338360  18.8389530
   6.4243593  37.7103806  79.2315063   6.9475946  38.5107727  79.1887817
   6.3691788  37.4115639  78.3238220  46.1898537  43.0958328  12.1465664
  45.7298546  43.2029648  11.3140049  47.0370026  42.7209740  11.9056396
  43.8320160  37.3858452  14.4460268  43.4367790  36.5153694  14.3981695
  43.2758904  37.8680878  15.0579052  48.2589493  70.5601578  36.5933800
  48.1045189  71.5044632  36.5674973  48.6439171  70.3569641  35.7408867
  18.3319073  19.4287529  26.8094845  18.8261127  19.9571857  26.1827850
  17.5352402  19.1825333  26.3394547  84.7200470  31.1816998  48.2460442
  85.2442322  30.4119854  48.4674110  84.4342422  31.0260258  47.3458710
   8.2535295  56.4099274   3.7362595   8.0869226  55.7527313   4.4119587
   7.5511999  56.2813530   3.0987382  30.4123135  64.7403107  52.7622681
  30.0206890  64.1020660  53.3585052  29.7842979  64.8135071  52.0436096
  81.3957672  38.5878372  11.7660017  80.4616394  38.7680626  11.8715782
  81.6781311  38.2756577  12.6256809  52.8342285   6.1883416  49.4036598
  53.7548714   6.0133286  49.2086716  52.8077164   7.1210752  49.6170540
  14.8471766  68.5213013  79.4134521  14.2141838  68.6329956  80.1227264
  15.4182043  69.2866898  79.4792938  52.3129921  14.1127157   8.0220451
  52.7470894  13.4244909   7.5179238  52.9995270  14.7595186   8.1849794
  82.4913483  50.4967117  88.9496689  83.1562195  50.1353836  88.3634796
  82.0961151  51.2121429  88.4514923  24.2551155  62.3369637  38.9096909
  23.6813793  62.1231499  38.1739311  23.6657600  62.6811028  39.5808525
  36.3582344  71.5882874  10.7409573  36.7871017  70.8116531  11.1003113
  35.9270782  71.2771149   9.9450254  47.7485771  24.2908230  17.6127892
  46.9095764  24.7427197  17.5228214  47.6163826  23.6828823  18.3402271
  22.0016594  43.5673561  11.7049122  22.4881058  44.3332901  12.0097866
  21.3444023  43.4151764  12.3839464   3.9688022  53.5428352  57.9555130
   4.2190328  54.2675400  57.3824387   4.3846307  53.7455597  58.7934990
  61.2332764  54.4374352  66.9193802  61.1145096  54.0062256  66.0731049
  60.4413376  54.2211761  67.4116211  62.3372955  50.4407005  70.7360077
  62.3980331  49.5212593  70.4768372  63.1344872  50.8406639  70.3885193
  19.3533554  68.4630737  14.7548094  19.5777607  69.2807159  14.3105841
  18.9827232  68.7397156  15.5928621  19.6368771  66.1718292   3.1965239
  19.6299706  66.1836243   4.1536264  20.4646683  65.7489243   2.9681716
  19.0177841   9.0834618  22.9783459  19.1946583   9.1009731  23.9188976
  19.2913361   9.9463167  22.6670876  77.2746201  66.5826950  69.2088623
  77.4838867  66.5522919  70.1424103  76.5597382  65.9550095  69.1030884
  17.4629574  12.0197582  67.4801788  17.6320686  11.0815372  67.5660553
  18.2694817  12.3753214  67.1069107  21.1627979  12.3357859  24.5306988
  22.0383453  12.7022429  24.6546288  21.2724972  11.6813927  23.8407936
  61.8825645  26.8092518  12.7891302  61.6633644  27.6094246  13.2665234
  62.3873253  27.1114845  12.0340786  76.7337570  20.0564098  21.8936119
  75.8223343  19.8413029  22.0917664  76.8017883  19.9590244  20.9438114
  44.9100342  35.5777588   3.7769947  45.0818367  34.6699905   3.5266576
  44.2690582  35.5137520   4.4850111  47.9232025  27.9912052  31.3286953
  47.6482162  28.8630447  31.6124363  47.8214149  27.4429398  32.1066895
  86.5140076  52.1134453  57.4797554  86.2877350  51.7151604  56.6392784
  86.9673462  51.4199524  57.9591141  58.2063599   8.5475216  60.3298950
  57.9677315   7.7795496  59.8107567  57.8149643   8.3872051  61.1885796
  16.3714294  38.2171173  45.8445091  16.6329155  37.4670486  46.3786011
  15.4496880  38.3562469  46.0619202  17.6583309  25.9474907   7.9257083
  17.5629234  26.8530445   8.2208385  18.0476379  26.0193672   7.0542116
   6.8906751  22.7302113  11.1357393   7.5747061  23.3507729  10.8842688
   6.3031521  22.7023697  10.3805742  18.2924080  71.3593369   4.7077656
  18.6705208  71.2751007   3.8324566  17.4504509  70.9077377   4.6494379
  54.5438995   7.5999355   1.5173301  54.0502129   7.8448577   0.7346965
  55.2962036   8.1917658   1.5209199  37.7437553  21.8072510  81.1513977
  38.0078354  21.1049213  80.5570679  36.8850861  21.5360928  81.4760361
  85.1098785  11.4079618  11.3971796  85.0119247  12.2629461  10.9780855
  84.4498444  10.8575859  10.9756689  53.4370384  44.7908211  32.7674446
  54.2673683  45.1875229  32.5039825  53.0791397  45.3943901  33.4184799
  29.7048035  46.6128197  20.0851460  29.0461006  46.5378418  20.7755947
  30.2712002  45.8514786  20.2107792  65.8216782  18.9027367  11.2277050
  64.9065781  19.0142117  10.9700174  65.8124084  18.1569691  11.8276863
  62.9884567  18.3826561  22.5963402  62.1900826  18.8344479  22.3229980
  63.4786568  19.0401173  23.0899792  45.4446297  12.5482264  78.1718216
  46.3296661  12.9017525  78.2610321  44.8819695  13.3209715  78.1216888
  45.7653999   3.4707253  46.9275360  46.3247108   2.8382862  47.3785591
  44.8739128   3.2088649  47.1575584   1.2455901  11.0064936  76.6131516
   1.6381637  11.8238344  76.9198608   0.5723423  10.8054333  77.2631912
  11.7857819  47.5987244  10.8241167  12.3016253  48.2702827  11.2703810
  11.5729084  46.9653816  11.5095301  23.3403149  35.8921814  65.2368546
  23.8929100  36.6048660  64.9159851  22.5126286  36.3151741  65.4654312
  56.5335693  30.8657150  82.5452805  56.1626434  30.6250095  81.6963348
  56.0013695  30.3897476  83.1828232  21.2370071  13.9184265  88.3005524
  22.1404533  14.1629410  88.0999832  21.0694351  13.1511278  87.7533798
  66.8400421  64.6685104  78.9593735  66.5449905  65.0979385  79.7623520
  67.7426147  64.9664612  78.8461685  66.0770721  23.0509300  64.4645157
  66.9324722  23.1724110  64.0524902  65.4482803  23.1880417  63.7559547
  46.4317513   4.7225356  77.2983780  46.8098488   3.8891985  77.0176239
  46.6711235   4.7949638  78.2223358  60.2817612  18.4790173  40.9087143
  59.9939995  19.1047859  40.2440033  59.6960945  18.6311588  41.6503868
   6.9744778  15.6927767  74.6470261   7.9199677  15.6752129  74.4987946
   6.6322832  14.9902477  74.0942230  50.0752525  26.9602451   8.0324965
  50.2744789  26.1059551   7.6494408  50.9168205  27.2783127   8.3593435
  31.9096146  61.1971436  60.2190437  32.6524315  60.6002426  60.3094025
  31.5762730  61.0328674  59.3369293  81.7433548  23.9320316  17.5137768
  82.5720673  23.5187893  17.2715092  81.9997711  24.7253304  17.9840527
  36.2963791   2.8704476  46.6373405  35.8689957   3.5941570  46.1792793
  35.6272240   2.5367148  47.2349052  54.4852028  63.3812141  15.5715561
  54.4916840  62.4479065  15.3591223  54.9558678  63.4408989  16.4029064
  84.8023529  38.6120338  60.4882965  85.2390823  38.8802719  59.6798706
  84.1633301  39.3045692  60.6564598  71.0569839  60.7811432  86.8769989
  70.8657379  60.9498253  85.9543915  70.4522781  61.3489532  87.3546600
  42.1934128  51.9958649  62.8465195  42.4887505  51.1151199  63.0773659
  41.2882347  51.8772125  62.5587540  45.4846344  57.7743149  64.1982346
  45.9593582  57.0280495  63.8322296  44.6915321  57.3925362  64.5743561
  35.1069946  13.9039679   8.2547560  35.1032944  13.8626690   7.2984543
  36.0036430  14.1517105   8.4803238   1.1613284   1.2377272  88.9997864
   2.0896482   1.3168755  89.2193069   1.1464603   1.1616290  88.0457306
  42.2113190   1.4327511  56.3203621  41.9184456   2.1127856  55.7137222
  43.1664810   1.4933255  56.3050499  53.5462265  30.0823689  39.9315109
  53.4297409  30.3422394  39.0176582  54.1314507  30.7460785  40.2965240
  44.0145149  42.0134125  13.7378407  44.7408752  42.0456772  14.3604107
  44.2855721  42.5899849  13.0234699  15.8186693  58.1581764  33.0610809
  16.5864811  58.3515930  32.5232277  15.1485634  57.8875771  32.4334145
  34.4392815  71.5346527  45.3071327  35.0281868  70.9202881  45.7452888
  33.8084030  70.9777527  44.8509712  52.4159241  32.2454910  87.2082062
  52.7718811  32.6649933  87.9915009  52.5323944  32.8949509  86.5147629
   4.7145801  34.8414459  78.7395630   4.3473444  34.0235252  78.4043350
   5.4504833  35.0300064  78.1572189   4.3209138  53.9607697  44.3062286
   4.3438430  54.6348228  44.9854622   4.0271211  54.4221802  43.5207253
  36.5444412  46.1774521  74.1061172  35.9119339  45.4591637  74.1213074
  37.3542175  45.7905998  74.4390411  62.9567795   2.8363233  84.8557053
  62.6710472   2.0650375  84.3661118  63.6256371   2.5052931  85.4551086
  14.3544359  11.9268637  20.9944820  13.6510506  11.6904001  21.5991020
  15.0761089  12.1990919  21.5613251  12.5377216  16.7978840  83.0020523
  12.0474939  17.5552635  83.3218689  13.2811451  16.7237015  83.6004257
   3.6411107  35.1439590  43.0900459   3.6878152  35.7174759  43.8549843
   4.3759227  34.5401459  43.1981812  53.9610443  47.2691727  67.6639252
  54.4342995  47.7673073  68.3303452  53.3540764  47.9011040  67.2785873
  17.9816494  35.4047585   8.9515467  17.8959866  34.9456100   9.7870550
  17.1562653  35.2331276   8.4982071  65.6904755  18.7532120  87.6701965
  65.9081268  18.8235550  86.7407227  66.4072723  18.2421379  88.0460205
  73.2825775  68.5939941  58.0154266  73.3216171  67.6617432  57.8018570
  74.1738739  68.8154373  58.2852211  40.8967972  38.5254860  73.1455307
  40.0675507  38.0499687  73.0958328  41.1752892  38.6171913  72.2343445
   6.7025986  60.6390457  21.4332047   6.8894830  59.7659645  21.7782192
   7.3101029  61.2150612  21.8972912  25.0831623  21.8130188  70.7532883
  24.5196648  21.7910233  71.5267334  25.6041126  22.6090431  70.8590546
  68.2144089  68.6866989  46.7358208  67.4951324  68.2055359  46.3267250
  67.7916412  69.2289886  47.4017220  31.0424976  63.8902702  69.9082718
  30.4042110  64.5729675  69.7015228  31.8372555  64.3688812  70.1439133
  48.0383949  70.3696365  16.9932861  48.6215019  70.7833252  16.3568249
  47.6327553  69.6479645  16.5127888  52.4098892  63.7263603  40.0552521
  51.6582375  63.1374168  39.9889565  52.0242958  64.5989990  40.1330452
  16.7898769  47.4653511  68.6043625  16.9121552  47.3031921  67.6689606
  15.9533472  47.0491409  68.8122559  55.5740623  67.9131470  13.4924049
  54.7618179  68.3844147  13.3069515  55.3315582  67.2713852  14.1599140
  74.8585205   3.8522656  17.8254871  74.0505142   4.0524130  18.2980385
  75.4340744   4.5944767  18.0101051  84.9436417  21.6430988  28.3854332
  84.8883820  22.5304298  28.0307198  85.2865829  21.7602425  29.2713776
  40.7840500  48.1373634   1.5927649  40.0778427  48.3215294   2.2121069
  41.5821381  48.3877373   2.0581715  50.0087357  61.7245178  43.0765152
  50.1899796  60.7877884  43.1534729  50.7748108  62.1491966  43.4625282
  86.4056168  69.9427109   6.7066994  85.8129654  70.6491699   6.4499645
  87.1239929  70.3851471   7.1588235  25.9835300  64.7825165  22.5915470
  25.6442280  65.6712112  22.4850998  26.9184914  64.8586960  22.4010868
  27.4991512  46.1717567  66.8298492  28.2688522  46.7370605  66.8948212
  27.3728123  45.8362198  67.7173691   7.3656063  53.9485245  47.3746109
   6.7945137  54.5555992  47.8452988   8.0977726  53.7963791  47.9721184
   3.3071487  36.7991753  33.9039688   4.1388936  37.1962471  34.1623611
   2.9618468  36.4193535  34.7118835  42.1731682  53.3302727  75.9254150
  41.5991745  53.8827782  76.4559860  42.4047813  52.6022072  76.5020523
  75.3599548  15.1376286  40.3322983  74.7597046  14.9368353  41.0503654
  75.9972763  15.7409391  40.7144814  37.1666260  58.9509392  10.3571491
  37.7175484  58.3597832   9.8440733  37.2976074  59.8097076   9.9551678
  29.8125343  40.2019997  36.2294540  29.4305077  40.5293159  37.0437927
  29.3499050  39.3811646  36.0608215  13.0321369  17.6540565   7.8674774
  13.8627615  17.2604370   7.6003470  12.4261560  17.4389400   7.1584325
  84.0916061  69.2491760  61.4892235  85.0231094  69.4313660  61.6130905
  83.9159470  68.5009842  62.0598297  71.5746155  27.8356705   5.2177744
  72.4080124  28.2529678   5.4358077  70.9151764  28.3756275   5.6534576
  18.1043854   5.6404171  67.7231674  17.2309551   5.3108263  67.5116882
  18.6995525   4.9582052  67.4123688  61.1866989  49.6003151  61.9551811
  61.2848015  49.8257141  61.0300827  61.8670387  48.9464340  62.1158333
  14.4543276  10.7324104  14.6795292  13.7801504  10.0787888  14.4938002
  14.2594633  11.0318165  15.5675697  19.7507133  47.1585541  39.3673477
  19.3176441  47.8124924  38.8186722  19.7723980  47.5536270  40.2389450
  85.6733093  44.1630783  21.3391418  86.3079147  43.8217964  21.9692516
  85.7923737  43.6189651  20.5606842  60.0571136  18.9457836  18.6635189
  60.8645630  19.4228954  18.8548908  60.0222816  18.9075947  17.7077141
  69.9608765  60.9121780  33.2163391  69.3542252  60.4860229  32.6108704
  69.7597122  60.5256500  34.0686073  60.0712318  29.0505619  30.1678162
  60.6560440  28.4193077  29.7485981  60.3871422  29.1075516  31.0695839
   8.9505272  39.9831161  48.9608765   8.1037140  39.9297256  49.4039192
   9.5790682  40.1453743  49.6643257  15.7390041  61.6487579  58.7354050
  15.0064011  61.6133423  59.3504410  15.9504690  60.7315102  58.5617142
  28.1586037  43.0405807  59.1276245  28.2258472  43.1527138  58.1793976
  27.7189674  43.8344574  59.4321060   0.7148631  39.6763496  61.6683578
   0.5013114  40.6085434  61.6278343   0.2021482  39.2822800  60.9626198
   1.1784279  47.9537277  49.9879570   0.6657136  47.1504936  50.0783386
   1.4155482  47.9834976  49.0610695  52.2138786  51.8140068  57.0697250
  51.6599922  51.0945816  57.3728218  51.6263237  52.3689766  56.5568733
  39.2649460   2.1272693   7.0143132  39.8382797   2.5577757   7.6484942
  38.9724312   2.8333101   6.4379706  36.6182404  65.9665527  41.4185104
  36.4915543  66.6477127  42.0789680  36.0328674  66.2148438  40.7030258
  46.4504509  17.7308445  16.0529995  46.7387962  17.2529449  15.2753725
  46.9945068  17.3864040  16.7612343  68.3200378  25.3759613  31.8997879
  67.7085800  25.2410259  31.1758156  69.1813583  25.1975613  31.5222435
  28.7471008  60.4940529  54.6253624  28.4058380  60.2699966  55.4911385
  29.3071766  59.7543831  54.3899040  35.6332245  45.0720406  63.1441460
  34.8183784  44.6765404  63.4537239  35.4910774  46.0144157  63.2333641
  69.0029373   9.1456900  30.6829739  69.3474960   8.5127640  31.3129902
  69.7730637   9.6285191  30.3829536  32.4848900  29.2814236  66.3541183
  31.7494373  29.6832676  65.8916702  32.7332802  28.5361366  65.8072357
  55.1413803  48.4852142  30.5059223  55.6238136  48.3689194  29.6874084
  54.2202301  48.4494705  30.2481670  32.9872284  64.5700912  42.2755814
  33.7755013  65.0179672  42.5826073  32.4026184  64.5675659  43.0335083
  53.6833038  12.9936762  67.8741531  53.8772163  13.3953142  68.7210999
  54.5355949  12.7116003  67.5420914  62.4759827  38.2628479  47.9697990
  61.6235237  37.9557457  47.6611938  62.3653793  38.3666649  48.9149017
  26.6855125   1.5849870  67.8555298  27.5798645   1.2656864  67.7354736
  26.5079880   2.1013498  67.0693436  81.9624481  66.3546371  59.5521507
  82.4149704  66.5437317  60.3741570  82.3203659  65.5129700  59.2698212
  65.5143204  12.6595325  19.8942356  65.5523529  13.1906538  20.6896572
  65.8302155  13.2410202  19.2026329  56.4646683  17.6035843  33.2918968
  57.2556725  17.2795811  32.8611221  56.7878952  18.1834202  33.9814987
  13.7001438  24.8116112  60.8761978  13.3671217  25.4941025  61.4588928
  12.9342527  24.5283699  60.3767815  75.1186142  36.2457581  73.8785477
  75.3503494  36.3867722  72.9605865  74.7106094  37.0674896  74.1515350
  38.1025505   1.2115617  14.1579599  37.5508156   1.9788213  14.0058613
  38.3731880   1.2887391  15.0728531  36.1947212  55.3255157  63.5981445
  36.1278801  54.4901733  64.0607071  37.0453453  55.2896538  63.1606712
  62.3084373  33.5374107  62.2860146  61.6784096  33.7502823  61.5975494
  61.7722969  33.2113037  63.0088158  34.5013123  42.0847092  52.6521606
  33.8625984  42.2039528  53.3550529  35.0012779  41.3107872  52.9116020
  44.0179367  54.1086159  48.7238426  44.1469269  55.0276451  48.4893684
  43.1055031  53.9292984  48.4968071  66.2386169  42.1206360  69.9120026
  65.8721695  42.8126183  70.4625473  66.2510605  42.4963036  69.0316849
  81.8150940  51.6745338  13.5441322  82.2178421  50.8773155  13.1999340
  82.5376129  52.1501541  13.9539919   5.6227522  65.7091217  61.6254959
   6.2252607  65.7483902  62.3682442   5.1530704  64.8831863  61.7415009
  12.1908712  25.0184307  67.4158707  12.6329069  25.2189312  66.5908585
  12.5264091  24.1570492  67.6641998   2.5777264  27.0473614  45.2671547
   2.5619593  26.0917759  45.3204346   3.4732730  27.2577534  45.0026474
   7.4375696  56.1045189  88.2723007   7.2458630  56.5250206  87.4340515
   7.2358112  55.1799927  88.1281586  81.5682907   8.5170012  37.9257660
  81.5416183   8.7101622  36.9886398  80.8005066   8.9623823  38.2840614
   6.6296239  30.8133984  27.8913212   6.5160656  31.5668316  27.3119469
   6.4935517  31.1651268  28.7710953  30.7523060  66.0194321  49.3083420
  31.5801315  65.7789688  49.7244072  30.0882587  65.5343094  49.7981644
  78.1419373  70.4140778   5.5171676  77.8942032  70.0926971   4.6502357
  77.3243484  70.7379227   5.8952007  71.3672333  57.9679413  71.6700974
  71.3723145  58.4798393  72.4788971  71.8897018  58.4844093  71.0564804
  58.5743027   9.8862267  40.7087479  58.9141731  10.7147770  41.0467186
  57.6434174   9.9006376  40.9311905  27.0072956  26.3133373  16.1971531
  27.6669292  26.9784393  16.3940163  27.2376289  25.9989738  15.3228788
  80.1399002  62.1545715  40.1844788  80.3465042  62.6186218  40.9957771
  80.9574203  61.7193718  39.9426346  20.9004688  45.5062027  75.0133133
  20.6917439  45.2421494  74.1172409  21.3250713  44.7386398  75.3964462
  41.9960289  40.7395782  27.3668289  42.8810043  41.0879631  27.4748840
  41.8698006  40.6961365  26.4189835  59.7494583  28.9042988  13.5121126
  60.1269455  29.2878323  12.7205086  60.1604576  29.3849888  14.2306156
  72.0409164  27.2895870  32.7767220  72.1097870  27.2882957  31.8220043
  72.3829727  28.1438217  33.0403748  74.4562912  64.7779617  10.2925615
  75.3244629  65.0918427  10.0395889  74.2538376  65.2557755  11.0968876
   8.1123934  12.5428638   2.4572330   7.9180832  12.6968384   1.5326966
   8.5145254  13.3583164   2.7564974  23.6948280  39.5725212  35.2806129
  24.5829239  39.4539413  35.6174431  23.6408138  38.9773827  34.5328674
   8.8331852  41.3199692  86.1700516   8.8851385  41.9111633  85.4190369
   8.9674654  40.4481735  85.7983398  78.4037552  29.9444122  87.1288986
  79.2927551  29.7639236  86.8234024  77.8429184  29.4206371  86.5567551
  52.0350189  40.7323380  66.1439285  51.4371529  41.4525185  66.3442459
  52.1968079  40.3132172  66.9891510  66.3536453  57.7839203  43.2415543
  66.1768570  57.9277420  42.3118820  65.6044159  58.1748009  43.6911087
  31.4563675  34.7524261  21.1210003  31.8135147  34.0136147  20.6282158
  31.9203205  34.7287979  21.9579124  25.6327152   6.8948226  10.1396914
  25.6206989   6.0033174  10.4879808  24.7095890   7.1171689  10.0187283
  38.7418480  41.1523018  89.1112976  39.0225105  41.8351135  89.7205887
  38.6680298  41.5992851  88.2680969  74.6040802  26.6449051  19.6489697
  74.8439560  27.3934135  20.1952515  74.8194122  25.8800640  20.1827145
  42.5788269  35.1006813  13.7011194  41.6559601  34.9174843  13.8771448
  43.0392838  34.3144798  13.9945488  83.9770279  53.7390404  51.1546478
  84.0278244  52.9238167  50.6555824  83.5803528  54.3658791  50.5497093
  14.5674047  37.5111237  48.8671761  13.7934532  37.7072525  49.3951607
  14.3049231  37.7198715  47.9706497  70.6730270   4.0760264  17.9835415
  70.2463989   3.6510193  17.2395077  70.2716751   4.9439783  18.0260220
  31.9432449  19.8850613  76.8594589  31.4808712  19.9645634  77.6937943
  31.5105743  20.5165005  76.2847290  60.9620895  24.2651310  12.2484951
  60.0283203  24.2263622  12.0415926  61.0786781  25.1161232  12.6709299
  75.7849503  56.5510101  19.8067322  76.4593506  56.9391785  20.3641720
  76.1978149  55.7688904  19.4405861  27.2761078  42.0460396  67.0402756
  27.0777607  42.0175858  66.1042862  27.8737774  42.7875633  67.1360168
   3.8131962  11.9656906   0.9452920   3.5197508  11.1002474   0.6604589
   3.3425584  12.5767431   0.3784179  73.8656540  60.4112892  54.3980179
  73.9476242  61.1375465  53.7799072  72.9644470  60.1067657  54.2915993
  73.6174774  47.9920425  26.4834766  74.1127701  48.5477486  27.0852356
  73.7192535  47.1077118  26.8353767  74.4151459  52.9029617   3.7839518
  74.9356003  53.3596535   3.1230528  73.7468643  53.5374184   4.0429926
  21.5677547  21.8833904  19.0554543  22.5192432  21.9016800  18.9526596
  21.4306126  21.7669697  19.9955978  20.2811222  52.4761810  28.2187214
  20.4380875  51.7344513  28.8030434  19.7115936  53.0597076  28.7200813
   7.4337163  13.4603300  15.3281546   7.5099306  13.6085510  14.3855772
   7.9714074  12.6857815  15.4930601  67.7726212  45.7707901  68.2956238
  68.3297195  45.2203827  67.7452316  68.0528336  45.5765419  69.1900406
  50.2202301  67.6152725  10.0333967  50.9814682  67.8572159  10.5608587
  50.5899658  67.3125076   9.2040234   2.9931064  65.9285278  25.9120750
   2.5462048  65.3404160  25.3032818   3.3373809  66.6295853  25.3586922
  59.6926880  23.0480499  41.0513268  60.1817093  22.6171627  41.7523422
  58.8262634  22.6421337  41.0791931  84.8478088  42.0727501  77.0171280
  85.1284866  41.3255730  77.5455017  85.6555862  42.5513687  76.8309555
  58.5607605  51.6352577   8.0669699  58.3125343  51.9896889   7.2131581
  58.3247414  50.7088280   8.0195246  41.6493568  11.6160336   4.6029043
  41.2290916  11.5330763   5.4588985  41.7549248  10.7143431   4.2995191
  21.5850639  67.6555786  29.2547226  21.0983639  68.2292480  29.8465481
  21.8723068  66.9290543  29.8077965  11.0825748  38.0047646  28.0388241
  12.0231581  38.1128235  27.8979073  10.7961073  37.4403000  27.3208065
  41.3992195  58.2701683   6.9539781  41.9585495  58.1082268   6.1942697
  41.7665825  57.7177429   7.6439786  70.8726501  39.8797302   1.8630924
  70.7735901  39.3071022   1.1024905  70.6482391  39.3257980   2.6107748
  31.8540535  56.3222885  17.7957287  32.2780571  57.0722847  18.2128086
  30.9783001  56.6366386  17.5710716  52.8269844   1.6382453  46.4242706
  53.5433273   1.9466256  46.9792366  52.3891182   0.9679235  46.9488373
  59.6304665  35.4283447  62.3541794  59.9010696  35.3412704  63.2681923
  58.6742783  35.4552269  62.3889999  37.0456657   8.0927124  41.0053978
  36.1790314   8.1530371  41.4073105  36.9892616   8.6505852  40.2296219
  60.4960670  26.8598385  18.4685898  59.9459534  26.1012249  18.2733574
  60.3275414  27.0465755  19.3921471  60.3693581  15.6254940  10.2088442
  60.5911865  14.7226725  10.4367409  60.3199615  15.6259937   9.2529202
  35.0678558  51.1253433  28.7666302  35.4431877  50.4078178  28.2562218
  34.6683464  51.7002335  28.1138477  76.7946930  17.4026337  77.7954636
  77.2765121  17.1255569  77.0161591  75.8778152  17.2244549  77.5861282
  45.5618362  53.4952927  10.7133284  46.4527245  53.5590897  10.3691149
  45.0034142  53.5055389   9.9359684  77.4271011   4.1297760  34.1831856
  77.5137787   3.8782206  35.1026649  78.3277359   4.1821060  33.8632660
  26.8958740  49.3639946  50.5511360  26.9473782  50.2200241  50.9763336
  26.7538414  48.7477951  51.2697182  17.5170860  63.3217697  42.7762871
  16.9260921  62.8171196  43.3351097  18.3681431  62.8966560  42.8821793
  63.4894257  32.8221664  45.9971313  64.0100250  32.6767769  46.7871132
  62.7050133  33.2747383  46.3071442  83.4756088  71.0084229   0.2979480
  83.1612854  70.1048050   0.3280212  83.9487152  71.0699539  -0.5318814
  26.5780735  16.9505939  34.3039894  27.1972466  16.3557243  34.7270546
  27.1220379  17.6623955  33.9668350  44.3641815  54.3361740  64.2117004
  44.4090538  54.2097549  65.1594543  44.4487000  53.4547119  63.8482246
   0.2844543  71.2160034  43.0012016   0.8134018  70.4338150  42.8442497
   0.9196429  71.8902664  43.2423172  40.1434250  55.9137917  15.2102194
  40.9798088  55.8192177  15.6660194  40.3326836  56.5066910  14.4829760
  19.6094284   9.2357759  85.5757141  19.5997219   9.2351217  86.5328598
  18.6852245   9.2474213  85.3268280  62.6438599   9.7889795  59.4959145
  62.3637619   9.7403917  60.4099236  62.0023842   9.2610884  59.0204430
  31.6366482  35.8520317   5.7932525  31.7950935  36.7664146   6.0278468
  32.5083122  35.4575272   5.7649364  47.3041840  44.1241837  52.1361313
  47.7979736  44.2318611  52.9490356  46.4438210  43.8133545  52.4178963
  47.4899445  12.5569649  54.6057472  47.2057152  13.0886650  55.3492126
  46.7323799  12.0095215  54.3992729  39.6458359  16.3307190  78.2256546
  40.3756027  16.7884140  78.6430054  38.8657722  16.7903290  78.5362854
  50.8526154  64.0447006  65.6655197  51.0147018  63.7696724  66.5679169
  51.7157860  64.2872467  65.3303452  68.1799011  64.9486313  34.4086723
  68.8010559  64.2670670  34.1520195  68.6528625  65.4725876  35.0552101
  78.2164383  17.3176556   4.7986088  77.7261581  17.7861958   5.4741268
  78.2181168  17.9119453   4.0482426  66.7847214  24.6607113   7.4478006
  66.5991287  25.0443363   6.5906997  67.6997299  24.3849182   7.3937173
  10.9350166  21.1784973   4.6390839  10.3683043  20.5238323   5.0471091
  11.7628298  21.1084175   5.1145258  14.5390463  56.8001404   4.0707731
  13.7246609  56.3640099   4.3213711  15.0765085  56.7771301   4.8625035
  59.1021729  70.1660538  52.3644485  58.8263588  69.2664032  52.5399132
  58.3027687  70.6111145  52.0831833  18.8776436  62.2628899   0.4440334
  18.3800430  61.5340691   0.0732951  18.7652836  62.1727982   1.3903371
  50.7049179  41.7050362   7.0155029  51.6060562  41.6923523   7.3380227
  50.2440071  42.2913437   7.6155357  19.6907749  39.7981796  38.9393768
  20.3346825  39.0909729  38.9010086  20.0453186  40.4763641  38.3643990
  84.0447311  40.4362221  18.8837986  83.7973633  40.4596977  19.8081837
  84.0903397  39.5039406  18.6716652  38.1535454  19.8162823  79.5959396
  39.0118561  19.6582527  79.2027969  37.6506386  19.0260677  79.3987808
  80.1070328  19.1286469  38.0671349  79.4383545  18.8627892  38.6983337
  80.9364166  18.9924850  38.5251961   0.3759965   2.4905896  65.6519699
   0.4791560   3.0947857  66.3871841  -0.1203917   2.9873588  65.0015488
  26.6053028  71.2755127  87.4941635  27.4787731  71.3737640  87.8731461
  26.7316093  70.6854935  86.7510910  78.3298798   5.9309921  81.5617828
  79.2741165   5.7757077  81.5850983  78.1505814   6.1810236  80.6553802
  64.8990936  46.8988190  85.6424103  64.3351822  47.5919151  85.9857101
  65.1592178  46.3970490  86.4149323  31.9068184  27.5421143  14.7931023
  31.4453011  26.8829193  15.3114614  32.3398056  28.0969353  15.4418907
   7.3782253  28.2921734  11.2105942   7.7756639  27.4859657  11.5396862
   6.4541802  28.0725098  11.0917673  35.2116814   6.4969964  74.7036972
  34.6826134   6.4130449  73.9104309  35.9673004   5.9302030  74.5487289
   9.9258375  29.1562080  10.6548691   9.0687551  28.7301235  10.6451502
  10.1310997  29.3024406   9.7314434  84.1281509  31.5823631  66.9182587
  83.8499680  30.8216553  67.4283295  83.3575897  31.8195801  66.4023209
  14.7432547  11.1825142  84.7651138  14.4214964  12.0720854  84.9113007
  14.0703211  10.6187096  85.1465836  74.3804474  19.5541267   5.8488169
  74.3587189  18.8208580   6.4636970  74.5655975  20.3186436   6.3942208
  70.9436035  71.0106049  45.4989319  70.0837936  70.7971649  45.1364441
  71.2043457  70.2231598  45.9766045  76.6752777   2.6470511  20.3145714
  76.4949493   2.7634776  19.3817482  76.0669250   3.2425015  20.7522640
  33.7354698  65.3838120  13.8817463  34.4735336  65.1149368  13.3347521
  34.0215874  66.2040329  14.2837515  11.2495089  43.1328087  81.2799377
  11.8676252  43.2684937  81.9981003  11.0406399  44.0153313  80.9737320
  83.8757706  57.0689240  57.9481277  83.9470444  56.8316765  58.8727150
  83.5331345  56.2818604  57.5246162  44.6623993  41.0733681  28.0793037
  45.1975708  41.3010292  28.8395615  45.2961464  40.9060516  27.3817348
  77.6299744  56.4709320  35.5368042  77.1897049  55.6643715  35.2687531
  78.2950439  56.6158104  34.8638039  18.0312443  47.8009071  87.0385590
  18.7243862  47.5443726  86.4303055  17.4907799  47.0162582  87.1305161
  36.0405159  27.9844151  12.0710144  36.2030029  28.9152660  12.2238016
  36.2410965  27.8552647  11.1440191  29.3705578  37.5281982  70.9076614
  30.0884819  37.1073456  71.3806305  28.9533482  36.8161926  70.4226761
  51.6588440  20.2314854  65.4048386  51.3917046  20.1224613  66.3175201
  51.7432404  21.1781902  65.2914352   6.8571310  39.6809921  25.5640011
   7.8050747  39.5713310  25.6388969   6.5942936  39.0451012  24.8985767
  32.9918976  41.4954300  28.7785511  32.3984756  42.2430649  28.7069607
  33.6894073  41.6822510  28.1502075   1.5432118  30.4795933  83.9891586
   0.8278397  30.6779175  84.5934296   1.1356301  30.4920177  83.1231613
   0.0497323  65.7694778  82.9545898   0.4652500  66.5869293  82.6800919
   0.7726364  65.1464691  83.0287552  69.8284225  42.3433075  46.9165192
  70.2178955  41.4944763  46.7066917  69.6122284  42.2841644  47.8471069
  65.5887756   1.5227188  11.6709328  65.3610382   1.0513158  12.4722710
  64.7576675   1.8811746  11.3594980  57.3739471  59.0761032  16.5081520
  56.8948975  58.4293442  15.9900322  57.5759315  59.7772675  15.8886347
   8.5473375  54.6807785  25.2319794   8.8119631  55.2890968  24.5419407
   7.6908183  54.9994507  25.5166836  35.8588257  41.9927444  34.7540779
  35.8541374  41.0900764  34.4356422  36.0949326  41.9192886  35.6787872
  70.4757767  62.0830498  66.5111923  70.5200119  61.1269417  66.5227051
  69.5629959  62.2780457  66.2989426  17.0401936  42.2024307  52.9230576
  17.3209953  41.4435654  53.4344330  17.4236984  42.9525986  53.3773766
  85.0639267  62.4264030  39.7427101  85.7558823  62.8171425  39.2090797
  85.0059586  62.9929886  40.5120316  22.1365318  44.5961761   5.4481573
  22.2686863  43.8100243   5.9780011  21.2701492  44.4794159   5.0583138
  46.2963638  56.7006416  -0.1329439  45.6287994  56.5474129   0.5357183
  46.8887253  57.3403435   0.2621763  15.0307989  66.8509674  54.5709152
  15.9484148  66.5950928  54.6644173  15.0555182  67.8039017  54.4841461
  80.8612442  11.1100683  77.9274292  80.1708374  11.3167973  78.5573807
  80.5985413  10.2699938  77.5512695  10.7042942  68.5163269  27.7226028
  10.4113007  68.8662338  28.5639992  11.4490614  69.0667572  27.4805660
  47.6019554   7.0512662  51.2752571  48.4748764   7.2419224  50.9319115
  47.1511574   6.6129923  50.5535011  31.6514015  13.4347963  10.8974762
  31.0834293  12.7229395  11.1922646  31.0758018  14.1983976  10.8547001
  76.6556931  69.9140472  42.8583374  75.7872009  69.5199356  42.7769279
  77.0455017  69.4800034  43.6172104  66.3257599   0.8128351  71.5000916
  65.6084442   1.2466866  71.9621201  65.9266281   0.0310537  71.1183243
  72.7378693  67.8756561  85.5637894  73.5264969  67.4186478  85.8561020
  72.3644104  68.2447510  86.3641129  24.4150257  60.2328072  52.4389038
  23.9063816  60.7360954  51.8031235  24.9555664  59.6499634  51.9056664
  55.9944038  45.9175339  65.5018539  55.0878601  45.6248856  65.5955124
  55.9899330  46.8183556  65.8254776  16.9547024  18.9028454  65.6151428
  17.2723446  18.1168957  66.0596924  17.5701046  19.0354137  64.8940811
  54.3403816  27.3375340  20.5124149  54.4037476  28.1781902  20.9657516
  54.5318222  27.5437660  19.5975094  86.4813843  20.6802311   4.9944873
  85.8095093  21.1147900   4.4691620  87.1879883  20.4967422   4.3753910
  82.7877731  18.1756020  36.5426292  81.9451675  18.0617638  36.1029854
  83.2539978  18.8156242  36.0048256  14.7536440  47.2890167  85.7784424
  15.3903265  47.2369041  85.0655975  14.7728367  46.4206467  86.1806870
  63.2957077  43.3500786  55.0173073  62.9938393  42.5810776  54.5338402
  63.7741394  42.9906960  55.7644234  71.7519608  51.4362373  17.3343868
  71.6274643  51.2799606  16.3982716  71.0129700  51.9905701  17.5850372
  40.5662689  24.3309593  22.8371601  40.5215263  25.1954556  23.2456646
  39.8266945  24.3145256  22.2297134  60.1848412  61.4924889   4.1098108
  59.7425919  62.3375969   4.1900697  59.4837875  60.8462906   4.1945691
  75.6578369  27.7811298  13.9042673  75.1599503  28.3062916  13.2777281
  76.3527069  28.3653526  14.2076883  79.6995087  61.0190430  13.5819283
  79.9123459  60.6294823  14.4299688  79.6934967  60.2800217  12.9736166
  80.6596985   5.5540762  24.5831413  79.9537430   5.0653887  25.0062675
  80.3216095   5.7562814  23.7107658  78.9514160  13.0931911  41.6679192
  79.3237686  13.9166765  41.3525467  78.0943069  13.3363619  42.0178719
  66.7333374  37.7848473  53.0634155  65.8167038  37.9340706  52.8315811
  66.7087708  37.5308113  53.9859619  60.2773590  70.5998001  79.3969193
  60.4460144  69.8868408  80.0129395  59.6659050  70.2276382  78.7614288
   5.2717009  47.2259216  58.5442581   5.7711940  46.4708023  58.8549614
   5.3601499  47.8751526  59.2420425  20.7396069  59.4414558  81.7440643
  19.8711967  59.6546669  81.4025345  21.2816544  60.1938591  81.5067825
  12.3551865  47.1627045  61.9216347  11.4826345  47.5443077  61.8253822
  12.4213572  46.9479103  62.8520737   6.8156886  44.6129303  38.5612259
   5.9246120  44.8283615  38.8365517   6.9323978  45.0850983  37.7368050
  67.0321503  55.3661957  40.1652985  67.6234131  55.7210197  40.8291779
  66.5522308  56.1279411  39.8402557  27.9085674  63.3024788   7.4065976
  27.8332081  63.1971130   8.3549910  28.4968796  62.5985680   7.1334057
  59.7075882  61.2528763  36.2895966  60.5805244  61.0167313  36.6033669
  59.8692055  61.8422661  35.5528908  61.3461800  61.2254753  61.6075554
  60.6304932  61.0637970  62.2222786  61.4550896  60.3956032  61.1431389
  74.8118515  26.0347576  85.8169174  74.2050934  25.6187611  86.4293137
  75.4769135  26.4376221  86.3751526  64.4460068  31.4534779  54.6825142
  63.6096115  31.3488522  55.1360893  64.3161774  32.2114029  54.1124916
  71.1146622  44.1142311  73.0417480  71.4169693  44.9539337  73.3877869
  70.1986542  44.2666817  72.8095322  54.9288483  58.2742882  77.6606674
  54.5893097  57.8456650  76.8750305  54.6679268  57.6984673  78.3794022
  17.5338593  29.1335258  15.2064209  16.9254990  28.4018612  15.1025190
  18.3474579  28.8272724  14.8057985   9.0976982   2.0490146  27.6575241
   9.0557556   1.5457754  28.4706802   8.9116192   2.9495521  27.9233036
  16.5778961  68.7807465  11.4017849  15.9944744  68.9051590  10.6532049
  16.0219669  68.9312363  12.1663303  74.9098053   0.4065892   7.2751021
  74.6334991   0.0494121   6.4311171  74.5622482  -0.2085722   7.9208660
  26.8881702  56.6556168  25.0539474  27.8421421  56.5923004  25.1004276
  26.5891247  56.4144325  25.9306660  30.3285446  31.8092403  85.7903976
  30.1997757  32.4813614  85.1211395  30.9389038  32.2047386  86.4127121
  81.0729828  43.9926567  58.2819824  80.5798340  43.4406509  57.6750832
  81.9247360  43.5627060  58.3586960  68.4119186  10.8348589  61.9422836
  68.8903885  10.9210005  61.1177330  68.0141220  11.6946316  62.0793152
  66.2075958   9.2539186  47.6361275  66.4228821  10.0710621  47.1865044
  66.6118698   8.5718050  47.0999184   2.7282684  64.4327011  66.8342590
   3.5447762  64.3202972  67.3209915   2.2638450  63.6038895  66.9509125
  20.5982761  20.9374161  75.9799652  21.5167809  21.0566578  75.7383881
  20.4261227  21.6309986  76.6167908   2.7299416  53.6894875  29.2817173
   3.0704429  52.9637642  29.8047981   1.9277555  53.9537010  29.7321835
  47.6523170   2.0229542  69.7265244  47.8454819   2.2364655  70.6393967
  48.3381805   2.4656727  69.2267075  10.0940723  65.8986511  21.3752975
  10.3537226  65.5244751  22.2172050  10.8292761  66.4581146  21.1248894
  55.4654274  66.4159088  27.7742462  54.6206703  66.8411331  27.6265907
  55.5806961  66.4356384  28.7242756  31.3835735  59.4984665  33.9315453
  31.8463936  59.5408783  33.0947495  31.2349529  60.4135742  34.1697006
   6.0253677  71.0236969  40.3363991   5.9040074  71.5110855  39.5215645
   5.8811579  71.6711426  41.0265045  58.9138641  50.4852333  52.9714622
  59.7067528  50.2772408  52.4772034  59.2237968  51.0025253  53.7148209
   9.7080460  66.4929199  26.1578770   9.3843336  66.8609772  25.3356991
   9.9693098  67.2548828  26.6749630  31.3793583  64.8604050   6.1829247
  30.4955826  65.1325226   6.4301577  31.5924072  64.1548843   6.7937303
  36.2795105  42.9810867  76.6243134  35.9304237  43.2965927  75.7907562
  37.0215569  42.4282837  76.3793564  74.6918869  50.9303284  67.8128204
  74.2143326  51.6414680  68.2399673  74.2994385  50.8674316  66.9420395
  71.6853333  13.0150404  84.6789932  72.3782883  12.7329750  85.2760620
  71.6242905  13.9608889  84.8126984  74.4486694   2.0740314  25.7229137
  74.7379913   2.9432333  26.0004215  73.9998322   2.2252431  24.8910999
  15.4790535  63.8295326  73.4640121  14.8113680  63.5980530  72.8183823
  16.2031975  63.2296028  73.2853241  23.4502125  67.1997147  25.2983437
  24.3755665  67.4368896  25.2374897  23.2026482  66.9692307  24.4028988
  76.6242599   7.6006188  28.2512932  76.1795197   8.2203369  28.8295612
  76.4947586   7.9576154  27.3726501  35.0431290  61.6761284  62.7144547
  35.2756882  61.0875168  63.4325676  34.0997810  61.8080864  62.8088684
  63.9190483   6.1789784  70.8495483  63.1402016   6.0833564  71.3977203
  63.5765762   6.3976150  69.9828644  56.0573578  24.6711617  60.1055374
  56.9755402  24.9415970  60.0993233  56.0543938  23.8232651  59.6613579
  61.5795708  59.5571632  72.6866302  61.8551865  58.6457939  72.5883026
  62.3903122  60.0613365  72.6177597   1.3331839   8.0779409  60.2651520
   0.7266590   7.4597864  60.6728821   2.0267096   8.1964254  60.9141617
  77.3649750  27.2668991  59.0138435  77.3908615  27.4098320  58.0677299
  77.3544769  28.1474934  59.3889122   4.2063375  33.8235321   4.2958908
   4.6977491  34.6391487   4.1983447   3.9282818  33.8195152   5.2118058
  70.9392548  46.2665024  85.4098969  70.0063934  46.3942337  85.2375946
  70.9672394  45.5937004  86.0901794  46.7165642  47.0847511  39.1496162
  46.2514076  47.8875237  39.3850136  46.9529839  47.2058105  38.2300072
  16.7612457  39.9317780  27.5717545  16.4519157  40.0558090  28.4690647
  17.2160244  40.7470741  27.3603382  74.7137985  38.1863098   7.1028695
  74.5166168  38.2658463   8.0361567  73.9617004  38.5842209   6.6644111
  14.8948383  27.3047199  33.8152847  15.0194693  27.0997963  34.7419472
  14.0015602  27.6446819  33.7631989  37.8105659  60.2688484  75.6199112
  37.0220528  60.1931381  76.1572647  38.3110962  60.9757462  76.0273361
  44.7284470  61.7348366  22.6991463  44.2941284  62.5826263  22.7932644
  44.1875038  61.2570992  22.0703564  19.9529095  37.1829605  17.1457367
  20.8083935  37.1459274  17.5735302  19.4491215  36.4802933  17.5564480
  85.3540802  19.8174629  68.1082153  86.0388107  20.4830055  68.1747742
  84.6046982  20.1981792  68.5661621  54.7679138  13.2897778  59.7195091
  54.5208855  12.7040462  60.4351387  55.0342484  14.0999355  60.1541862
  41.1925392  60.5777893  42.7407951  40.4068413  60.0310745  42.7437210
  40.9127884  61.3969841  42.3322754  31.2644939  44.0923576  13.4504852
  31.5130901  44.6764145  12.7340288  31.4824924  43.2164040  13.1320372
  54.9442444  45.4137802  10.8797846  55.7305260  45.5582504  10.3533592
  54.8334808  46.2266579  11.3729334  21.5252552  50.1256943  12.9572020
  21.1992836  50.9258537  13.3691721  22.4611835  50.2839699  12.8338423
  26.3619003  59.8052139  50.2711449  26.4784431  60.4442558  49.5681000
  26.9430332  60.1080627  50.9688568  76.7106171  43.6187744  78.2097397
  76.6482391  42.6805420  78.3888092  76.1884842  44.0293770  78.8989563
   6.9783044  64.8087540  10.0524416   6.8367105  65.6632767  10.4598417
   6.2191443  64.2888718  10.3163109  81.6520844  59.2655983  68.6049805
  81.9204941  60.0759468  68.1719437  80.7258530  59.1707764  68.3828659
  49.2287788  68.8254700  68.1768875  49.0718994  69.6240997  67.6730957
  48.7782974  68.1392899  67.6844788  74.8485413  55.2388000  53.8841972
  74.3280563  55.4246063  54.6657372  74.5880890  54.3541489  53.6277161
  78.0365982  24.2448597  81.9607315  77.4121857  24.9211655  81.6981354
  77.9130096  23.5434532  81.3212051   8.8122206   0.9096007  15.9213533
   9.2562885   0.3679849  16.5738010   8.0230989   1.2204337  16.3650913
  58.9296761  32.6816597  67.6349640  58.3483162  32.5047073  66.8954086
  59.2148590  31.8161507  67.9278717  16.0195560  40.1034622  13.9958506
  15.1433201  40.2462959  14.3536797  16.0083313  40.5501747  13.1493549
  18.1836185  58.0220947  51.9631271  18.9586163  58.5798759  51.8961411
  17.4723701  58.5569611  51.6106033  25.5127716  56.0024414   2.6600118
  26.2475548  56.4688644   2.2615490  24.8088398  56.6500931   2.6954103
  39.3935242   0.4691286  35.7887535  39.8063316   1.1772504  36.2831078
  40.0931244  -0.1708449  35.6575050  61.2499466  60.7985458  86.6501846
  61.2061882  61.7236023  86.4081345  60.3473969  60.5647087  86.8668671
  85.3252563  23.1514206  59.5821495  85.4477844  23.3802052  60.5034943
  84.7464218  23.8331833  59.2410011  16.5695000  17.8066101  54.5821877
  15.8792553  18.4608345  54.6907463  17.0651894  17.8434200  55.4002151
  37.4260178  56.2233200   8.8740444  37.0937614  56.1020584   9.7635002
  37.7885475  55.3701744   8.6354017  83.1985092   4.2680750  78.1991501
  83.7939072   4.5261426  77.4954910  82.7421494   5.0757432  78.4350281
  41.8153954   6.0664587  70.8536072  42.5497475   5.4537005  70.8921814
  41.9432220   6.5421233  70.0328522  86.7451019  57.6197433  87.0110779
  86.8348846  58.4458847  86.5360336  86.3475723  57.8657303  87.8463516
  42.0526390  50.7302666  56.9617424  41.7942162  51.1209602  56.1269913
  41.7372513  51.3467636  57.6225662  21.5673771  43.9077377  58.8823776
  21.9609528  44.3785934  58.1477852  22.1040955  43.1209221  58.9776993
  60.5122070  58.9826202   9.6921206  59.7618523  59.4548340  10.0529661
  61.1340485  59.6693001   9.4512491  38.7849579  26.3506298  88.1083984
  38.6306381  27.2126007  87.7218399  39.7344208  26.3051395  88.2210083
  60.0141487  56.4075584  18.3443260  59.3572617  55.8570557  17.9180927
  59.7923317  57.2984314  18.0734482  12.3414621  37.2496262  62.6782532
  12.4865532  36.5498009  63.3149834  11.6220894  36.9316902  62.1326790
  64.3593369  40.5918159  83.3938446  64.8330536  41.3736382  83.1099777
  64.0266571  40.8157234  84.2629929  40.0561523  62.2727585  81.3503647
  39.3310356  61.6910362  81.1222458  40.8229065  61.8715057  80.9413223
  75.7304535  25.4396687  55.6293297  75.0842209  26.1235981  55.4536629
  75.6660919  25.2857380  56.5718765  68.1172104  21.5770493  52.0983047
  68.3595810  22.4669533  52.3543510  68.1290665  21.5915508  51.1412888
  27.9669285   8.4537048  78.0663757  27.4083271   9.0909786  77.6213150
  27.5505581   7.6090803  77.8946838  71.9840240  45.8004837  34.3699074
  72.5162048  45.1054077  33.9827614  71.4111557  45.3471947  34.9884377
  58.4350281  25.5808678   8.2761316  59.0005646  25.8972073   7.5716257
  58.9167061  24.8476200   8.6589708  71.7195511   1.0204139  67.7779922
  71.8658066   0.1394152  68.1224976  70.7781754   1.1629381  67.8766251
  74.2421036  12.9728298  73.7961197  74.8505783  13.5160456  73.2952118
  74.6555939  12.1098843  73.8202591  61.5485954  18.3584538  43.5238876
  60.8456688  18.3575459  42.8741760  62.3496552  18.4604168  43.0099411
  49.2899170  -0.0029407  75.8164673  50.1414261   0.3370828  75.5416183
  49.1330605   0.4042722  76.6684113  50.9408264  56.6367111  10.7166824
  50.7769051  55.6967621  10.7931890  50.1797409  56.9749489  10.2449083
   7.9057021  20.4082851   1.6904026   7.8603840  20.3117619   2.6416447
   8.8189306  20.2203026   1.4738227  32.3650970  32.8765869  19.0336075
  32.9668541  33.2510605  18.3902626  31.5706692  32.6848183  18.5352707
  76.6960602  44.9668427  63.3160477  76.5963593  44.4534874  64.1177673
  76.5847015  44.3311119  62.6091690  60.1667328  47.9655075  80.5720291
  59.4402504  47.3485184  80.6602554  60.3018188  48.3045616  81.4569168
  17.2760963  14.0049973   2.2279639  17.4747334  13.4563942   1.4691427
  16.6974678  13.4665718   2.7678876   2.7238297  52.7460251  85.7195282
   2.2911060  52.4375076  84.9234161   2.4618971  53.6636543  85.7942657
  24.1862984  63.7350731  26.7504940  23.3759670  63.7508430  26.2412338
  24.1237087  64.4989395  27.3239212  56.4235268  41.2219772  22.3825378
  56.6704025  40.5401688  21.7577019  55.4675446  41.2488365  22.3424301
  23.9866753  22.7009850  18.4649563  23.7011719  23.6137428  18.5048618
  24.3159599  22.5918121  17.5728321  84.9419327  51.0175896  76.3037796
  84.2702255  50.8000984  76.9501038  85.5605316  51.5725784  76.7787094
  55.2366676  14.9706774  34.3370018  55.5945473  15.7080374  33.8425789
  54.2879372  15.0589705  34.2456474  39.3482513  12.9146032  82.5166016
  39.2537766  13.8654976  82.5723343  40.2118759  12.7822227  82.1256256
  18.7177353  23.7551250  29.4900894  18.2695484  23.2062492  30.1335907
  18.8370724  24.5950661  29.9333630  84.4062424  66.6077728  52.8404198
  84.9878006  66.5548477  53.5988541  84.7886658  66.0048981  52.2028236
  82.8592606  61.1013031   4.6337180  82.7963104  62.0107689   4.9255037
  83.6656342  61.0702057   4.1189032  71.6680374  13.0768461  65.7509384
  71.7216568  12.1471062  65.9721603  71.3484116  13.0903368  64.8487854
  82.9004745  37.5029564  63.1110077  83.1249695  37.7704697  64.0022278
  83.6081619  37.8536339  62.5702362  79.1151581  41.3970833  47.0729942
  79.6310730  40.5929832  47.1320648  79.6683578  42.0007095  46.5771751
  57.6575356  15.3004789  85.2306671  58.5383949  15.0852642  85.5372620
  57.4463844  16.1251163  85.6684113  83.6360092  17.5643101  17.3632488
  84.3575134  17.1543560  17.8403320  84.0091858  18.3734760  17.0136490
  63.6635551  53.6562462  75.8034668  62.7587318  53.8286057  76.0638885
  63.5881805  53.1783524  74.9775391  33.9866142  57.3379364  11.2493925
  34.4583015  56.5316048  11.4581242  34.5270309  58.0347710  11.6216936
  61.9892578   7.1946802  79.8605042  61.5993080   7.5239186  79.0507050
  62.4389877   6.3907986  79.6002121  13.2759104  54.7622757  59.1550179
  13.1116571  53.9110031  58.7493248  13.2126055  54.5956154  60.0954666
  25.1630325  40.3682251  40.5793533  24.5622349  40.6807175  41.2558327
  25.9495220  40.1082764  41.0590324  34.6912155   6.3834815   1.8285193
  35.0441551   7.2225652   2.1244984  34.1544189   6.6045046   1.0674479
  45.0873489  43.8443336   1.7199640  45.9185677  43.4761200   1.4204221
  44.7318726  43.1822205   2.3128178  11.4237804  56.5159187  13.6780834
  10.6225462  56.9778328  13.4313259  11.8511181  56.3159409  12.8452435
  44.8269615  54.7897835  76.6814804  45.0440979  53.9064064  76.3835983
  44.7715721  54.7144699  77.6341019   2.2815032  10.5646276  66.4818420
   2.8177981  10.0405159  65.8869247   2.8862073  10.8376732  67.1717758
   7.9883990   5.1899171  14.3402071   8.5579271   5.9453259  14.1945114
   8.5865803   4.4810376  14.5766411  29.8785496  42.2724800   4.8752165
  29.0330410  41.8326302   4.7864323  30.4658947  41.7804832   4.3014598
  69.5574875  65.7858124  58.4935112  69.2719116  66.6479797  58.7957382
  69.8552780  65.9332199  57.5958328  34.2365952  42.9710159  32.3177452
  34.1274529  43.9084091  32.4777946  35.0647163  42.7500954  32.7439346
  82.8765259  29.9770432  10.1932545  82.6743088  29.0572166  10.3643122
  83.3707657  29.9652061   9.3736086  86.3397217  33.4378662  48.8849678
  86.8848724  33.7893372  48.1810417  85.9283676  32.6617622  48.5045815
  66.7818375  32.8377533  12.5244846  66.1902924  33.1795616  13.1949167
  66.4200668  33.1600990  11.6989851  53.1170425  41.0525780   8.3012428
  52.7336311  40.2941170   8.7416611  53.4878540  41.5787621   9.0096636
  41.7262917  25.7163963  87.7958298  42.3954239  26.3816051  87.9570389
  41.7490273  25.5783653  86.8489075  39.2535057  43.6343384  29.1348419
  39.4155846  43.1931648  28.3009777  38.4718628  43.2063675  29.4842777
  61.4317894  34.5335808  73.2812042  62.1137428  35.0532913  72.8556747
  60.7498016  34.4424820  72.6157532  11.8938036  44.3884735  29.6034832
  11.1033688  44.2249413  29.0889912  11.5745869  44.7885590  30.4123497
  12.6325769   6.9099970  73.4118271  12.2511940   6.0751009  73.6833572
  13.3532648   7.0547738  74.0249252  39.9255791  24.6796169  81.9653854
  40.5858765  25.3565006  81.8168182  40.4117241  23.9517059  82.3527374
  81.4065170  64.4973755  83.5618210  81.7781143  63.8451347  84.1557312
  80.9149857  63.9845963  82.9201965  49.7423477  47.3167076  58.4610977
  49.2238159  47.4220123  57.6634369  49.5368347  46.4327469  58.7654114
  31.4062004  18.1551781  78.8388977  31.3962746  18.0415077  79.7892761
  32.2958641  18.4483929  78.6420288  75.0252609  33.2988701  47.8120308
  75.5444946  33.1341476  47.0249519  75.3276138  32.6428337  48.4400711
  12.7218847  56.0854683  84.0336761  12.2134304  56.8918152  84.1203308
  12.8158388  55.7640266  84.9303818  12.8845253  25.3114834   6.3525600
  13.7555094  25.6850967   6.2182803  13.0478554  24.3910275   6.5582700
  27.3313179  28.3522282  75.5172119  26.5967903  28.4422207  74.9100876
  27.6727982  29.2412491  75.6134720  75.1330490  31.9776440  80.7577820
  74.4100876  31.4973850  80.3541641  75.4706573  32.5356216  80.0571289
  75.8166809   0.2211390  52.8739700  75.5698166   0.2350803  51.9492531
  76.6814117   0.6309366  52.8972244  65.0728149  37.8403969  80.3993530
  65.3479462  37.1920662  81.0475845  64.2237930  37.5245361  80.0901260
  41.1012306  37.0360756  77.3610153  41.4225426  37.4530411  76.5615616
  41.5126266  36.1717911  77.3623505  74.3798218  42.9136200  10.7076788
  73.5101395  42.7039375  10.3672056  74.7647095  42.0636597  10.9213667
  46.1113434   3.3765645   7.7187071  46.0711288   2.4304426   7.5791788
  45.9392014   3.4883182   8.6536455  52.7246857  58.6095581  80.3444519
  52.2898903  57.8967514  79.8763809  53.1903954  58.1770935  81.0602188
  21.6021748  40.8835106  36.8629799  22.1302776  40.9946404  37.6535454
  22.1895103  40.4540749  36.2410049  38.2573967   8.2257938  86.2682877
  39.2102737   8.1557798  86.3262253  38.0990028   8.6443529  85.4221420
   3.4826951  63.7945290  52.9259758   4.1501327  63.7467651  52.2415199
   2.7563415  64.2673187  52.5196381  62.7957573  39.0223732  56.6667557
  61.9282532  38.9855766  56.2638741  63.0069733  39.9555283  56.6957741
  85.4699860   0.8959435  58.3361435  86.1094437   0.6071234  58.9872246
  85.0826874   0.0856641  58.0049629  29.2038326  52.9796104  77.8899155
  28.7770596  52.8886757  77.0379562  29.6329002  52.1361961  78.0341034
  19.6935673  57.2248497  88.4555817  19.3626060  56.9829063  89.3205414
  19.7216492  56.4000969  87.9705811  34.8690376  42.5955353  59.8162079
  34.0111084  42.2153893  60.0051079  34.7399597  43.5388641  59.9147034
  65.2232590  64.3185272  41.1190071  65.6735611  63.4894753  41.2806778
  64.4155884  64.2557983  41.6288719  74.5229492  25.6334114   4.1494527
  74.9691238  24.7869282   4.1745558  74.1402969  25.7284260   5.0216808
  24.5170269  35.6381645  61.3636131  24.6205196  34.6891937  61.2930489
  25.2617378  35.9215279  61.8940315  51.3404388   3.4016540  44.9345818
  50.4544182   3.0459037  45.0026817  51.8991203   2.7293005  45.3245125
  55.0528755  15.3168335  65.0173645  54.2005005  15.2015896  64.5973511
  55.5320816  14.5143604  64.8108902  82.4183578  31.6607037  31.8318901
  83.2858200  32.0085030  32.0387077  82.5642166  30.7265472  31.6825237
   4.6279292  28.8827820   6.2004962   3.7799211  28.4748020   6.0253773
   4.6223879  29.6822014   5.6740661  11.5812235  30.6096783  87.5610504
  11.8551245  30.7741566  88.4633560  10.7768478  31.1182861  87.4584351
  58.8103943  12.8870668  75.9128342  59.6307182  12.4899826  75.6202240
  58.9375420  13.8262043  75.7783508  86.1942139  20.9882088  12.3809614
  87.1374130  20.8725224  12.2659435  85.8032303  20.2557068  11.9047232
  78.0054169  36.1437569  85.0634766  78.6440811  36.6638374  84.5757751
  77.6093826  36.7636337  85.6759720  83.1086121  25.9756927  18.6756420
  82.7336960  26.2783527  17.8485603  84.0460358  26.1501274  18.5917320
   6.5908308  42.1864662   5.3673716   6.4344258  43.0531731   5.7423248
   6.1105399  41.5878181   5.9393640  12.4931984  40.0862160  61.3841362
  13.4155264  40.0838661  61.1281319  12.3838358  39.2829208  61.8930435
  55.4543571  13.4804459  85.0972214  56.2295227  14.0400381  85.0502319
  55.3089066  13.3509436  86.0344009  79.6314392  38.0560951  21.0668392
  79.7514877  37.9648781  20.1215878  79.6165466  39.0014420  21.2162609
  36.4558830  46.7398987  66.3239212  36.8657875  46.0960045  66.9015045
  36.6667061  47.5854301  66.7199707   3.0430672  30.4030933  59.5873108
   3.8910804  29.9707565  59.6882591   3.1393983  31.2318649  60.0564461
  15.9302101  22.4072723  82.3013458  15.1089468  22.8878422  82.1973648
  16.5201855  23.0302505  82.7256775  62.8916817  14.6439571  12.6614065
  62.2904472  14.0548773  12.2056284  63.5216331  14.9087877  11.9911375
  82.3787460  32.9607086  65.0600510  81.9518814  33.4701271  65.7488937
  81.6693878  32.4584351  64.6590958  50.4860954  53.3702087  55.7040291
  50.9670868  53.2633781  54.8833771  50.4225311  54.3178864  55.8227692
  71.8625793  65.5624390  48.3346748  72.0499878  65.8828964  47.4523926
  72.5133514  64.8764725  48.4836006  58.0630531  29.7024021  42.7638092
  57.2955513  30.1073055  43.1678200  57.7372017  29.3409958  41.9395294
  67.5922928  31.3668041  28.2148838  68.4407196  30.9308586  28.1351795
  67.4484711  31.4403057  29.1583595  81.2359467  38.2639580  29.5373039
  80.6355286  37.8133278  30.1311550  81.9536285  37.6442184  29.4065895
  17.8453121  13.7925396  18.9236736  18.1385727  14.5330563  19.4545822
  18.2252121  13.0254250  19.3519764  13.7364874  65.1751480  62.0843773
  13.5123491  64.8941422  62.9715271  13.9798412  66.0960312  62.1791267
  47.7468834  23.3998661   9.4779549  48.5751190  23.5089741   9.9452381
  47.4166183  22.5505886   9.7710142  15.0240192  61.2471657  77.9721451
  14.8551331  60.8048630  78.8040619  14.2758875  61.8328819  77.8560944
  10.7556057  30.7000046  13.0515957  10.0933466  30.3916626  12.4330730
  11.5242853  30.8789845  12.5099964  79.8131943   7.5300732   7.5330348
  80.3309631   6.7264414   7.5812392  79.8597031   7.7901344   6.6130147
  82.7078705  54.2529106  56.7501869  82.5097122  53.4173279  56.3273735
  83.4779968  54.0719681  57.2890701  67.4043732  11.4980659  36.8365822
  67.8135681  11.1022377  36.0670929  66.9051361  10.7854805  37.2355957
  15.5280724   6.0143538  28.2327061  14.8099709   6.4037790  28.7316151
  15.5849609   6.5469131  27.4393749  22.6245613  57.4201050  82.5731277
  22.8835220  58.1343651  83.1553650  21.7809772  57.6967163  82.2152405
   6.2326145  50.3584518   6.4300132   6.7627888  50.7480659   5.7347803
   6.0117249  51.0928116   7.0028648  14.6813040  43.7476807  42.0321426
  14.4135437  44.6627922  41.9478645  14.3543949  43.3282013  41.2362785
  38.6715469  40.7816124  64.2742920  38.7168808  40.5013084  63.3601761
  38.1665497  41.5944214  64.2508087  50.8201866  32.3500404  73.7821960
  51.4533310  32.0984459  73.1098404  51.2204895  33.1019630  74.2187729
  37.6913261  49.6420288  19.9293766  37.5517006  48.7500458  20.2473392
  37.7954826  50.1658974  20.7236977  31.7472744  12.1224079  34.0535469
  32.6299095  11.8515549  33.8009109  31.2158871  11.3328915  33.9509621
  84.3755875  51.5892296  49.4467316  85.2386932  51.2443886  49.2178993
  84.3489227  52.4560966  49.0416832  55.0197830  22.6526260  79.3261032
  55.7779198  22.2839851  79.7795029  54.9427299  22.1324024  78.5263214
  44.0344238  17.9865341  23.2490311  43.2529106  18.3524284  22.8347912
  44.4801674  17.5151901  22.5451984  29.7378941  50.9541969  64.1893234
  28.8189640  51.1879539  64.0583496  30.2224579  51.7442398  63.9500275
  73.7350616  18.7643719  53.9098473  74.5238953  18.6750202  54.4446259
  73.7121964  17.9664841  53.3815651  79.5350647  63.9032745  57.0775223
  78.6111298  64.1434326  57.0075188  79.5681381  63.2898407  57.8115730
  65.4552002  68.9427719  66.9227524  66.4112549  68.9555283  66.9678802
  65.2607880  68.8343811  65.9917908  14.2328930  63.8336830  76.1415100
  14.6580658  63.8955612  75.2861557  13.5994501  64.5512848  76.1465912
   8.7945585  67.8232422  75.3966446   8.8830509  67.5705643  74.4776459
   8.1397982  67.2203445  75.7488327  49.6771355  26.1889935  89.1780472
  48.9767838  26.7077904  88.7823334  50.4838333  26.6146507  88.8877335
  86.0736313   9.8006659  43.6043320  85.4802628   9.4598541  44.2736588
  85.5072174   9.9907999  42.8564949  78.2344742  35.7512283  50.2871857
  78.8488464  35.4826393  49.6040802  78.7909851  36.0654755  50.9997635
  60.1787033  29.5599728   6.3820944  60.5825844  29.8938084   5.5810533
  60.7692795  29.8383389   7.0820704  19.8300743  46.4752579   8.4939165
  20.0834389  45.6184273   8.8372517  19.2708149  46.2765312   7.7429371
   0.3964459   0.7766982  52.2675819   0.8382419   1.4724807  52.7543411
   0.1553162   0.1337670  52.9344597  12.1773272  22.6155415  52.7675934
  11.5870533  23.3610649  52.8771591  12.8343649  22.7272701  53.4546547
   9.4000368  70.9776993  70.6426468   9.6828251  70.8868637  69.7326889
   9.5903397  70.1272736  71.0386200  59.1945572  48.4297028  39.2990761
  59.2254181  47.7027855  38.6770897  59.8071785  48.1793633  39.9906387
  66.2110748  44.9676743   2.0375335  66.1338806  44.8677979   2.9863737
  67.1507645  45.0633507   1.8824333  63.2886467  16.6743450  79.3935165
  64.1715622  16.9003639  79.6861115  62.7370071  17.3812447  79.7285080
  31.8769169  16.7289734  14.0378017  32.8124123  16.8392735  14.2078333
  31.5441303  16.2773609  14.8133860  18.2185555  61.6386528  83.2798920
  18.0915413  62.5570984  83.0420761  18.2055416  61.1710014  82.4448090
  16.6532516  59.7777367  75.3049088  16.3270950  59.4641228  76.1484070
  16.7273865  60.7257767  75.4142532   0.2996229  55.8696632  74.0078888
   0.1983539  56.2587624  73.1392212   0.6873720  56.5656929  74.5383835
   4.1932368   0.9860464  29.8441772   3.3184550   0.7703418  29.5209751
   4.1536131   1.9231217  30.0353622  83.4930344  63.8029327   1.0124220
  84.0597687  63.6142426   1.7603765  83.7684479  64.6704330   0.7160657
  66.8994827  17.1747437  34.0475082  67.4851761  17.7892056  34.4898148
  66.3260880  16.8488369  34.7412186   3.3499756  15.2970877  75.9269638
   4.1222148  15.5763950  76.4187622   3.6992931  14.9704227  75.0978088
  57.2572746  28.9366360  29.0228996  58.1696968  29.1512547  28.8288403
  56.7813530  29.1714287  28.2262802  16.7345848  49.4271431  53.8812637
  17.2912292  49.9438820  54.4638062  17.1766453  48.5806313  53.8161926
  68.1368713  53.8373108  76.7270584  67.1834488  53.9052734  76.7781677
  68.4440536  54.1275139  77.5859299  73.0477829  70.3484192  62.8377914
  73.5789413  71.1123276  62.6129761  72.8904114  69.9114227  62.0008354
  40.3536415  41.8905525  15.7834311  39.5345383  42.1083336  16.2282639
  41.0239487  41.9735794  16.4616833  78.4853058  67.9670868  36.8050423
  77.9635010  68.4206696  37.4670219  78.7297745  68.6517029  36.1823311
  12.4641876  68.9374466   3.7994452  11.8978424  68.1668091   3.7593510
  12.1888132  69.3960190   4.5932412  67.2737656  52.3366776  85.1683044
  66.7774887  52.1865425  84.3636932  67.7975845  53.1164932  84.9846420
  37.1736526  42.1885452  10.8672485  37.6834946  42.7507896  11.4504919
  36.3127823  42.6049271  10.8253126  13.8492756  39.2806587  27.5156574
  13.4627991  40.1337624  27.7133560  14.7301474  39.3247795  27.8876095
  30.0058746   8.8150511  16.0674229  29.1428013   8.4082937  16.1441193
  30.6175499   8.0788584  16.0570965  55.7192955  54.5618439  39.0851059
  55.8430519  54.0046730  39.8535271  55.1389961  54.0577393  38.5146980
  68.9572067  42.6943817  71.7784958  68.5344467  42.0713539  72.3695526
  69.0095062  42.2328644  70.9415436  36.1431313   3.3238358  63.6439705
  35.8039589   2.6991472  63.0029068  35.3995667   3.8940845  63.8393135
  16.1010704  65.2188263  60.3227386  15.4413519  64.8603058  60.9164314
  15.6372700  65.8958588  59.8300438  50.6684952  17.2316170  60.3170052
  50.4388657  17.5594311  59.4474983  49.9418907  17.5065193  60.8762054
   5.6911564  31.8923073  75.9842453   4.9573526  32.0694160  76.5727997
   5.5843749  32.5226822  75.2718887  28.9842834  65.6695938  69.4638290
  28.3430119  66.1396942  68.9309082  28.8936710  66.0491638  70.3378754
  60.2624474  38.4646873  40.2486877  60.5027618  37.5755234  39.9881668
  60.9467316  38.7270546  40.8644409  67.3999557  69.2991486  20.9833527
  67.0358810  69.0127335  21.8209972  67.6774902  70.2019196  21.1389675
   5.3613515  42.6368141  60.5932732   4.7144580  41.9536247  60.4171715
   5.9320054  42.2594833  61.2627563  39.0532036  62.2039375  19.3869972
  39.8599396  62.1968231  19.9021244  39.1686592  61.4976196  18.7513733
  32.8145180  38.0677261  81.8790436  32.7152061  37.9626884  80.9328232
  33.7440605  38.2599792  82.0024338   4.5375557  64.9982300  83.0975266
   5.0540633  65.7157898  82.7307053   4.8351464  64.2219772  82.6230698
  57.8876762  61.4947586  76.9670105  57.1323013  61.2000427  76.4583054
  58.5794563  61.6206474  76.3175278   9.2407484  26.3791161  29.7880096
  10.0963268  26.6619835  30.1108189   8.6791258  27.1470318  29.8934422
  39.9184151  55.3549004  24.6685390  40.6142464  55.4204865  25.3225651
  39.1080360  55.4240799  25.1732445  83.8303757  45.6919289  32.1538849
  84.4515762  46.2571259  31.6946564  82.9846191  46.1264572  32.0438538
  66.2719040  25.0053978  74.4110107  65.3809128  25.3078499  74.2352829
  66.5509415  24.5941048  73.5929565  74.2563400  58.1952362  76.8808289
  74.9169312  57.8351364  77.4725800  73.7431335  57.4360313  76.6043091
   9.1160870  35.1197853  53.0721855   9.6825323  34.3915672  53.3272781
   8.3160982  34.9908218  53.5817108  48.7859840   5.5243630   4.1358275
  48.0502586   5.2269235   4.6710587  48.7133827   5.0184112   3.3265233
  82.6259308  60.3985138   8.6231213  83.5006256  60.0132332   8.6750917
  82.2742386  60.0828400   7.7907176  81.7524185  52.7775879  87.0978012
  82.2854233  53.5528564  87.2741547  81.7827377  52.6774673  86.1463318
  56.1172218  48.6594315  65.7629089  55.2462273  49.0435066  65.6624680
  56.6160088  49.3195343  66.2442703  75.0087128  50.1053391  22.3360233
  75.4665604  50.7311363  21.7747917  75.4172211  49.2626152  22.1381073
  81.7175751  65.0794678  39.3715591  82.5266113  64.8677368  38.9058723
  81.0261002  64.6787033  38.8447952  83.1980209  30.2855988   5.6563754
  83.6389008  31.1073589   5.4405875  82.2715530  30.4601898   5.4908085
  52.3923111  12.2116117  70.7848740  53.3117523  11.9832649  70.6480484
  52.0014305  12.1645422  69.9123917  59.9403915  35.4538651  65.0525894
  60.1341133  34.5523834  65.3095627  59.0663033  35.6208534  65.4051743
  48.9173927  65.3443375  80.9474640  48.4008217  64.8161926  81.5561142
  49.8253059  65.1935349  81.2104950  60.0757980  46.0460396  87.9357758
  60.9094238  45.9942627  87.4682007  60.2035065  46.7457848  88.5763016
  84.1054077  71.5149765  36.6961479  83.1796112  71.4336853  36.9253387
  84.1148911  71.5288773  35.7390976  48.2467537  26.3218651  44.0027351
  48.0766449  25.6819248  44.6939430  48.5822868  27.0900517  44.4648361
  71.5025482  34.5470619  70.8731766  72.4047623  34.2898064  71.0630722
  71.4483566  34.5427475  69.9175186  71.8173599  33.6588478  29.5594749
  72.5384064  34.2367134  29.8092690  71.1824875  34.2370758  29.1366119
  82.6315308  25.8519974  42.2717285  82.8131561  26.4788589  41.5715218
  82.7087097  26.3635139  43.0771027  55.8605270  19.4687576  -0.0737158
  55.2514992  19.4351273   0.6639740  56.4005852  20.2404976   0.0965485
  53.8009605  66.8931351  58.4780579  53.6002617  67.7567673  58.1173897
  54.0486107  66.3675461  57.7173653  53.3658218  50.3115730   7.4464788
  53.5720978  49.4982872   7.9071865  54.2190475  50.6810226   7.2190146
   3.1779373  50.4568787  40.6240196   4.0666218  50.8071213  40.6856651
   2.6705906  50.9804382  41.2442741  53.7105026  70.8654404  77.2938919
  52.8327293  70.8135605  77.6721268  54.1383629  71.5719681  77.7776108
   9.4206419  33.9576263  70.7316055   9.0936642  33.0606422  70.6627426
  10.3320141  33.8598175  71.0074081  21.6789684  24.8877907   9.3780870
  21.0997601  25.6493530   9.4059172  21.3240738  24.3424911   8.6759958
  48.8234253   2.3484049  17.3223362  48.1949234   2.3887904  18.0431633
  48.3710175   1.8560208  16.6374130  61.3022690  49.7145691  28.6958332
  61.1178207  48.7890854  28.5355606  61.9641914  49.9433670  28.0433426
  42.6703835  54.9950981  14.9999561  43.1107368  55.6024742  14.4054670
  42.3588409  54.2891388  14.4335680  13.2235308  46.0218391  75.8428116
  12.7576532  46.4218941  75.1085510  12.6804333  45.2741356  76.0922470
  23.9850559  70.1575089  85.6779251  24.7894382  69.6516190  85.5626984
  24.2509480  70.9146118  86.1997757   0.4700176  31.2876472  55.8362579
   1.3701394  30.9622879  55.8238792   0.4856081  32.0570717  55.2670708
  45.4959526   0.2012511  12.5881519  44.7224312  -0.3536339  12.4881525
  45.2550621   0.8271379  13.2711382  51.2459984  39.6683769  40.5840073
  51.9194260  39.8661995  41.2348480  50.5064659  40.2250710  40.8277473
   3.6814795  43.3670120  72.1059875   3.3380623  44.1528969  72.5310516
   4.3815198  43.6885071  71.5378113  43.5324287  57.2623367   4.8974357
  44.2086945  57.9386559   4.8588281  43.7781830  56.7204170   5.6472087
  56.1533585   6.4588885  83.5621643  56.0308647   5.7638125  84.2087708
  56.9814835   6.8713117  83.8078232  25.6367035  55.0533142  18.9155579
  25.3057995  55.5188446  18.1474323  25.9753666  54.2282143  18.5680695
  82.6363983  29.4664268  53.4180870  83.5149002  29.7342434  53.1483879
  82.7349930  29.2105045  54.3351555  80.5253906  55.8059235  52.5486450
  80.2039261  56.4515114  51.9192772  79.7486267  55.5477371  53.0448341
  31.1123924  52.1745911  67.9886551  30.1991062  52.4184113  67.8380280
  31.2790413  51.4710197  67.3614044   3.4879880  65.6196823  43.0330124
   2.5998816  65.9225311  42.8438454   3.9444218  66.3991013  43.3498840
  32.1194916  56.2706337  40.5012054  31.3917904  56.8375893  40.7566338
  32.0861816  56.2544212  39.5447235  67.8648834  36.8654823  34.0818634
  67.3737259  37.0577087  34.8806381  67.6960907  37.6148453  33.5107269
  28.7724686  61.3938255  23.1472836  27.9153671  61.1589661  22.7916889
  28.6092396  61.5599594  24.0757160  16.8691063  50.2999153  17.4018803
  16.7690411  49.4875717  17.8981838  15.9777193  50.6368675  17.3117466
  39.4134941  68.8398590  59.7804947  38.8489990  69.1124039  59.0571060
  40.0551300  68.2555618  59.3765869  68.8322601  13.2281160  87.1924973
  67.9110870  13.2518129  87.4515533  69.2065887  14.0261889  87.5655746
  17.4419327  49.4275627  31.8498592  16.7476521  49.6388855  32.4739990
  16.9823685  49.0544395  31.0976562  17.3806171  62.4148407  38.3635597
  18.0525684  61.9324684  37.8818626  16.6913872  62.5739822  37.7186813
  70.4077835  19.0842686  39.3369293  71.0790100  18.8800526  38.6857910
  70.8400726  19.6815758  39.9473228  66.1216354  21.9065895  82.4128571
  66.7592926  22.2379322  81.7805252  66.6531982  21.5476608  83.1233826
  75.5247192  34.0025635  66.8934250  76.3911819  33.5960922  66.8776245
  74.9263306  33.2831841  67.0950775  85.2859421  60.8091087   3.5189927
  84.9094543  59.9537621   3.3119421  85.8311081  60.6506310   4.2896461
  31.1406326  59.2447815   7.0910745  31.9714527  59.6518784   6.8456354
  31.3198013  58.8224754   7.9311867  47.4515305  50.2809906  78.8916397
  48.0893211  50.9212112  78.5760880  47.7594261  50.0478401  79.7674637
   4.9691110  18.4398441  34.2882500   4.4943404  17.6908340  34.6485367
   4.6854167  19.1823158  34.8216209  47.1884270  20.0815411  80.2582169
  47.4984436  20.9633121  80.4646301  46.2712708  20.2016373  80.0119781
  20.5814304  68.9898300  31.3095837  20.9455738  69.7638779  31.7390938
  19.7388611  69.2826767  30.9623833  84.0725021  69.6918259  41.5216408
  83.9674988  70.5260315  41.0641441  84.2581711  69.0596008  40.8273392
  30.7484093  71.6255798   7.7236662  31.0528126  71.2044220   8.5275316
  31.1905880  71.1488037   7.0212421  73.9034653  39.8562546  16.7389965
  73.6724243  40.7128220  17.0983620  74.6740341  40.0240440  16.1964989
  82.3849640  21.9236526  47.7629623  82.8050079  21.1614952  48.1616020
  81.6217651  22.0927773  48.3153801  42.3061180  28.6638393  84.8949432
  41.3692856  28.6337795  85.0890427  42.7278633  28.3770561  85.7049561
  82.4751663  55.5397530  80.4072037  81.5663757  55.2562370  80.3074265
  82.5116501  55.9229927  81.2835770  55.3478622  67.9166565  37.8401833
  55.6199188  67.8975449  38.7577095  54.4163971  67.6972656  37.8619308
  18.6662426  54.6422577  29.8008385  18.7412033  55.4253578  29.2555218
  17.7963009  54.2952347  29.6033306  83.1232071  63.5854301  25.4735432
  82.4192047  63.9893684  25.9809341  83.2757111  62.7438316  25.9033031
  39.8873253  29.3342724  67.5541229  39.1798668  29.8593025  67.1798477
  40.3979263  29.9556408  68.0731812   5.4916034  42.1871719  20.9876003
   5.6551270  41.2524834  20.8616982   5.3304296  42.5230255  20.1058636
  10.9962444  63.6064110  77.1726227  11.5673618  64.3337021  76.9254227
  10.1102867  63.9349022  77.0196457  81.0669861  44.2278633  27.1838436
  81.3502121  45.1347694  27.3001804  81.5576172  43.7372551  27.8432465
  35.1087608  50.1006050  58.5081902  34.7419930  50.9632378  58.3143311
  36.0234261  50.1618271  58.2327347  20.3793907  14.2126150  81.5788574
  20.0194664  13.3304558  81.6709518  19.6338959  14.7483759  81.3078766
  37.0408783  41.7190628   5.0481439  36.9463196  41.1013336   4.3230891
  36.2130241  41.6575584   5.5247016  82.4888535  60.1554146  29.7321472
  83.1932220  60.4969521  30.2830067  82.2653198  60.8824348  29.1510201
  11.1883440  62.2649651  24.3333054  10.6705627  61.7753944  23.6942005
  10.7065353  62.1702118  25.1549587  39.8766518  33.7843857  72.1058884
  39.1964607  34.0923920  71.5069656  39.7015686  34.2469482  72.9254074
  29.8841972  66.1368790  18.7610035  29.9997272  65.7454529  17.8951702
  29.0160198  65.8469162  19.0410366  43.4988403   4.7135301  63.7193222
  43.0541573   3.8876190  63.9100037  43.9042740   4.9644489  64.5493240
  14.8482265   4.2271762  70.9605637  15.6595144   4.0863638  70.4724884
  15.0465078   4.9548864  71.5499268  46.6736832  62.4726028  46.3432045
  45.8897133  61.9235802  46.3571548  46.9907417  62.4145393  45.4419060
  15.3086815  15.0377703  83.6926270  14.7492132  14.5993948  84.3337631
  15.6203299  15.8224888  84.1435394  53.1601677  69.7634125  83.0539551
  53.9855728  69.9637985  83.4953003  52.9796219  68.8524246  83.2857819
  30.3449821  14.5048208  14.8718052  29.9840927  14.5185719  13.9853506
  30.7657795  13.6482687  14.9458303  49.5333290  25.4104042  23.7733498
  48.8238258  25.4142914  24.4158611  49.2511940  26.0307922  23.1012268
  28.7347641  12.3045053  84.1535950  28.0459747  12.4541864  83.5059814
  28.4545307  11.5195160  84.6242218  22.6070080  55.9296532  32.5068245
  23.5523243  55.9910049  32.3695412  22.2276630  56.1160774  31.6480026
  15.5490999  29.6012630   3.4308724  16.1501923  28.8891869   3.2120848
  14.7229919  29.3534317   3.0157111  57.0687294  27.9687481  59.3044434
  57.3815155  27.1755619  58.8694115  57.7474213  28.6208992  59.1303673
  65.9316635   8.8126144  41.5560989  66.7761078   8.4761801  41.8560448
  65.3773727   8.0358572  41.4810219  83.9160767  20.3295231  35.1580124
  84.3450851  21.1304092  35.4592743  83.0320129  20.6071205  34.9179840
  68.9762344   6.9599042  38.2049370  69.6750717   7.4180779  37.7381058
  69.0764694   6.0436330  37.9468040  72.5080719  10.6710148  79.3113708
  72.5873642   9.7530384  79.5707245  71.8228683  11.0222387  79.8800201
  32.9889717  63.9941292  60.8297462  32.4450417  63.5304909  60.1930275
  33.0404358  63.3999977  61.5784721  80.3591766  24.4720154  39.1387024
  80.9248428  24.9834690  38.5601997  79.4747467  24.7823887  38.9445953
  12.2771320  57.0558434  44.9290657  11.6760044  57.5488014  45.4875183
  11.7876463  56.2702827  44.6850777  16.0019493   1.4573946   2.1625719
  15.3050680   1.0854893   2.7031951  16.6983089   1.6715163   2.7834332
  17.5488701  10.3083773  17.9932671  17.3026543   9.3889389  18.0944748
  16.7596817  10.7952051  18.2307796  80.1191483  24.9409294  77.3995819
  80.6650696  24.2475891  77.7703781  80.4383087  25.7435246  77.8121490
  35.5667725   5.2324643  19.5036888  34.8843498   4.5621257  19.4693527
  36.3050766   4.8008375  19.9336166  39.8082733  66.2008057  55.5867500
  39.5335312  65.8247986  54.7504692  39.0697289  66.0424652  56.1747246
  62.8529015  30.6069622  76.1431198  63.1247139  31.0330124  76.9560318
  63.1412315  31.2033157  75.4521332  54.2519493   7.9169908  18.2230740
  54.9267693   8.3483000  18.7473087  53.4318352   8.1238537  18.6712437
  56.3975601  62.0703697  36.8560181  56.2716560  61.6129875  36.0246429
  55.7931137  62.8114777  36.8155975  46.2626190  69.0297470  82.1535187
  46.3619080  68.4323349  81.4122543  47.0418396  68.8790512  82.6886215
  67.5269394  61.3602905  52.4027290  68.4056396  61.5971985  52.1060829
  67.5439453  60.4051476  52.4631271   2.7463441  17.2076626  73.2215042
   3.2566292  16.4097309  73.0831451   2.0198588  16.9333420  73.7811508
  45.8143501  67.5109863  46.2650948  46.1144028  67.9687424  45.4798164
  46.3172722  66.6966095  46.2744904  18.8561878  38.0155945   7.6074729
  19.2660828  37.1594467   7.7308927  18.2288284  38.0867271   8.3269119
  49.3812904  64.9488449  74.1009445  50.3246803  65.0928726  74.1751633
  49.1831436  64.3046646  74.7806549  52.3176422  29.4882679  86.0247803
  52.7748985  30.2409801  86.3997116  51.4918785  29.8471508  85.6998978
  52.3676872  27.1593513  37.5366592  53.3045654  27.3433456  37.6047859
  52.2768135  26.6812725  36.7123909  30.0024128  42.3697853  19.0793839
  29.4017010  43.0739937  18.8355236  29.5039234  41.5667076  18.9283638
  28.7475452  37.1105576  67.2013092  29.6155472  37.4884720  67.3426819
  28.7474823  36.8484344  66.2807007  67.8141937  61.4273262  19.1027222
  67.0921707  60.9055023  18.7525520  68.5183487  60.7952919  19.2473755
  26.4865055  32.3315277  81.1078720  26.4704704  31.5679760  81.6848984
  25.8543072  32.1248512  80.4195099  83.1657944  15.0220451  23.5596256
  83.9564819  15.5282011  23.7463169  83.1597977  14.9298754  22.6068916
   1.4756235   9.0239639  34.9127617   1.8149699   9.1988840  34.0349922
   1.7121294   9.8004246  35.4201126  22.9385147  14.6811066   1.6374575
  23.3517056  14.8093815   0.7836127  22.2748604  14.0086641   1.4837849
  55.6188126  40.9443054  69.8448181  55.4915504  40.9679642  70.7932281
  56.0848732  41.7562408  69.6453781  65.0225754  29.4477673   5.5848088
  65.7687531  28.9181042   5.8657126  65.4027481  30.1102066   5.0078568
  39.5965652  52.8083191  66.8944244  39.2479248  51.9185524  66.8396683
  40.2352219  52.7719154  67.6064835   3.6840680  24.6608276  45.7587509
   4.1300001  24.5333366  46.5960808   4.1853857  24.1326122  45.1375427
   9.0199537  38.2934380  22.5241814   8.3713121  38.3177032  23.2276783
   9.8034029  37.9259644  22.9333305  67.7296219  38.8718300  31.6655083
  67.9494400  39.6793785  31.2009888  66.9675446  38.5274811  31.1997814
  40.5512238  49.1455345  88.1696167  40.6118164  48.9139709  89.0964050
  41.4534111  49.3321915  87.9098969  53.0241280  31.7585869  43.5133781
  53.0076637  32.2411423  42.6868820  52.3378220  31.0980778  43.4187965
  34.9026947  69.5632401  83.7683716  35.6437912  70.1199112  84.0073853
  35.1890221  68.6763916  83.9868622  48.5527687  60.3821869  12.1206017
  47.7717667  60.9042702  11.9370327  48.5241585  60.2325325  13.0655975
  54.7346535  69.7853470  63.2416306  54.9057312  70.1783600  62.3857651
  54.2966537  70.4759521  63.7390747  62.9065323  63.8043365  42.6839142
  62.1015892  63.2871895  42.6546707  62.8475914  64.2929688  43.5048866
  25.8671894  67.8226547  49.5625801  26.3677597  67.7637482  50.3763313
  25.9648018  68.7340469  49.2867775  25.6376457  52.6041222  37.2881508
  24.9285107  51.9613991  37.3045349  26.2107105  52.3469620  38.0104332
   3.7067597   9.2021379  20.0404472   2.8455667   8.8612137  20.2820034
   3.5201805  10.0227003  19.5842724  50.3606491   0.7553129  21.2426205
  49.8832664   0.2611991  20.5761452  49.7175484   0.9062596  21.9353428
  31.1206436   3.3647316  17.7573929  30.5835896   4.0251904  17.3196754
  31.5375080   3.8350685  18.4793625  26.6654625  52.7239914  80.9325867
  25.9281368  52.9545097  81.4977798  27.2908783  52.2960739  81.5173721
  22.2956829  64.0188217  24.7038631  22.2971058  64.5560150  23.9116211
  21.3692169  63.9136543  24.9202728  10.2018862  64.7099457  64.8015594
  10.5919771  64.4114761  65.6231308  10.4864330  65.6200485  64.7180328
  11.1263723  22.9642811   9.0423021  11.8896503  23.0188732   9.6173306
  10.9437466  22.0270767   8.9749985  64.8546448  66.3402557  18.6054688
  64.3543243  66.1200790  19.3912411  65.4692841  65.6138687  18.5015202
  46.1949196  41.8421402  38.6543884  45.9065666  42.7328911  38.4552765
  45.3849335  41.3352623  38.7112465  16.3570118  31.2533016   9.6223669
  15.9435549  30.4058075   9.7868099  16.3134727  31.7082500  10.4634123
  66.4242554   6.8757997  37.6874428  66.2952423   5.9883366  37.3527870
  67.3743210   6.9701390  37.7560654  85.2241821  42.1291161  56.0384483
  85.7849503  41.4238091  55.7154694  84.3339615  41.8341141  55.8468552
  82.8714981  11.5743580  70.2826920  82.7824478  12.5123348  70.4515152
  83.3933716  11.2475824  71.0155640  73.1249542  31.3735371  24.1439877
  74.0616455  31.3482971  23.9485283  72.7873764  32.0901489  23.6066380
   2.3520155  65.7093048  49.2030449   1.4573423  65.7610931  48.8667297
   2.4096973  64.8389587  49.5972633  22.0718708  62.9558029  55.0219345
  21.6706276  63.1999931  55.8559647  22.0454655  63.7575035  54.4996262
  78.0077286   7.6367860  83.6428070  77.8250961   7.2382822  82.7918777
  77.8562241   8.5720730  83.5067368   8.4977627  41.4417381  29.0341282
   9.1490593  41.7989655  28.4304447   9.0082150  40.9305954  29.6621437
  48.9160004   1.7718990  36.1272812  49.7153664   1.8449732  36.6487274
  49.2246552   1.5857360  35.2405434  61.9690361  44.9542580  52.9491119
  62.4102135  44.3503914  53.5465584  61.8407021  45.7503777  53.4648170
  60.1843491  13.4581823  38.4929390  60.9247093  13.9057894  38.9025040
  59.5426025  13.3634329  39.1968002  53.0947037  50.4502373  15.7298918
  53.3039513  51.3292084  16.0458832  52.3415756  50.1798592  16.2551823
  36.8012123  67.8841858  80.9647598  36.3094673  67.5468903  81.7135239
  37.7121773  67.8881607  81.2586365  44.8182182  51.8183022  36.3162613
  44.7324638  52.6798134  36.7245293  44.5592270  51.2018280  37.0011787
  24.8612080  31.9921818  78.4990540  24.0343246  32.4743576  78.4978409
  25.2434330  32.1700325  77.6396866  64.3759079  41.6955643  22.4063492
  65.2647552  41.8654175  22.0943737  63.8102570  42.1148567  21.7579136
  18.8389454  53.2340851  53.8801956  18.9892979  54.0651512  53.4296913
  18.0100918  53.3587570  54.3424606  70.8510361   2.0911188  52.6977196
  71.6377029   1.5457920  52.7002106  71.1581345   2.9532518  52.4172745
  12.5009212   8.2373571   4.3993750  11.7723351   7.6734042   4.1398544
  12.6420803   8.0358295   5.3244119  83.0803299  15.9253197  20.5552235
  83.3554611  16.5995026  19.9339237  82.6401520  16.4090099  21.2541637
  52.9863586  63.3517265   6.8066611  52.5931091  62.4843254   6.9025960
  52.9124641  63.5461998   5.8723426  53.4130745  21.0507469  12.1136608
  53.1653709  21.9671612  11.9909391  52.5971527  20.6123772  12.3551884
  48.0542145  57.4107437  61.9499016  47.6275406  56.6486206  62.3414993
  47.4625854  57.6821823  61.2481003  11.3113756  55.7721558  62.4681587
  10.8551416  54.9486656  62.2951126  11.4529257  55.7732010  63.4148331
  65.3056870  68.4360733  83.3998489  65.1111755  67.8492203  82.6690903
  64.7784424  69.2161484  83.2274551  43.3688583  33.5261841  36.7161331
  42.4620476  33.2601776  36.8683319  43.8858871  32.7511406  36.9357147
  55.1615334  71.2535858  28.1609859  55.6320534  70.7838287  27.4723816
  54.3045807  70.8287582  28.1981754  11.0097847   6.1621852  76.7823257
  11.1545792   5.2555637  77.0530777  10.9350748   6.1184464  75.8290482
  31.9244251  41.2860184  17.2619724  30.9925842  41.1120720  17.3948269
  32.0586815  42.1616821  17.6244850  70.6201706   7.9070377  67.1827621
  71.0885925   7.9252067  68.0173187  69.8742447   8.4923630  67.3139954
  67.9741287  54.2096405  14.2284107  67.9211044  53.7755508  15.0798712
  68.2127151  55.1133728  14.4347506  42.5675163  67.9546967   4.6041327
  42.0675011  67.1433334   4.5152283  43.2979317  67.8540192   3.9937344
  21.3485928  47.5317230   4.3313680  20.4488297  47.8358078   4.4504991
  21.5904522  47.8361092   3.4566767   6.5129261  29.1364021   0.2894572
   7.1486435  29.7662640   0.6291165   6.5008011  28.4340286   0.9396548
  48.1785622  27.5485229  22.2275715  47.4341698  27.2237740  22.7341747
  48.1867676  28.4915314  22.3915825  41.6855850  14.3320866  22.1099014
  41.4958839  13.6244221  22.7259026  40.8327637  14.5655003  21.7432365
  43.7056160  45.9476280  14.5966482  44.3422432  46.6392250  14.7773037
  42.8999138  46.4152641  14.3766603  65.6673889   5.9638968  11.3809175
  65.9235611   5.7661891  10.4800730  64.7113266   6.0026078  11.3550472
  10.1859941  57.4425392  69.5375061  11.1203079  57.6501999  69.5504837
   9.9937019  57.2611923  68.6175232  58.4324036  65.1151657  44.3849297
  57.8246117  65.1305161  45.1242447  57.8742790  65.2163239  43.6138954
  38.0565948  28.7949963   7.6856456  37.7968369  29.6843567   7.4452376
  38.8905602  28.9043102   8.1425753  35.0418434  31.5548000   1.9113241
  34.5462112  32.2821121   2.2876151  35.9477921  31.7227440   2.1707246
  29.7953110  60.9244995  73.7308655  30.1349430  60.7930679  74.6160812
  29.4888363  60.0587959  73.4609299  -0.0364038  33.1442413  87.7257538
   0.3584504  33.4581604  88.5392456   0.5909102  33.3883858  87.0452347
   2.4488325  47.9368172   2.5510466   1.9982074  47.9224625   1.7066754
   1.9154968  48.5141449   3.0973794   2.5853968   9.4605293   0.7454984
   2.3519080   9.2832994   1.6567087   3.2114990   8.7723475   0.5204796
   6.4577770  68.5358887  19.8730640   6.7718420  69.2380600  20.4427567
   6.7190413  68.8066254  18.9929085   7.6136007  33.1818237  78.7944794
   6.8422623  32.6811676  79.0602036   8.1865625  32.5368881  78.3797455
  48.2773705  50.3546829   1.6416147  47.6497841  49.8671227   2.1751459
  48.8839378  49.6890755   1.3171515  43.3943863  32.3186150  61.6718712
  42.6641808  32.4613495  61.0696602  43.3432617  31.3890038  61.8942261
  67.2095642  23.4819717  56.0387268  67.1567001  22.6692867  55.5357513
  67.0033646  23.2218380  56.9365234  33.4270706  48.7178993  85.6986847
  32.7813416  48.6306572  86.3998642  33.7425232  47.8262749  85.5512848
  79.9914703  10.5477543  15.7261572  80.6084213   9.8645086  15.4638929
  80.3032303  10.8354397  16.5842209  73.9142151  49.5324402  29.0403614
  73.5670853  50.2279587  29.5989208  74.8641891  49.6408310  29.0853252
  76.0987473  13.4401922   9.9996758  75.4335022  14.0929985  10.2176666
  76.7054672  13.9008303   9.4200764  77.0004349  69.2313538  56.0917816
  76.4007568  69.9516373  55.8973312  77.7447052  69.6495743  56.5246735
  52.0066452  67.5839767  24.2835426  51.7010880  66.6818085  24.1889114
  51.2314873  68.1186523  24.1118011   6.8833585  68.7816925  69.1274414
   6.2638025  68.9822617  68.4259033   6.4581132  69.1042709  69.9220123
  74.6923904  44.9154510  79.6153793  74.1759415  45.6536102  79.2919083
  74.5209198  44.8974991  80.5569305  47.2008934  62.5459862  27.8524036
  47.9247055  62.5158310  27.2267704  46.8745651  63.4441986  27.7980194
  53.7423553   0.6205783  56.0308533  53.1604385   0.5369357  56.7862396
  53.1749039   0.9289353  55.3243523  59.2889862  34.4979973  71.2813416
  58.4350739  34.2528152  70.9250412  59.8380127  34.6412086  70.5104446
  76.9091187  22.6861343  33.9087906  76.0765533  22.7032661  33.4367943
  76.7446442  23.1943512  34.7030792  73.3254623   1.3001435  20.9264450
  72.4045639   1.5296965  20.8019905  73.7030869   1.3399625  20.0477848
  42.7329445  39.2851639   9.7354441  42.3428879  38.4504242   9.4760199
  43.1987419  39.5847855   8.9547443  45.9260902  51.5575218   5.3586311
  46.6965637  51.4054375   5.9058719  46.2308846  51.3961525   4.4657187
  14.9471159  38.4855690  61.6564217  15.8023262  38.1696510  61.9480400
  14.3168907  37.9490204  62.1372185  76.2234421  24.4479771  53.2490311
  76.0022507  23.5763397  53.5769882  76.0202408  25.0362053  53.9763069
  14.7820387  60.2388382  48.4635010  13.9650154  59.7405624  48.4428940
  14.6353235  60.9646034  47.8568954   9.9864101  16.9798660  27.7088509
   9.5601006  16.2862854  28.2122803   9.4091339  17.1205158  26.9583836
  49.6366043  17.2281151   1.4419048  49.8630409  17.6709976   0.6240956
  48.7745628  17.5751228   1.6714747  66.6307297  47.8680191   4.0620012
  66.2082291  47.0091171   4.0597425  66.9891891  47.9562874   4.9451485
  19.1344852  42.6784668   9.4933147  19.9958496  43.0212860   9.2550755
  18.9563465  42.0027275   8.8391933  37.6017723  68.5676804  51.0446930
  36.6934814  68.5713196  50.7426491  37.7487640  69.4549484  51.3723793
  56.6520844  35.7192001   1.5809859  56.1880684  35.0177116   2.0379703
  57.1224937  36.1851692   2.2722318  10.0831356  48.0326805  79.2932816
  10.6473589  48.1670418  78.5318146   9.4112396  48.7100410  79.2160263
  36.6460571  57.5829010  66.1180801  37.1255836  56.7727242  66.2910080
  35.8713188  57.5267105  66.6774216  71.0622482  17.0865459  68.0522308
  71.6242294  17.4316101  67.3584442  71.5305634  17.2881927  68.8623199
  41.6378059  13.4578943  17.6997261  41.1814079  14.1153488  18.2247849
  42.1827393  13.9668236  17.0995007  85.5938034  69.2113266  24.8738518
  85.6082764  68.9266281  25.7876167  85.2533646  68.4567719  24.3932476
  82.0691910  34.6345482  38.0928307  82.4481125  33.9760857  37.5105324
  82.7378006  34.7745285  38.7633514  46.0992241  64.1363831  55.4392395
  45.3161697  63.8824310  55.9276733  45.7847214  64.2981796  54.5497780
  21.3075695  12.3171015   2.0529714  22.0663185  11.8081779   1.7674395
  20.6302509  12.1209402   1.4056759   5.2369933  46.3116150  81.4423065
   4.7998772  46.9310417  82.0266571   4.7353792  45.5014915  81.5334930
  42.5073433  58.5850410  72.3758392  41.9734726  58.2846298  71.6403351
  42.2852859  57.9898376  73.0918350  51.5955315  56.8964500   4.0826378
  51.7218094  56.8358269   5.0295329  51.0384140  57.6657295   3.9640677
  15.6803455  43.9556084  34.0921364  15.2971277  44.3103294  33.2899208
  16.4631290  44.4866219  34.2387848  34.5744133  66.9518585  15.9354477
  33.8757553  67.0037079  16.5876904  34.6143341  67.8301163  15.5568972
  12.3685913   1.3045354   7.7579017  12.6389742   1.5535330   8.6417141
  11.4532547   1.0411046   7.8527460  72.2233200   3.3281910  34.1076241
  71.4296341   3.8468821  34.2389984  72.1579666   3.0146682  33.2055893
  49.7103424  24.5543442  20.5041332  50.1710243  25.3167152  20.8545589
  50.1756058  23.8032265  20.8723488   9.6484385  53.3120003  18.4061451
   8.7331657  53.0386963  18.4678955   9.7481451  53.6128769  17.5029507
  84.3016739  34.2163239  71.0244980  85.2432327  34.3484001  70.9137421
  84.1416016  34.3982048  71.9505234   4.2958422  70.9914093  43.5045738
   4.1785297  70.2958832  42.8574905   3.5981581  70.8445206  44.1432381
  61.3533974   5.2562904  20.4672928  61.4396172   5.7306457  21.2942066
  60.8867378   4.4533930  20.6992817   4.0609651   3.3871813  12.9635906
   4.4760394   2.7661915  13.5621862   3.7373846   4.0869470  13.5309134
  23.3124218  39.7818108  28.7415619  22.7041569  39.0441399  28.6958790
  23.5458164  39.8427849  29.6678677  30.4404411  52.3162842  71.8168259
  31.1083412  51.8536110  71.3107834  30.2101898  51.7096977  72.5205765
  48.0968361  13.0819168  39.6575356  48.0937157  14.0138140  39.4389267
  47.2269402  12.7734709  39.4038162  17.0452595  44.6447411  18.7056866
  17.9092503  45.0563316  18.7242928  17.2260590  43.7142105  18.5728092
  16.8803806  65.1849899  56.2750626  16.1044102  64.6721954  56.0489082
  17.1415939  64.8572693  57.1356392  82.3591003   4.5994668  34.2044983
  82.8528366   5.3069668  33.7898865  82.4238663   4.7798157  35.1423225
  78.1720352   1.9555073   7.2698512  77.6448059   1.4001304   7.8441548
  78.1834412   2.8078210   7.7053542  84.2251129  23.1598854  70.9340820
  84.9309235  23.7759933  70.7379303  84.2495728  23.0628262  71.8860321
  18.6108952  58.1610298   6.4216485  18.0901604  58.9627190   6.4702206
  19.2846909  58.2720795   7.0923929  37.2954559  29.9947166  65.1969604
  37.2397308  30.9161186  65.4502258  37.9697495  29.9733315  64.5179138
   0.1718529  24.8817940  25.8219490   1.1208162  24.7725906  25.8833904
  -0.0872391  24.3191319  25.0922127   4.0822201  71.3197479  23.6676807
   3.9577332  70.7021179  22.9470768   3.2265775  71.7343140  23.7783203
   0.8108068  35.2781372  72.2189789   1.0958656  34.7259941  71.4908905
   0.4193668  36.0443497  71.7995453  54.9412117  52.6857681  50.1027679
  54.6994514  52.2323112  49.2952042  54.2626915  53.3513565  50.2160530
  30.0374317  67.1442795  23.6507645  29.6691799  66.3204269  23.3315506
  30.9406586  66.9288025  23.8831005  66.7934723  56.4090424  79.9422607
  66.1964798  56.0959015  80.6218033  67.3662796  55.6630745  79.7643509
  34.0559807  69.2329330  24.9187870  34.6315765  68.9703674  25.6371078
  33.4112854  68.5279694  24.8585472  55.0006447  36.7515106  76.6075211
  54.1214676  36.4010849  76.7506332  55.1405296  37.3533478  77.3385849
  67.4478836  39.1920776  48.9822769  67.9780807  38.4744301  49.3288383
  66.7604980  38.7591972  48.4759674  80.8583603  15.0486298  33.4285088
  81.6582870  15.0043144  32.9046974  80.2596741  15.5829916  32.9067116
  20.5191364  67.1047668  82.7434158  19.8368855  67.7639847  82.6161575
  21.1185055  67.4995651  83.3767624  67.3997116  11.2790155  22.3512611
  66.9590225  12.0588112  22.6888218  66.7226181  10.6024179  22.3511581
  10.9654779  56.0842705  26.2700500  10.0942678  55.6893387  26.2346210
  11.0239058  56.4569702  27.1497726  78.9296188  37.7084465   9.5616455
  78.7542572  38.0065613   8.6691179  78.9282532  36.7532501   9.4997311
  51.5514755  60.5188484  12.4576216  51.7489357  59.6494331  12.8059883
  50.6138840  60.6320953  12.6135874  77.2616959  65.2596817  80.4817886
  77.6824951  65.3294220  79.6248779  76.9603577  66.1477280  80.6736374
  18.7648430  15.4154224  13.6683636  17.8525581  15.6480522  13.8411379
  19.2591629  16.2050228  13.8883896  72.3097916  53.4134331  27.7845345
  73.1670609  53.0563011  27.5526314  71.8236084  53.4237137  26.9600601
  36.7609062  47.2052765  16.3607826  35.8652878  47.4538841  16.5894623
  37.2418137  48.0326920  16.3421860  86.1845551   2.5034161   7.0344729
  85.6026535   1.9496901   6.5138807  86.5971222   1.9015044   7.6539240
  27.4331360  11.0925131  73.5791016  27.9025936  10.9945469  74.4075012
  28.1231670  11.1872873  72.9225159  46.1501274  21.2527981  10.4261150
  46.0592880  20.6791992  11.1870127  45.6613960  20.8097763   9.7324972
  61.0088844  10.4728041  37.1742287  61.5984688  10.5910501  36.4294853
  61.5816498  10.5043173  37.9405060  71.6507492  69.2096176  79.2971344
  72.4635544  68.9633713  79.7386475  71.6393661  68.6771088  78.5018082
  82.8100433  50.2627296  19.6165504  81.9982910  50.7508583  19.4786549
  83.5031509  50.9121437  19.4978218  71.1160278  50.6869736  50.3518944
  71.4721985  49.8176804  50.1683044  70.6755829  50.5918884  51.1964035
   3.6950064  10.6331663  58.6869087   3.3378730  10.7776747  57.8106651
   3.4418614  11.4133148  59.1803856  41.4210930  42.6669846  43.0914383
  41.5340080  42.5490685  44.0346107  42.2686539  42.4269981  42.7168922
  44.4907188  18.2734013  89.3030701  43.7442245  18.5402660  88.7666397
  45.2091751  18.8335438  89.0093079  78.8128815  59.2494392  88.8653793
  79.4653091  59.9441757  88.7764664  78.8863144  58.7466621  88.0541763
  73.0227509  -0.1097289  84.7075348  73.0799789   0.4705813  85.4666138
  73.1329422   0.4700825  83.9539413  29.3203297  58.0967407  73.5936127
  29.5754242  57.2183952  73.3113556  28.3948021  58.1643600  73.3589630
  30.3752975  32.4390793   9.8007755  30.8713570  32.7202301  10.5696125
  29.9730453  31.6115799  10.0647249  29.3532143   5.0138745  16.5954571
  29.3911762   5.9129210  16.9218102  28.4214764   4.8518753  16.4476261
  16.4099464   3.1923797  68.2567596  15.9833193   2.4029989  67.9234467
  15.7150154   3.8503628  68.2757721  59.8012657  19.1696892   5.5557427
  59.9712753  19.9473934   5.0242310  60.6284065  19.0029640   6.0077033
  15.2128391  28.2133617  13.6415749  14.4068499  28.0023766  14.1128473
  15.3583374  27.4614925  13.0673332  34.8227043  57.0938721  15.1267061
  35.2445450  57.4131966  15.9243994  34.9488297  57.7980347  14.4907188
  52.6009102  47.8478737  29.2300282  52.5310669  48.1499939  28.3244476
  51.7523003  47.4452133  29.4143085  32.4247513  52.1457138   7.0305347
  33.3722115  52.2172585   6.9146485  32.2848320  52.3059158   7.9638038
  85.0734100  26.3979740  57.9556770  84.9415817  25.9356766  57.1279488
  84.3898163  27.0678902  57.9673729  51.6022682   0.7768452  31.0845547
  52.2178078   0.8598827  30.3562374  51.1592293   1.6245369  31.1215496
  80.1401978   8.2414732  41.4873848  80.7685928   7.8350606  40.8905754
  79.7828064   8.9790564  40.9929428  60.2119370   6.2965369  22.8074856
  60.0282593   7.0825639  23.3219337  60.4685326   5.6405993  23.4556637
  69.2848587  54.9085197   1.6848514  68.8472748  54.0902672   1.4498833
  69.7219849  55.1861115   0.8798075  57.0730400  12.6096306  25.4645386
  56.6430550  13.1528997  24.8040810  58.0073509  12.7772741  25.3412876
  80.2564774  60.8843994  80.7939758  79.4163513  61.3204880  80.6516953
  80.7047043  60.9470177  79.9505310  20.7139931  27.8172569   6.9677758
  21.4088039  28.0584087   7.5804057  19.9073658  28.1056919   7.3948464
  40.9257355  53.6945839  35.5202103  41.8617249  53.6494675  35.3249626
  40.5893364  52.8308640  35.2813416  84.6710052   8.7485905  29.8308887
  84.0094757   9.2989359  29.4116840  84.6397018   8.9979296  30.7545128
  42.1884880  21.3088951   7.9824333  41.7684174  20.5128860   8.3082285
  41.6468887  21.5792370   7.2409387  65.2947311  29.0987511  28.5306511
  65.3941803  28.3721104  27.9155617  66.1124802  29.1050892  29.0281143
  58.5791588  24.7703075  45.6360512  58.0799065  24.7699547  44.8193626
  59.4907532  24.6766872  45.3595390  74.6912384  11.8595076  69.9559097
  73.9259949  12.1552191  70.4490509  74.7769928  12.4934902  69.2439117
  68.5226440  34.8597107  69.3129501  69.3951721  34.9432907  68.9283295
  67.9411545  34.7353325  68.5628586  40.2055359  65.2900314  39.9823112
  39.5784264  64.8165207  40.5288963  40.1745491  66.1899719  40.3069420
  57.9317436  38.6169548  54.0503120  58.6604996  38.7186813  54.6625175
  57.4212074  37.8888702  54.4045448  37.2939377   3.2719433  80.3250961
  37.9809685   3.3625050  80.9854126  37.5683174   3.8499341  79.6131439
   3.5117264  59.8664055  31.7025547   4.2086143  59.8449287  32.3583870
   2.7948432  59.3708992  32.0985184   3.5998976   1.0037798  59.3788300
   3.9183121   0.4632176  58.6558952   3.0266342   1.6472845  58.9622955
  26.2182846  31.9608154  68.7848663  26.1947498  31.4012928  68.0085831
  27.0279484  32.4631538  68.6935806  63.4972572  42.1508522  77.1177826
  64.2808990  42.6271973  77.3920746  62.8011017  42.4912643  77.6796722
   2.8562751  49.6972198  51.2181435   2.3692317  49.0002556  50.7785263
   2.1859145  50.3260574  51.4853745  22.0698490  26.6175480  41.2697945
  22.6168766  26.4062576  42.0263329  21.3521175  25.9854565  41.3091888
  53.7066727  56.5256310  81.8133698  54.4911499  56.3593750  82.3360367
  53.9435654  56.2442169  80.9296722   7.4632311  52.3334961  59.7888184
   7.0204930  52.6076736  58.9856758   8.2616196  52.8609085  59.8142052
  47.7145653   3.9109490  66.9135056  46.9275742   3.5688243  67.3375626
  47.7010002   3.5260789  66.0371933  67.9518356  23.8079643  62.6708679
  68.8737717  24.0653553  62.6742592  67.5271149  24.4460888  62.0975952
  21.4786892   5.5778003   1.0625914  21.8751221   6.4425235   1.1690193
  22.2092991   4.9663401   1.1551052  67.6134720  46.3632812  36.1347809
  68.2092667  45.6142426  36.1491089  68.1787872  47.1156654  35.9599457
  16.7831097  54.0960960   4.7255788  17.6591911  53.7119102   4.6921887
  16.8685951  54.8354759   5.3274431  83.5783615  40.4079971  24.4408836
  84.3064957  39.7923622  24.5248394  82.8580093  39.8812027  24.0947456
  25.5323658  49.2285233  21.8256836  24.9884014  49.7286377  21.2172241
  25.4075642  49.6616974  22.6700859   1.4044206   0.9550239  28.7913437
   1.0517199   0.1867157  29.2402725   0.7720648   1.6501373  28.9734840
  15.1790676  40.0998802   8.1959181  15.2305946  40.5359077   7.3453560
  15.4478254  39.1982727   8.0195436  85.4890823  33.0929146  17.1503201
  85.2542114  33.7457848  16.4909096  85.6256943  33.5995026  17.9509048
  66.7061615  62.3212929  47.5943565  66.6232605  63.1255760  48.1066895
  66.2636490  62.5167694  46.7684021  29.1699829  54.9174614  19.5794525
  29.9076405  54.4943542  19.1400509  28.6001549  54.1942024  19.8410320
  15.6919670  31.7803097  78.3130951  15.4245844  32.4235344  77.6565933
  15.0834961  31.0508270  78.1954041  19.0070572  35.3463173  42.8788109
  19.1171875  36.0158806  43.5539322  19.1318283  35.8152962  42.0537529
  35.0336342  21.6642609   3.5897207  35.8774719  21.2380409   3.7397368
  35.2329941  22.3877068   2.9954884   3.7531736  15.9892111  84.7333908
   3.9882376  15.1010857  84.4646759   3.5324085  16.4361610  83.9162445
  43.4768333  35.4346123  69.3934631  43.3208389  34.7897568  70.0834274
  43.8287163  34.9244728  68.6639557   0.3387293  55.5736465  60.4757233
   0.6160195  56.4820213  60.3565750  -0.2664209  55.4110756  59.7521248
  86.0802307  26.1393967  65.6167755  85.1983109  26.2760849  65.9628448
  86.0696793  25.2428951  65.2815094  81.0202026   1.4355868  14.5089960
  81.4572220   0.8805383  15.1548824  81.1411667   2.3263958  14.8377199
  62.2580795  71.2955093  41.6171227  62.1110268  71.7343750  40.7792664
  62.1673584  70.3635483  41.4185143   6.9187021  52.2129745  17.9794865
   6.2421165  52.3384399  17.3141117   6.7711558  51.3256454  18.3067608
  13.8812180  68.3600922  19.0063305  13.9014902  67.4046021  19.0598087
  13.2610760  68.5474319  18.3016624   3.3304551  30.6601543  25.3550911
   4.1045165  31.0284119  24.9291248   2.8633962  30.2072201  24.6529942
  31.1386375  56.2998734   1.2516609  31.9928970  56.3459816   0.8223020
  31.1335964  57.0426788   1.8553566   3.5908561  16.5435047  35.4771385
   3.2809718  16.0383511  36.2288208   2.9999063  16.2997265  34.7646904
  65.7126083  17.9745178   4.8398414  66.5309296  17.7323093   4.4063449
  65.5008621  18.8384571   4.4862833  32.1710129  66.2507858  87.5021744
  31.9935970  65.8271866  88.3420105  31.3181705  66.2912674  87.0694504
   9.4532089  17.2290688  84.0621490   8.6910563  16.6604824  83.9523087
   9.5366058  17.3374729  85.0095291  69.9881287  27.0168877   3.0365732
  70.5246658  27.0725288   3.8273122  69.1043930  26.8395615   3.3587518
   0.1526344  20.5039959  33.1565247   0.4560026  19.6229877  33.3756676
  -0.5640164  20.6698017  33.7690239  46.3567047   2.7011471  35.5118675
  45.7017288   2.2996955  36.0828972  47.1945953   2.3822920  35.8472824
  74.6295776  32.4503670  56.2824287  74.6004105  33.3262596  56.6673813
  75.0396423  32.5782280  55.4270172  56.0500259  48.7237701  85.7407837
  55.9943542  48.3877411  86.6353302  56.9727173  48.6265106  85.5053864
  58.5596962   6.5445681  14.3892221  58.3847122   6.0121536  15.1652031
  57.7167320   6.5954690  13.9386082  18.8436317  59.9491539  55.7313232
  19.5785503  59.4148216  56.0323486  19.1342793  60.3048706  54.8915520
  75.6922150  32.2003593  85.6218567  75.9689255  31.3519783  85.2755737
  76.4159393  32.7914047  85.4141998   1.3015500  14.2274485  18.8509750
   1.9898570  14.3397760  19.5066032   0.8917439  13.3918400  19.0746899
  24.4721699   4.3251085  75.5349503  23.6879349   4.8371110  75.3373108
  24.7517529   4.6377182  76.3953781  47.9325409  16.5057602  71.3729324
  48.3590164  15.7016191  71.6690826  48.4512482  16.7885971  70.6198196
  57.5098610  65.0715408  70.6546097  57.3109741  65.4565659  71.5080948
  56.8929176  65.4893646  70.0537415  31.4911804  30.2721577  72.0311127
  31.0598183  29.8133659  71.3102341  32.1704254  29.6666222  72.3280792
  61.2502365  58.3698769  76.3215561  61.6403885  59.1306114  76.7520218
  61.9197350  57.6887932  76.3858032  42.3189888  68.9437790  17.8848114
  43.0642853  68.8006821  17.3014679  41.6136169  69.2325668  17.3057766
  40.4804497   8.7167234  50.0993347  40.8655167   8.8620052  49.2351303
  40.3509026   9.5960150  50.4547157  66.3526154  55.5679321  48.7282219
  66.2874908  56.4266052  49.1461639  66.3589172  55.7580223  47.7901077
  49.2616653  32.7491074  36.7537231  49.9245338  32.6663818  36.0681648
  48.8509560  33.5978050  36.5886078  86.1420441  66.2854538  71.8890533
  85.2874146  66.3050995  72.3197021  86.6059799  67.0443192  72.2427673
  69.1087494   5.7356844  71.1898041  68.1702881   5.8069468  71.0153351
  69.1802444   5.0278215  71.8301544  53.8781471  45.9136696  17.2217522
  53.6242943  45.7941742  16.3065968  53.2158089  45.4334717  17.7186928
   0.9802083  18.3387241  87.9101639   0.0648510  18.1125793  87.7452087
   1.4792378  17.7294445  87.3661270  21.9137096   1.3239279  30.6242733
  21.6036301   0.6404648  31.2183781  22.7252579   0.9726810  30.2578735
  11.9489870  51.1272659  38.0449104  11.5347404  51.2717896  37.1941795
  12.8725805  50.9816818  37.8399391  76.5442429  54.1145477  18.8622971
  76.7187424  53.4919243  18.1565208  76.9627304  53.7280731  19.6315422
  23.2493668  65.3582611  79.6753159  23.6887512  64.8630829  78.9839630
  23.9597054  65.7938766  80.1463699  60.2310905  16.1038361  39.6536484
  60.0359421  16.8671951  40.1971855  61.1146431  16.2650738  39.3226357
  23.0026760  33.9572258  79.1122665  22.0598183  34.0964317  79.0235367
  23.2625732  34.5303421  79.8335266  68.1434631  19.2508545  21.0526295
  67.8545227  20.1003494  20.7193089  67.5662918  19.0763588  21.7960396
  40.3212013  13.8330803  66.1007996  40.6846466  14.3547287  65.3852463
  40.6093292  14.2826023  66.8952484   2.5812442  35.5311012  49.9106598
   3.2223101  36.2380066  49.9851418   3.1036193  34.7539940  49.7120018
  69.2038879  55.1574440  20.6804981  69.0693436  56.0496292  20.3609123
  68.9347229  55.1887360  21.5985413  59.0676498  15.0040207  43.1627541
  58.7631493  14.7049246  44.0195236  60.0025940  15.1688547  43.2849922
  66.9143524  25.9844494  88.8149872  66.2660751  25.7365704  88.1558075
  67.7482224  25.9782696  88.3450317  71.6265259  54.9113884  35.4996605
  72.2224045  55.4318733  36.0384102  71.3263168  54.2127800  36.0810890
  55.5136757   4.4125929  34.7244835  54.9686966   5.1639023  34.4904671
  56.3491440   4.5773087  34.2873421  38.4884300  34.4068718  28.1948833
  38.2643433  34.1550903  27.2989902  39.0882034  33.7230186  28.4929543
  77.6007004  29.3379765   7.3893795  78.1730423  29.8803997   7.9319906
  77.4377670  28.5574570   7.9189787  84.3584518  53.0186501  72.9812546
  84.9982605  52.7817459  72.3098755  83.7848663  52.2550392  73.0455704
  37.9227715  58.1732674  30.2919674  38.6115646  58.0609589  29.6368484
  38.0658760  59.0527573  30.6416092  75.2142563  46.8020630  34.5406837
  75.0472031  47.0434990  35.4517479  74.3765488  46.4629021  34.2253189
  49.1484528  55.2477303  71.5748367  48.5127258  55.0368958  72.2586746
  48.7361794  55.9509735  71.0731277  65.8825302  60.8195839  22.9380608
  65.1133881  61.2262688  22.5389996  66.6168442  61.3616753  22.6497002
  14.6616516  15.4551172  75.7904434  14.5960655  16.0470905  76.5397797
  13.9616184  15.7361517  75.2012024  44.0846519  51.4804039  80.0080566
  44.7075462  51.7514458  79.3336868  43.7967720  50.6101532  79.7323380
   0.1280916  36.5234299  16.5537663   1.0392035  36.2622414  16.4200230
  -0.1484202  36.0384750  17.3313217  28.4312916  70.1536102   5.1881685
  27.7642651  70.8297043   5.0690126  28.2634468  69.8030930   6.0629230
   2.2749918  28.8797531  18.3627319   2.2475660  29.0328407  17.4182510
   2.2151272  27.9287071  18.4530563  40.8798561  30.9589176  71.4114838
  41.4080925  30.4634113  72.0373230  40.5763321  31.7210217  71.9047470
  67.8379822  31.8232708  31.2049599  68.4768448  31.6175442  31.8874302
  66.9888000  31.6536999  31.6128368   0.5076324  29.1670074  71.1506882
   0.1782580  29.4401684  70.2944565   1.4521685  29.0749702  71.0257339
  31.6864071  33.4153366  66.6041794  31.8511562  34.2403603  66.1476440
  31.4303150  33.6778488  67.4883347  47.8736382   3.8537321  33.2618752
  46.9416885   4.0240731  33.3985748  48.0492821   3.0614426  33.7694778
  63.6548767  35.6919899  37.9559059  63.5798111  34.9314957  37.3794975
  63.6418686  35.3248100  38.8397827  61.6642799  65.9465408   4.1389637
  62.2129402  66.0447083   3.3607795  62.2687492  65.6599655   4.8236003
  71.5170288  62.4791489  13.3996563  70.6826248  62.2413979  12.9953337
  71.3542023  63.3329010  13.8006811  84.5145111  66.7051620  24.0171108
  85.2293396  66.1999817  24.4044647  84.5452499  66.4880447  23.0853653
  72.3191910  26.0364265  22.7383823  72.5212555  26.9463253  22.9562874
  72.8081207  25.5220547  23.3807240  82.1394501  54.2004738  11.5108957
  81.4665680  54.7830734  11.8630981  82.2396317  53.5201454  12.1767397
  63.2825661  46.9616776   1.6895406  63.9209557  46.3604698   1.3058243
  62.9742050  47.4868889   0.9510958  39.6349945  30.4571629  22.2412453
  38.7043228  30.2872372  22.3868752  40.0419464  29.5909195  22.2569065
  76.3145523  45.1459579  24.4931107  77.1711121  45.5557747  24.6138954
  75.8565216  45.7237701  23.8827229  70.3844452  71.5758743   6.7305279
  70.5637589  71.4105148   7.6561275  71.0766602  71.1065598   6.2648940
  76.8211975  41.2657623  55.6892090  76.5563507  41.2859421  54.7695999
  77.6012650  40.7111702  55.7016792  69.9478760  44.6538086  66.5114365
  69.7719116  45.4219475  65.9680862  70.9026566  44.5893936  66.5331116
  70.9457092  23.7354164  46.9329987  70.5465088  24.3438797  46.3111954
  71.4596558  23.1392250  46.3883400  28.3916531  37.0365982  14.7599783
  29.0773048  36.9062233  14.1049080  28.5042686  36.3097115  15.3724995
  24.0834408  13.5748262   3.8293023  23.8436317  14.0155802   3.0141582
  24.0468597  12.6421785   3.6170268  53.2101669  10.0804911  23.8296165
  53.9124260   9.4348555  23.9085026  53.0756798  10.3983860  24.7224140
  68.6577759  51.1596069  10.2629194  68.3736801  50.3768997  10.7350368
  68.2693863  51.8868370  10.7492476  43.0640221  42.9052925  66.2710266
  42.2075653  42.6518211  65.9268417  43.4869194  42.0763702  66.4952621
  39.3446655  57.1151810  60.3150406  40.2663574  57.2462502  60.0924721
  39.2161751  57.6263809  61.1140366  78.6945267  10.4255219  81.8990631
  79.6418533  10.4573021  81.7656860  78.3271637  10.4544010  81.0156403
  75.2247467   4.5175400  32.7387733  75.9642258   4.4966636  33.3461990
  74.7903214   5.3512483  32.9188690  37.1436462  54.4631844  51.6398354
  36.3116341  54.9361420  51.6570358  37.7467957  55.0216484  52.1303101
  81.2183380  67.3735886  32.5054588  80.3289185  67.6299744  32.2616768
  81.1869125  66.4182358  32.5558090  25.4322624   4.9568067  83.0645752
  25.9632339   4.6601686  83.8037033  25.0788174   5.8003840  83.3468628
   1.9241078  30.6511288  11.9558458   1.2816286  31.2606812  11.5926685
   2.4981561  30.4411831  11.2192173  26.5152931  55.1328125  33.0406952
  26.0114002  54.5858803  33.6433487  27.1270294  55.6080017  33.6030159
  58.5641975  47.7556992  86.0390549  58.7094765  47.4423599  86.9317703
  59.4386520  47.9735641  85.7164078  76.3685379  53.7628784  34.8103371
  76.1019592  52.9224472  34.4377136  76.6643066  53.5494728  35.6953278
  51.6676826  64.4224854  46.5707741  52.1359978  63.6753960  46.9432869
  50.9470062  64.0313644  46.0769310  50.9052315  56.5566177  38.8877449
  51.2997665  55.6896095  38.7935600  51.6492996  57.1464882  39.0087662
  24.2831955  42.0075340  11.3791485  23.5119781  42.5194435  11.6228781
  24.6441479  42.4650230  10.6197758  61.2990875  50.2294693  59.2111626
  60.4281006  50.5914421  59.0481071  61.4024239  49.5463295  58.5486870
  48.2884903  10.8616400   7.3532844  48.3402557  11.5201292   6.6605043
  48.5710983  10.0493011   6.9332008  41.8412781  43.4736061   4.5336757
  42.1698074  44.3354301   4.7897277  40.9213448  43.4797134   4.7980905
  77.9016266  21.7893009  46.8478622  77.2961426  21.8126259  47.5888634
  77.5951614  22.4849548  46.2661591  28.8861980  31.7119122   5.7660718
  29.7846355  31.9421539   6.0027790  28.7046356  32.2304764   4.9822636
  67.4148483  58.4683189   5.3628697  67.7875290  57.8413582   4.7429829
  66.5438156  58.6599083   5.0152602  46.4315491  40.0888710   5.8991647
  46.3427849  39.5487671   5.1138978  46.7692375  39.4897995   6.5649815
  60.5865517  68.5329742   6.1227622  60.6103401  68.0989838   5.2699351
  61.3356476  68.1714478   6.5964570  40.5740509  40.7948761  35.5169716
  40.6285553  41.1775551  34.6412926  41.4674492  40.5107460  35.7102203
  49.1794930  57.1921158  81.7667999  49.4734344  58.0193825  82.1481934
  49.0710869  57.3830414  80.8351212  85.4452744  64.8401794  42.5080910
  86.1136780  65.4258728  42.8636665  84.7192764  65.4188004  42.2749519
  73.3996429  28.9360142   7.3564754  74.0099945  28.5779457   8.0010643
  73.8521805  28.8392677   6.5185699  29.9922218  59.6094894  76.0820999
  29.5935841  60.2988129  76.6132736  29.2923069  58.9686584  75.9568405
  65.8328934  66.7789154  70.9482193  66.6107330  66.7917786  70.3905182
  66.0881882  67.2737656  71.7267914  84.9862137  49.2322083  58.3800201
  84.8020172  48.4620781  58.9178009  85.9327850  49.3543701  58.4528732
  83.6370621  68.9674530  51.5377808  83.7863617  68.3177490  52.2246780
  83.7744370  68.4880829  50.7207375  69.2975922  56.3151207  60.2364502
  69.9552307  55.7510529  60.6433487  69.7793274  57.1041298  59.9881935
  58.4527168  53.5362320  11.4591150  58.2407188  54.0747986  10.6967249
  59.4023552  53.6139336  11.5506506  71.0401382  10.1129761  84.0093460
  71.5423508   9.8992376  84.7956848  71.1936569  11.0480270  83.8739014
   0.7227633   0.1818964  69.0037308   1.2370961  -0.0296556  69.7827988
   0.1443645   0.8912447  69.2839355  70.0096054  44.7503815   9.5839148
  70.6536026  45.4411507   9.4279032  69.2663574  44.9860077   9.0286722
  49.6434402  11.6477394   2.5904286  49.9177246  12.5336180   2.3533196
  50.0444565  11.4937325   3.4458227  13.0581713  20.2622871  12.4011784
  12.9151764  19.5642529  11.7620144  13.9938374  20.2185726  12.5982780
  71.2002640  66.9107819  19.7994289  71.4688416  66.9943695  18.8844910
  71.6356583  67.6379700  20.2442455  35.9345932  18.7990570  71.2794418
  36.3433342  17.9968681  70.9543915  35.3101044  18.4990273  71.9399109
  63.0334091  70.4887390  45.6684761  63.1497803  71.0495453  44.9015388
  62.4119263  70.9635696  46.2203140  40.0763779  11.6504278  47.5372734
  40.5382004  10.8122301  47.5178490  39.1759796  11.4334536  47.2955360
  33.5393867  36.0998688  68.8861465  32.9548225  36.8571281  68.9189224
  32.9562912  35.3439789  68.9559250  61.5296860   1.2510331   2.4471934
  62.0183678   2.0732691   2.4104698  61.5233879   0.9355873   1.5434865
  42.0104065  51.3156776  52.0747070  42.5567284  52.1015892  52.0851097
  42.1289291  50.9531937  51.1967621  58.1827316  45.1791267  43.2097931
  58.6156158  45.3270264  44.0506058  58.8968811  45.1606293  42.5727081
  56.3791275  29.9251499  15.3287840  56.2042770  30.7896023  15.7007780
  56.9160652  29.4849911  15.9877157  14.2545252  25.9135036  21.2384243
  14.2128000  26.8187580  21.5466518  13.8040314  25.9270096  20.3939686
  76.5009384   7.7215557  45.7108421  76.5520859   7.9572430  44.7845230
  77.3589096   7.9551878  46.0651550  32.0910912  38.2644577  16.9360218
  32.0367661  39.2136955  16.8254128  32.0090027  38.1282272  17.8799133
  65.1719055  39.3626289  42.3936462  65.7841034  38.9868622  41.7609940
  65.4691086  40.2653770  42.5074272  52.3346710  38.9876595  23.1524658
  51.9379425  38.2866249  22.6353703  53.0935707  38.5785103  23.5682755
  19.5152740  58.4603004  29.1324558  19.0554142  59.2823601  28.9622154
  19.3023453  57.9067154  28.3811665   5.5340528  33.4269562  59.3191795
   4.8933368  33.5121880  58.6131706   6.0151434  32.6261482  59.1106339
   6.2032213  50.0769615  56.4192734   6.9726939  49.9487114  56.9739761
   6.0691090  49.2289925  55.9959564  30.7369137  68.1559143  56.4086914
  30.2513237  68.9786453  56.3492165  30.1285686  67.4943848  56.0792503
  66.8310547  28.0189285   1.4193537  67.6749725  28.4659901   1.3547107
  66.8484802  27.3713322   0.7146918  61.0518608  53.8791199   0.9373484
  61.6541595  53.8372955   1.6801270  61.5883408  54.1981316   0.2116407
   7.1994224  57.5527840  86.0173416   6.6940341  58.3656807  86.0207596
   7.6662855  57.5645256  85.1817932  41.7928391  23.4274006  76.9158707
  42.5177879  23.4052830  76.2912140  41.6760178  24.3564663  77.1144180
   4.2605391  25.5494461   6.5813379   3.4805245  26.0840740   6.4330702
   4.1921296  24.8427696   5.9393420  69.6596985   4.3650875  57.4240379
  69.4117661   5.0036578  56.7554626  68.9832382   3.6897976  57.3728142
  51.3801575   8.2827778  65.6068497  50.8463173   8.8695221  66.1425552
  50.8121681   8.0441132  64.8742828  63.5984497  33.3066177   6.7241573
  63.1266899  33.8299599   7.3720670  64.5040588  33.3011551   7.0341225
  44.3311234  44.0834198  79.0615463  43.7065239  43.7493820  78.4177094
  44.0035629  43.7626724  79.9018173   1.2682613  31.5084286  17.6169338
   0.4319387  31.9481945  17.4639568   1.0510720  30.7736359  18.1906395
  50.5500755   4.1603575  65.9461670  49.5950699   4.2176757  65.9160309
  50.7265015   3.2987289  66.3239288  72.3244171  48.1628036  32.9121323
  72.1132050  47.3364944  33.3466835  72.8766327  48.6291351  33.5396881
  68.1901855  45.3106651  78.7027817  68.1744461  46.2566032  78.8483276
  69.1098938  45.0673447  78.8084564   4.9953718  51.3171158  46.1533394
   4.2094550  51.1456833  45.6345177   4.6686058  51.4683876  47.0402298
  78.7127533  53.0032043  26.6163788  77.9516220  53.4976692  26.3123722
  78.8855362  53.3448906  27.4936638  78.1005249  39.3461685  87.9126587
  78.1834412  39.4442444  88.8611984  78.9963684  39.4240570  87.5845947
   0.8891330  46.6409645  65.5994492  -0.0188115  46.6988297  65.3019257
   0.9462013  45.7879486  66.0299530  13.6858139  29.6294422  78.3434219
  12.8819714  29.9316101  78.7662277  13.4301128  29.4589195  77.4369049
  41.5523949  71.0341568  60.1121063  42.0894127  70.9675827  59.3225441
  40.6946526  70.7020950  59.8470802  81.9073486  10.6608744  85.4234924
  81.0253448  10.9317389  85.6782990  81.8904877   9.7055473  85.4809189
  52.7064705  15.7569828   3.8609264  53.6279144  15.5261459   3.9787800
  52.5630417  15.6954679   2.9165344   6.4671555   1.5708698  63.6755028
   7.2381883   1.4284760  63.1264458   5.7254148   1.4519557  63.0822792
  68.8026123  13.5378685  46.6909065  69.0124512  13.9455690  47.5311317
  68.9088058  14.2411232  46.0502930  42.2695656  66.6394196  28.2054558
  43.1447525  67.0264587  28.1835251  42.3912773  65.7526398  27.8662796
  26.9190292  56.6231613   0.3480489  27.5386715  57.0572433  -0.2383357
  27.1500931  55.6956940   0.2966181  11.5543327  30.0814571  66.3287430
  11.1820984  29.2037010  66.4136963  12.4879637  29.9322624  66.1793900
  43.3202133  14.0442047  19.8352356  42.7408714  13.5763121  19.2338428
  42.8229599  14.1011620  20.6511574  45.5452003  13.7030296  74.7697449
  44.8551254  13.0988617  75.0436172  45.4622955  13.7453442  73.8170776
  30.2790966  46.6206589  40.4381294  30.6915874  46.8504448  41.2707634
  31.0110016  46.5042076  39.8323364  64.1774445  27.5216656  60.8686981
  63.8829613  28.3922329  60.6010704  63.6242447  27.3016052  61.6182137
  60.1520233  59.8998146  59.4438667  60.0507011  59.4658661  58.5967216
  60.8475037  60.5420761  59.3023148  66.5569687  10.5535688  50.7242355
  66.2394409  11.4408340  50.5564117  65.8078766   9.9903078  50.5297508
   2.0338385  33.2189217  20.4829769   2.5485833  33.5450668  19.7448063
   2.0675025  32.2662659  20.3961201  61.8716354  68.4703293  41.5330505
  62.2390862  67.6174240  41.3012009  60.9383049  68.3905487  41.3361778
  41.0581932  66.1797104  51.8212433  41.7733688  65.7445526  52.2853470
  40.8321266  65.5783005  51.1117172  64.5213318  45.5100250  64.4093170
  64.0097198  45.1743355  63.6732559  65.2880936  45.9144287  64.0034027
  36.0974274  53.8982315  78.9761887  35.6139488  54.6634483  79.2875137
  36.8502083  53.8350868  79.5640411  23.5116673   7.4210820  58.4793282
  22.9849892   6.8544321  57.9156342  22.8718929   7.9735408  58.9284477
  17.6319637  49.8852310  82.2904434  17.9000969  49.3362541  81.5535812
  18.4059792  50.4113541  82.4912567  66.4578171  41.2902107  58.3353882
  67.0233459  40.5808372  58.6406746  66.4648361  41.2085686  57.3817024
  58.1589470   4.7600241  46.1798668  58.0233040   4.2403359  46.9721756
  58.4098587   5.6259680  46.5014496  48.5654755   9.0744982  75.3604431
  47.9836159   9.6485415  74.8622971  48.0175934   8.3267050  75.5988998
  64.1445694   2.8144629  43.4230728  64.1629639   2.0690718  44.0233078
  64.5504379   2.4860156  42.6208115  59.9143791  17.1109867   3.7777390
  60.8270111  17.1339016   3.4899700  59.7231522  18.0115719   4.0396786
  69.1543350  31.8557301  11.1520882  68.4992294  31.9305840  11.8459654
  68.7560730  31.2692318  10.5089426  74.7454376  18.4693184  42.3792839
  75.6107483  18.1275463  42.1542130  74.1954880  17.6906776  42.4659081
  25.2794762  47.6887474  66.7807083  24.5252857  47.1292877  66.5951385
  26.0350246  47.1065216  66.7007675  31.8415585   4.5549564  85.6860657
  31.9330196   3.6629074  85.3512268  32.1155281   4.4964933  86.6013565
   5.9227614  40.0837593  64.9429932   5.2250876  39.5593338  65.3360062
   6.6250663  40.0739670  65.5932999  85.4421921  13.9100409  25.9829407
  85.5379791  14.8323421  25.7454185  85.8619232  13.8386555  26.8402367
  62.6973572   7.9822335   8.6628857  62.0711174   7.4390736   8.1843157
  62.6305008   7.6825876   9.5695143  39.6714592  33.5984993  61.1423035
  39.4138756  33.9681854  60.2977829  40.1603470  32.8067093  60.9180527
  48.6937752  -0.0999358  47.4339752  49.6229630  -0.1528392  47.6576767
  48.4016609   0.7267715  47.8179779  74.0728531   3.3856971  30.6044693
  74.3127441   4.0671592  29.9765396  74.3978806   3.7090945  31.4447098
  84.0969543  41.0099678  65.3118057  85.0214233  40.9496307  65.0710678
  83.7966080  40.1015015  65.3384628  21.6260452  39.8261070  64.7034607
  22.2571774  40.4505310  64.3456879  21.3382359  39.3160477  63.9463348
  13.2321224  42.0516968  18.8037357  12.3282957  41.9934120  19.1134644
  13.6934681  42.5218201  19.4982662   5.9832201  47.8466988  73.1114197
   5.1769848  47.7649231  72.6019745   5.8870721  47.2063904  73.8163910
  61.4601593  45.8220139  23.7797375  60.5760345  45.7111435  24.1294003
  61.8742447  44.9674530  23.9001217  60.6833076  32.9151306   4.1911182
  59.9665871  32.5868301   3.6481984  60.2847977  33.0659943   5.0482440
  82.3817596  56.7223892   1.1198893  82.6916580  56.2523460   1.8940014
  81.7493820  57.3548660   1.4609325  83.8149109  46.4482307  55.8962326
  82.9729462  46.1662407  55.5387230  84.1320114  47.1030350  55.2742119
  82.5576401   9.7353306  57.0905991  83.3558197  10.2634029  57.0738907
  81.8960571  10.2880039  56.6745567  14.9163885  69.4721375  54.4934425
  14.5804625  70.1323242  53.8871994  15.2107382  69.9731369  55.2540932
  61.1533546  60.8046608  47.6007690  61.0048256  61.4040871  46.8694305
  60.3278503  60.8087845  48.0852814  53.7981148   9.5546093  47.3386497
  54.5739174   9.6060362  46.7803307  54.0439148  10.0265884  48.1342964
  73.8722076  63.9650421  49.0116272  74.6680756  63.7383232  49.4926872
  74.0629578  63.7229919  48.1053925  61.8551788  29.3935585  42.7281342
  61.4093513  28.6843834  43.1913223  62.7750778  29.3002644  42.9757538
  69.3136063  54.7285042  10.6881132  68.6150818  54.2019539  11.0767517
  69.0266953  55.6336708  10.8088846  68.0539017  69.1468964  78.2166138
  68.6230087  69.8680496  77.9477386  68.6512756  68.4927368  78.5791702
  84.2442169  36.1976471  53.5422058  83.8813248  37.0740395  53.4138527
  84.8521500  36.0808601  52.8121338   1.7853848  33.2550621  85.1403198
   1.9590909  34.1697693  84.9181290   1.0775678  32.9955673  84.5504990
  35.9487267  65.3880234  31.5109425  35.4680061  66.1314545  31.1470108
  36.2225189  65.6819916  32.3797646  17.2123985  56.4968224  11.7732096
  17.4373169  55.6767349  12.2126465  16.2805080  56.4126549  11.5713940
  69.0822678  61.4913826  27.2581921  69.6961212  60.9244003  27.7250404
  68.7011566  60.9283409  26.5844212  84.2438812  46.8637962  47.3951416
  83.4517899  46.3576851  47.5759010  84.9538345  46.2237816  47.4458771
  10.4115391  61.4841194  86.5332718  10.0059080  62.1704636  86.0035324
   9.9068127  61.4795265  87.3465805  18.0323296  63.7186890  58.7231522
  17.3813705  64.3187256  59.0870743  17.9574070  62.9297447  59.2599792
  48.1416130  28.0249290  46.0096169  48.6231880  28.7734032  46.3619003
  48.0933800  27.4065285  46.7386475  71.9203033  11.9838600  76.9891434
  71.6983871  11.1943102  76.4955902  72.2382431  11.6584234  77.8313065
  23.0603886   7.1007442   9.9888201  22.5859985   6.3142662  10.2583332
  22.3854504   7.7760773   9.9208803  42.9854393   2.8697650  24.1623745
  43.5711746   3.5237660  24.5437241  42.1063118   3.1800096  24.3794308
  65.4820633   3.0659831  31.4340305  65.1034470   2.8283887  30.5876083
  65.9399948   3.8901198  31.2687111  68.9135590  55.4485931  23.3171310
  68.0859299  54.9676933  23.3194008  68.8949051  55.9612465  24.1252556
  17.3691826  56.4094353  49.4249306  17.2726727  55.4574242  49.4006348
  18.2876797  56.5512924  49.6540031  59.8345528  47.0646324   8.1938028
  59.6946144  46.4937134   8.9492502  60.6557541  47.5177765   8.3849001
  48.9040642  37.1805382  88.2413101  49.1776733  36.4482765  87.6888885
  49.6640511  37.7621155  88.2618179  15.7043638  68.3475189  14.0246649
  15.8595572  67.7652817  14.7684069  16.0593910  69.1916809  14.3031797
  61.8836060  27.0735931  81.7667389  62.5280762  26.9435959  82.4624329
  61.5339813  26.1987286  81.5976028  51.1537285  65.5481033  27.8244534
  51.9019203  65.1878433  27.3483753  51.5295715  65.8969040  28.6327324
  57.9189835  19.8833847  68.0387726  57.9104271  19.5785103  67.1314621
  58.0076332  20.8340702  67.9711685  51.4471321  18.6435184  68.3399658
  50.9964561  19.4870949  68.3787155  52.2839317  18.7986813  68.7780609
   3.6121559   2.4157166   1.6110824   2.9243932   2.6104183   2.2477188
   4.4259772   2.4778273   2.1111517  79.6441345  25.4586773  74.9025574
  80.4872055  25.4871178  74.4501648  79.8636551  25.2212505  75.8034897
  31.8259735  46.4301605  35.9622078  30.9641304  46.0411530  35.8134422
  32.4447861  45.7419205  35.7180138  71.4329834  56.2553978  67.8136597
  70.9913559  55.6562996  68.4155579  71.3259506  55.8516769  66.9523926
  12.3337851   9.3468571  12.7444792  12.0798578   9.2670097  13.6639223
  13.0307789   8.7005854  12.6315002  55.2199898  40.1466827   6.9139709
  54.5161629  40.3579559   7.5273438  54.7921104  39.6399536   6.2237687
  53.6398582   8.3586521  69.4479675  52.7103004   8.2153711  69.6258011
  54.0677452   8.2341862  70.2951126  64.2684631  69.4511261  20.9498711
  63.9610100  70.1132889  21.5689392  64.1729126  69.8632736  20.0912457
  38.8075523  53.6327209  22.3614941  39.5568542  53.7250824  21.7730694
  38.9950905  54.2319489  23.0839806   9.9185162  27.9333992  66.0469513
   8.9846277  28.1053448  66.1674423  10.1209192  28.3019505  65.1870499
  25.1170406  10.0508223  49.7307968  24.2904797   9.6194115  49.9473915
  24.8565235  10.8689203  49.3076210  62.0399094   8.6979465  41.0597115
  62.4235344   8.4071617  41.8870621  61.2154732   8.2158642  40.9954491
  61.8460884  41.4911804  32.3521156  61.5381050  40.9661789  33.0908661
  62.2065048  40.8518143  31.7376671  16.4073219  36.6696281   3.2871106
  17.0732822  36.9132576   2.6441684  16.8369789  36.7892456   4.1340566
  28.3475323   8.5170116   2.3699622  29.1721134   8.8095827   1.9817609
  28.5491447   8.3964090   3.2978845  78.5982361   5.6289935  45.2318382
  77.7507401   6.0311451  45.4222641  79.0851059   6.3068676  44.7631416
   5.3590665  25.1798668  74.4348526   5.4935145  24.9954052  73.5052719
   6.2405691  25.1853333  74.8078918  53.6968613  29.3008690  55.0959625
  53.7564011  28.3662720  55.2939949  52.7658463  29.5053673  55.1832962
   8.1041098  64.8424072  80.2263718   7.5122452  65.4504929  79.7834702
   8.8967581  65.3542480  80.3874969  71.2179947   5.8097005   1.4378349
  70.5359955   5.7190704   2.1033385  71.2276459   6.7441216   1.2304798
  78.9851379   1.3142226  43.3076057  79.0739975   0.7923529  42.5101166
  78.0413666   1.4374864  43.4092674   1.9910938  50.0210571  61.0577850
   1.3635854  49.7344704  61.7213593   2.3348634  50.8484268  61.3947067
   6.6988587  63.8213425  43.3689804   6.7489924  64.6672516  43.8141251
   6.9780555  64.0057068  42.4721603  16.7781219  15.0146723  70.7677231
  15.9431992  14.9858332  71.2349472  16.6675529  14.4009027  70.0415726
  26.6758251  44.4497223  24.9428253  26.0751610  44.4927216  24.1987915
  26.6236820  45.3175964  25.3432083   7.0366588  60.0470772  60.6114693
   6.9513869  60.9408569  60.2796249   6.6419744  60.0765076  61.4830132
  84.3016891   0.6211473  21.1446075  84.3727417   1.5246811  21.4525204
  84.6643753   0.0958228  21.8578548  64.4319229  24.9582062  41.5667191
  64.8018494  25.6259289  42.1442375  64.3017197  25.4087219  40.7322655
  80.4084930  51.7359276  21.9676743  81.0521774  52.4368706  21.8647900
  80.1748428  51.4919586  21.0720634  12.3231297  55.5343361  75.4921265
  11.8619518  54.7628441  75.1629639  13.1673422  55.1983795  75.7932434
  24.7972488  56.4942741  71.6899872  24.0800705  56.9734344  71.2749023
  25.1154976  55.9019775  71.0087128  16.7290859  40.1784706  67.8718185
  17.0280094  40.7226448  68.6003418  15.8030434  40.0202713  68.0552597
  33.0916519  40.0360260  21.5624924  33.5519829  39.8346252  22.3772106
  32.3242683  40.5371628  21.8385620  27.1025429  18.7062950  80.1190948
  27.1943951  18.5300827  81.0554428  26.7609825  17.8899803  79.7541351
  46.6970367  61.6190109  71.5580978  46.0903473  62.3588867  71.5853958
  46.9771080  61.5725327  70.6439667  54.2083206  41.8580513  64.9598312
  54.5096436  42.4177361  65.6755066  53.3090248  41.6306152  65.1959839
  17.2784500  12.2918825   4.7532735  17.0749283  11.8796635   3.9136987
  16.5291576  12.0823574   5.3108511   2.5915360   9.6265335  32.5224304
   2.3196554  10.5394335  32.4279518   2.7539396   9.3310537  31.6265793
  84.2435913  43.7793884  74.6143417  83.5354996  43.2367287  74.2674103
  84.6809158  43.2205238  75.2567215  75.8897095  41.5591164  80.8427734
  75.6660995  41.4278564  79.9213638  75.1603088  42.0684319  81.1960526
  19.5425110  68.6342697  79.9511261  18.8070679  68.5435944  80.5570374
  19.9883747  69.4328537  80.2334442  73.8748856  71.4160919  36.7817230
  74.6597748  71.3384476  37.3240776  74.1685181  71.1837616  35.9007950
  56.1341858  59.3013802   6.7712145  55.6160545  59.8632851   7.3474417
  56.3394356  58.5343819   7.3058372  45.4744720  29.7232208  19.0823250
  44.9529953  29.2654877  18.4229527  44.9249649  29.7211037  19.8660793
  73.7457581   4.6878490  56.9725571  73.0990677   4.3525419  56.3515892
  73.3469772   5.4820209  57.3282204  62.0831108  23.9724922  66.5935135
  61.2672653  23.9833241  67.0940247  62.7308731  24.3587265  67.1829681
  75.3834763   9.4553766  30.0105400  74.6610184   9.8084269  29.4912720
  75.2959900   9.8812370  30.8633118  78.8097458  63.6519852  68.1346741
  78.5534134  64.5630951  67.9918518  79.6755981  63.7073402  68.5389862
   3.0695610  15.0427561  88.2419739   2.9652431  15.9430151  88.5500031
   3.9224803  15.0355625  87.8075714  24.3163910  63.2682419  74.3208847
  25.0669537  63.8608818  74.2800446  23.7361279  63.5680618  73.6211472
   6.6952696  27.0603924   5.6744633   5.9542546  26.4580441   5.7400742
   6.2949152  27.9287300   5.6304564   2.0643485  14.8840418  46.0449562
   2.2583535  15.4150391  46.8173790   2.9226213  14.6748114  45.6764145
  44.7842216  52.1541595  53.9361763  44.4529839  51.3982735  53.4512520
  44.8362770  52.8529701  53.2841110  81.8166656  20.5868511  16.0584564
  81.7757721  20.3203754  16.9769058  80.9277496  20.4518166  15.7300797
  45.7563858  69.9237976  85.6169968  45.2005463  70.1060257  86.3746719
  45.6494331  68.9853592  85.4616623  50.0150795   7.0742087  17.0360165
  50.1363449   6.3522544  17.6527081  50.0337219   7.8606830  17.5813084
  28.8592033  64.9922638  30.5964870  29.0731506  65.8153305  30.1571426
  28.2388248  65.2407761  31.2817650  83.2769547  57.4254150  75.8804855
  82.3809204  57.5537758  76.1917343  83.7991104  58.0431442  76.3923416
   9.9764671  63.6661301  56.6325378   9.6989527  64.4432297  57.1176491
  10.7949505  63.4013519  57.0523148  80.0379028  53.0990372  70.6181793
  80.8747940  53.0742111  70.1542587  80.2776413  53.0984955  71.5448761
  44.1862526  69.1839371  39.1707840  44.7397537  69.0397034  38.4032822
  44.7115021  69.7431107  39.7432098   9.5836306  60.9813690  21.9314537
   9.2144156  60.3286438  22.5263176  10.3029146  60.5264740  21.4933529
  77.3013077   3.8242080  12.6489496  77.7960205   4.6121306  12.8740520
  76.3985977   4.0308475  12.8910942  16.8880711  28.3853683  17.9666538
  17.5167885  28.6628628  17.3003654  17.2914143  27.6175060  18.3715401
  47.9115257  41.6409454  19.5054455  48.8399696  41.5938339  19.7334900
  47.8840790  42.1968613  18.7267056  85.0564804  44.4654732  59.8293228
  84.6304321  43.7627449  59.3385277  85.4576416  45.0173798  59.1579781
  15.5183182  58.7539215  42.4496536  15.8131685  59.2411270  43.2190247
  14.5650473  58.7291641  42.5326767  80.8541183  66.9313660  11.7245836
  80.9728012  67.5768509  12.4213543  80.0400620  66.4815598  11.9509048
  33.1590958  21.0048943  71.9694595  32.5990028  20.3135014  71.6166077
  32.9134102  21.0643501  72.8926773  23.8545761  68.5415497  68.9708252
  22.9628181  68.2024841  68.8931580  23.9205265  69.2021942  68.2813110
  41.1139870  46.7287064  14.5417280  41.2258606  46.7610626  15.4918175
  40.1737785  46.6010132  14.4154835  68.2329636  28.1911793  54.0435333
  68.3784027  28.6357441  54.8786621  67.9638367  27.3055363  54.2873344
   1.4697936  65.2403107  38.5648994   1.1264163  66.1330643  38.5287323
   1.9068080  65.1174545  37.7221909  85.0752029  50.7920341  67.2614365
  84.4468002  51.1984329  66.6646271  84.5628891  50.1421280  67.7424698
  34.2013435  69.9501419  -0.1091662  34.2007904  69.0543137   0.2280561
  33.3951263  70.3356628   0.2337907  69.5250092  42.1336212  36.0022926
  68.8119125  42.2145538  36.6356773  69.2337341  41.4491730  35.3998604
  65.2660522  38.7530289  47.4108772  64.3220062  38.8406219  47.5424995
  65.3650055  38.6184082  46.4683685  47.0829887  16.3933449  13.8181858
  47.0668831  16.0325451  12.9317341  47.8297272  15.9656410  14.2373295
  44.0570641  45.8849602  85.2933350  43.9574127  45.0005493  85.6456451
  43.3461952  45.9712524  84.6581573  62.1764984   5.0744290  12.2570019
  62.1040077   6.0275574  12.2067699  62.3530884   4.8960056  13.1806974
  42.9902840  12.2347679  74.5722733  42.8400459  11.7938528  73.7360611
  43.3196640  11.5464659  75.1501846  86.2833710  45.9500313  57.9604111
  85.8251877  45.6144638  57.1898956  87.1857758  46.0752792  57.6667976
  10.0523558  33.9018745   9.9232655   9.5035248  34.6671982   9.7521009
  10.8144341  34.2520065  10.3846493  29.9128857  37.2831116  85.4570465
  30.2572842  36.5833855  84.9020615  30.2609692  38.0874023  85.0720978
  63.3145180  52.9894218  49.3233604  64.1077728  52.5006523  49.5426369
  63.4087601  53.8203621  49.7890739   7.4711261  33.0775452  41.3388367
   7.0072727  33.3517456  42.1299706   8.1577444  33.7344971  41.2239342
  77.3247681  46.1560135  71.8801727  77.7804260  45.7926254  72.6394882
  77.9322815  46.8042755  71.5239182  43.9338036  25.3054829  85.1730118
  43.1907883  25.8131542  84.8467789  43.6533394  24.3935852  85.0954742
   9.2290850  68.2340546  42.9050217  10.1663017  68.4261551  42.8740883
   8.9030323  68.4925461  42.0429878  21.4701710  28.2670670  70.5650177
  21.7813702  29.0601120  71.0014420  22.0780201  28.1403465  69.8365326
  68.4103851  12.5693741  67.9227982  68.0468445  12.7277718  68.7939911
  69.3337173  12.8092184  68.0013351  61.2455368   4.6518350  34.7608604
  61.3601532   5.5978265  34.6703339  61.5135612   4.2959414  33.9136696
  29.0242348  22.6935940  72.4546661  29.5328121  22.4962959  71.6681213
  29.0073738  21.8698387  72.9418716  12.4109144  64.0506668  48.4588394
  12.9151659  63.9242477  49.2625656  12.8509083  64.7733536  48.0112190
   9.1888905  48.4393311   9.6432047   9.1738796  47.9295883   8.8331614
   9.8528452  48.0109634  10.1834822  60.8205338  20.8529854  55.7102242
  60.7319641  20.5607243  54.8030472  59.9427338  20.7568436  56.0796165
  32.8423004  66.8075180  24.6155472  32.3760910  66.3391418  25.3080063
  33.2007103  66.1165848  24.0584240  66.7196960  24.3257065   4.6238060
  67.6561508  24.3175335   4.4257579  66.4532166  23.4086170   4.5592341
  85.3366165   6.8376040  24.6709309  85.3526154   7.2278571  25.5448170
  85.0669403   7.5524468  24.0942955  78.4902267  28.3427372  22.1141586
  78.1967697  28.4315281  21.2073898  79.3679962  28.7244568  22.1202908
  70.3314743  53.3365898  37.3846207  69.6055679  53.9141769  37.6206055
  69.9095840  52.5571594  37.0230560  15.7829123  53.0388794  72.1358566
  16.0224190  52.8898430  71.2211685  15.0837908  53.6915321  72.0970993
   7.4684658  57.8320923  69.9073181   8.3610592  57.4969292  69.9920273
   7.0372100  57.5734634  70.7217865  52.0100060  58.9855537  69.7117386
  51.1275787  58.7561798  69.4202805  51.8719635  59.5440178  70.4767838
  61.6973953  31.3778534  55.7759171  61.2453461  30.6462841  55.3555756
  60.9980507  31.9863739  56.0143585  83.6692886  46.1652718  69.0428314
  83.4380646  45.7808075  68.1972809  84.6239929  46.1067581  69.0795059
   2.7717187  27.3557606  22.4856167   3.2964449  27.4475536  23.2808971
   3.4135244  27.2087803  21.7908421  51.2803421  64.9843979  33.5429535
  50.7758141  64.3483505  34.0500259  50.9336815  65.8348694  33.8126945
  80.4909821  65.3341064  73.4188538  79.6062469  65.0280609  73.2193069
  80.3606186  66.1777802  73.8517990  74.1178360  63.0387039  72.9021301
  74.9421463  62.6076927  73.1278992  73.4507751  62.5443687  73.3784637
  71.4265747  59.9101906  51.2966995  71.0909576  59.7846375  50.4090996
  72.1680527  60.5061150  51.1903305  38.4737778  24.8587360  85.6569519
  38.7741356  24.9090595  86.5644150  38.0219994  25.6893253  85.5077896
  34.4367638  50.0472488   9.2355556  33.9644394  49.9326897   8.4109221
  34.3066254  49.2220039   9.7027502  46.6494560  41.3687515  34.2752876
  47.5577888  41.0878944  34.3861084  46.2579041  41.2607079  35.1420326
   6.3800120  45.0243034  59.5940895   6.0440745  44.2451134  60.0370789
   7.3272529  44.9852219  59.7261467   9.7760992  48.0346718  61.9265938
   9.6982994  48.9530869  62.1848526   9.5538244  47.5437622  62.7176895
  47.1550980  38.5871048  56.9460106  47.4643440  37.7250748  56.6676216
  46.2007713  38.5134583  56.9374809  45.6690941  58.0928040  34.4581413
  45.4668732  58.7675018  33.8099747  46.3216057  58.4976006  35.0296326
  42.6243820  50.4612923  49.2893639  43.1506157  50.6897278  48.5231247
  41.7782898  50.8805084  49.1324730  56.7513466   4.9951668  26.5750713
  56.4066238   4.2423763  26.0947514  55.9744911   5.4354987  26.9198017
  48.2048340  51.2454147  71.7255020  48.3574905  50.5207558  71.1190414
  49.0718536  51.6251335  71.8680573  30.0009785  57.2891922  64.5751724
  29.8838921  56.8371391  65.4107361  29.2975769  56.9525261  64.0200882
   2.8879058  54.3442955  51.9408150   2.7594748  53.6639175  52.6017380
   2.3586040  54.0580559  51.1964111  75.1632919  10.9587307  52.2430382
  74.4632874  10.3649225  52.5143738  75.7836380  10.9465752  52.9719124
  39.7045784  58.2733727  83.1682434  39.6579514  58.0828896  84.1051407
  40.6418953  58.3108673  82.9778137  69.2392044  41.1364403  40.4048996
  69.7979736  40.8026505  39.7030487  68.6702957  40.3999557  40.6288757
  10.1461048  67.4458771  87.5405502   9.2538509  67.2955627  87.2282639
  10.4871349  66.5700607  87.7218704  27.6499233   9.7245817   6.8250732
  26.8682652   9.9498835   7.3295326  28.2576618  10.4453907   6.9903679
   4.8201003  23.5875931  48.0027046   4.8215451  23.6216774  48.9592972
   5.1581516  22.7168407  47.7935600  10.6299496  50.8036613   6.8171420
  10.4052887  50.3515587   7.6303840  11.5851908  50.8629990   6.8321080
  75.7910538  47.7770157   5.1964335  75.3822784  48.6221542   5.3831820
  75.3043213  47.1516838   5.7333484  73.5708847  15.1244631  66.0040283
  73.6789017  15.4792662  65.1215973  72.8233414  14.5307817  65.9336166
  16.9897308  40.5907822  33.9313431  16.0489845  40.7019653  33.7939873
  17.3933563  40.9951744  33.1633682  40.8321648  24.7687931  12.0293541
  41.5156136  24.2518940  12.4559040  40.0185051  24.4740295  12.4383850
  11.8647785  49.4068375  66.6806259  10.9496851  49.6851311  66.7179108
  12.0551748  49.0907593  67.5638428  16.7834167  58.1687088  70.9652100
  17.2228260  57.6342545  71.6266479  16.3356037  58.8500748  71.4666443
  26.5664196   2.8962696  58.8194199  26.2208996   2.6536305  59.6784744
  27.3233986   3.4491503  59.0131683  71.3496399  50.1304131  74.0723572
  70.9739304  50.6421776  73.3559952  70.6545486  49.5214806  74.3219299
  65.5368195  58.0737686  23.6340160  65.8379898  58.9435425  23.3712978
  65.2500763  58.1833267  24.5406628  66.2838745  62.3182220   0.4921037
  66.2949142  63.2517509   0.2808428  65.3661423  62.0624962   0.3993134
  75.3748169  63.4014664  53.4318810  74.5472260  63.2941704  53.9007187
  76.0388412  63.4269371  54.1208382  27.2022247  59.3610077  36.1661339
  27.2413311  59.3681221  35.2097588  28.0361252  59.7408867  36.4427795
  25.7259083  27.1694431  66.7664261  26.3254318  26.4578705  66.5417862
  25.9825764  27.4284821  67.6514435  29.3040371  37.4317932  18.9513512
  28.9556808  36.5650101  18.7426186  30.1763840  37.2602768  19.3060703
   3.7272422   6.0721402  80.0678482   4.3392353   6.3002524  80.7676010
   3.1935034   6.8580527  79.9508133  53.7574234  71.0555573  24.9710732
  53.2419739  71.0068970  25.7761669  54.5514183  70.5571747  25.1645355
  50.3298225  52.7944717   2.6957247  51.1054153  52.8373528   3.2550504
  50.6726265  52.5872650   1.8263680  18.7851868   5.5608778  60.4353676
  19.6646862   5.1903567  60.3617096  18.8115540   6.3498387  59.8940010
  59.2086868   6.4638953  56.8066483  58.7071495   6.1108041  57.5415077
  59.7330933   5.7251596  56.4976196  80.4064865  13.2004280  35.4147530
  80.7894897  13.7381191  36.1078835  80.4889679  13.7340965  34.6244202
  69.0298004  66.9912872  35.9387550  69.8850174  67.2353363  35.5848007
  68.6092377  67.8258667  36.1457329  61.1771622  71.0439911  82.3168869
  61.2454414  70.9389191  83.2658463  60.6130142  71.8084717  82.2005310
  42.4748955  65.0317459  86.0399704  41.7023048  64.4959412  85.8603668
  42.8543816  64.6475220  86.8302841  70.4870453  30.6477165  49.9063950
  70.1425400  30.1464386  50.6454926  70.5219803  31.5498829  50.2243652
  86.0988007  64.8979416  50.5365829  86.9360657  65.0256042  50.9825859
  85.7697372  64.0665512  50.8782616  22.3019829   2.1970224  20.8711472
  21.7324257   2.8217452  21.3200970  22.6060886   2.6658015  20.0939732
  21.2711048  44.7313538  41.4842415  21.3183098  44.5635910  42.4254417
  22.0551395  45.2461166  41.2930870   5.5858140  41.2334824  32.9482231
   5.2682014  41.5245590  33.8029938   4.8215322  40.8353157  32.5316086
  31.6841869  69.6710663  19.6733665  31.7465134  69.6871948  20.6283989
  30.7467403  69.7417908  19.4932976  40.5499153  55.3507996  83.7727585
  40.9188728  55.3777351  84.6555862  39.8543396  56.0082855  83.7837143
  52.0400467  67.1043015   7.5208640  52.8795738  67.3745193   7.1488280
  51.6341248  66.5734558   6.8355432   5.4313917   3.5161376  15.6728821
   6.1454105   3.4733083  16.3089447   4.7746029   2.9061234  16.0086555
  71.1657639  37.3449440  47.8485527  70.6124191  36.5863075  47.6627808
  70.8758392  38.0112000  47.2254333  62.9807434   7.7164779  68.6019669
  63.7630043   7.4683976  68.1092606  63.2198219   8.5365038  69.0339737
  37.3443069  70.3505325   4.9258137  37.4887276  70.6017227   4.0135207
  36.7574463  71.0240326   5.2696528  46.3528824  39.7412071  36.8179626
  46.5668716  40.5369415  37.3050423  45.4446869  39.5526581  37.0543098
  34.4343262   3.9126279   8.3105288  34.6053200   3.5308030   7.4495974
  35.2093506   3.6936760   8.8278589  21.4794846  30.7900982  22.8113441
  21.1801071  29.9787560  23.2216263  22.2528172  31.0424309  23.3158417
  62.9376373  33.2799492  77.7130280  62.0750847  33.1118774  77.3335724
  63.2790565  34.0211906  77.2128067  78.1442719  44.0658798  47.3708916
  78.4090652  43.1678810  47.1716118  78.4238281  44.2027435  48.2760696
  34.1648865  69.7763443  56.0156059  34.9874115  69.6907425  55.5335693
  33.5043297  69.9216156  55.3382645  41.9213486  51.2153397  72.4566040
  42.5218277  51.3670921  71.7267838  42.2066841  51.8293877  73.1331787
  55.2003937  63.1449089  20.7412872  55.4198494  63.2241096  21.6696167
  54.9181938  62.2360420  20.6385765  30.6858540  70.3156357  85.2984390
  30.2767582  70.1169739  86.1407013  31.4808006  70.7977905  85.5260773
   2.4203043  67.9541550  44.8285637   3.3536415  68.1525650  44.9043884
   2.0201619  68.3944168  45.5784225  67.4916153  36.8832588  27.8274574
  68.1918564  36.3390541  28.1876469  67.3573532  36.5456543  26.9418888
   5.1391063  40.8517036   7.0966873   4.6631789  40.0542755   7.3287024
   4.9525766  41.4588776   7.8127732  65.5878525  58.0987778  15.5543079
  64.8228760  57.5960350  15.2745066  65.3979645  58.9961128  15.2805090
  86.5243454   0.9753287   3.9819496  86.2731857   0.2884563   4.5994921
  86.0730896   0.7441657   3.1700606  56.5833435  57.6282845   8.8298969
  56.1200790  56.8269348   9.0737467  57.1777267  57.7934723   9.5617800
   9.6534386  54.7882576  37.3160820   8.8278322  54.4851799  37.6939049
   9.5031414  55.7137032  37.1232262  13.0319538  55.6147804  69.5092468
  13.1472864  55.3543053  70.4230804  12.1251192  55.3844643  69.3071671
  62.4310188  12.1267405  58.0973320  62.2005730  11.4547873  58.7388992
  63.2060699  12.5522451  58.4640350   0.8962686  10.6195126  12.0807962
   0.6664143  10.0295057  12.7986336   0.0542688  10.8967619  11.7196846
  47.8144035  15.1300564  56.2458763  48.5865440  15.6948977  56.2772522
  47.2616806  15.5174427  55.5671539  52.4986420  16.2680511   1.0595213
  52.4732742  17.2246342   1.0827354  51.5876312  16.0012436   1.1824219
   5.6873684  41.4947853  35.8069496   6.2607956  41.7170525  36.5404396
   4.9224024  41.0893974  36.2152634  60.0557404   2.8239775  22.2756138
  59.5791702   3.0446205  21.4753456  59.6754036   1.9926840  22.5593910
  36.3886871   1.7606944  77.6092148  35.6344795   1.6353168  78.1851349
  36.5121651   2.7094274  77.5793839   4.4908547  38.6828384  55.8523064
   4.9074407  39.2727470  56.4805527   3.5736558  38.9563255  55.8387756
  63.1991234  34.6877899  84.3358231  63.8219948  34.4610634  85.0263748
  62.3397026  34.5735245  84.7415009  34.7935791  53.5187645  48.4820709
  34.6102066  54.3897285  48.8342476  35.2105141  53.0507889  49.2055321
  73.0889435  29.3275127  27.9211407  73.8189774  29.9276009  27.7689095
  72.3111420  29.8847313  27.8936481  32.0358047  36.1595993  15.1049385
  31.1776810  35.7547379  15.2312031  32.1009941  36.8067207  15.8072329
  80.8160400  17.1547852  48.9228401  80.2137756  17.7770557  49.3306313
  81.4453583  17.7027588  48.4538918  38.4582367  48.2041931  35.6352577
  38.6773987  47.8495827  34.7736015  38.9128380  47.6312447  36.2527504
  26.1339664  57.9591370  38.5406151  25.7248764  57.1501312  38.2333870
  26.3368721  58.4437714  37.7404976   3.0323184  47.0541420  60.6109314
   2.7288525  47.9576645  60.6991615   3.9191380  47.1325912  60.2593231
  84.4036026  13.9448462   1.9703546  84.0675278  14.8354578   1.8698703
  83.7586212  13.5066833   2.5255511   1.6874846  63.6282578  46.4848099
   2.0838048  62.9455643  45.9434319   2.3531215  64.3146362  46.5300293
  24.6443691  55.0307236  87.1780472  24.8000126  55.6112366  86.4330521
  25.4671173  55.0428162  87.6670990  57.9514503  33.1705475   2.3554411
  57.8798294  32.2184563   2.4234645  57.0936775  33.4954262   2.6291423
  29.9744225  58.1264496  41.3269844  30.2441750  58.8990059  40.8303795
  29.2929363  57.7223625  40.7898369  30.7580833  49.0497627  26.7137222
  31.2593689  49.8151855  26.9949150  30.1681728  48.8678360  27.4452534
  32.8694344  19.6660748  15.6314106  33.2318497  19.3441639  14.8060265
  33.6108742  19.6608295  16.2367783  54.2816315  60.9789886  77.8558426
  54.2905045  60.0245247  77.9276276  54.1675186  61.2857819  78.7553329
   4.2257047  35.4005394   8.3131199   4.8670192  35.7809105   7.7128987
   3.9868026  34.5655556   7.9106765  39.3855476  67.3923264  62.0479813
  39.2808189  68.1952133  61.5374603  38.7286148  66.7943802  61.6914368
  23.0728073  56.4065132  39.4769974  23.4954205  56.2232857  38.6379166
  23.7516689  56.8345795  39.9986687  23.2471828  56.4427109  43.3284988
  22.9446678  56.0935707  44.1668396  22.4562969  56.4963570  42.7919807
  70.8358612  36.7469406  50.6271248  70.7410812  36.8984947  49.6867638
  70.0428848  36.2711220  50.8741608  62.8784943  34.5432396  27.1812935
  63.2069321  34.8694115  28.0191307  61.9333954  34.4623299  27.3096390
  44.9606094   2.9401808  21.4017086  44.2627831   2.3344417  21.1520061
  44.5094795   3.7658906  21.5775394  85.4733963  61.0287514  11.2333279
  86.1175461  60.4143410  11.5851851  85.3687439  61.6861000  11.9212027
  21.7910271  59.4419174  23.3641968  21.1468182  59.9709969  23.8346214
  22.0356808  58.7550697  23.9843731  22.6622982   1.7048888  71.3024292
  23.2543259   1.5005288  72.0262909  23.0593910   2.4638550  70.8752060
   4.4557552  57.7894096  84.4260635   5.2716141  58.0944405  84.0291214
   3.8249509  58.4854088  84.2419434  27.4470596   9.8694897  69.4948044
  27.9760227   9.2199736  69.0316010  26.7617149  10.1091633  68.8710327
  24.3717613  53.7357979  82.3667374  24.5697765  54.6628304  82.4995270
  23.7486820  53.5221024  83.0612488  24.3289146  39.9735641  31.4928226
  24.4349861  40.7413254  32.0545311  24.4565067  39.2280846  32.0795212
  40.3596230  56.0339050  38.4834900  40.9207573  56.7898521  38.6564102
  40.1364059  56.1085548  37.5556793  42.3354073   2.2933674   2.0559001
  42.5876045   2.9701650   2.6840503  42.7699814   2.5481105   1.2419707
  14.8688126  43.0525284  21.0033073  15.2224474  43.0971680  21.8916664
  15.5890102  42.7069931  20.4759045  69.7047577  29.1895218  30.3962345
  68.8113708  28.8480701  30.4350376  69.7598877  29.6197414  29.5429440
  13.5252991  26.0541153  17.9182396  12.9139681  26.1109772  17.1838875
  13.8035450  26.9575291  18.0687523  47.5230255  55.2826691  58.3377609
  47.0437927  54.7881737  59.0026207  48.2247047  55.7176247  58.8222122
  26.9139423  49.3742599  35.4381256  27.7209396  49.3264046  35.9506645
  27.2095604  49.4049606  34.5282364  54.9063416  64.6625366  37.4441490
  54.0990791  64.1631317  37.3210640  54.6499596  65.5726929  37.2954216
  17.7206097  59.3251991  17.9642658  18.2112808  59.1286583  18.7622929
  18.3908291  59.4130630  17.2865353  63.4365997  64.6765671   5.6240935
  63.1268768  63.7708702   5.6285396  64.3886948  64.6044388   5.6914978
  83.9012222   7.3195224  66.6855698  84.4775085   6.7730899  67.2199249
  83.9577255   8.1881094  67.0838089   5.3622484  29.9391212  43.4634438
   5.7874026  29.7389965  42.6295204   5.2652254  29.0891724  43.8928680
   5.0769558   2.6221688  83.6094360   5.0082550   3.5741224  83.6822128
   6.0119314   2.4582305  83.4862442  75.7306061  12.8869944  38.4283676
  75.1952972  13.6565123  38.6220627  75.5996246  12.3087883  39.1798668
  67.3577957  50.1171646  31.4663658  67.2055817  49.5357018  30.7214088
  66.5194702  50.1396980  31.9278183  60.4321175  28.5323105  80.0078583
  60.4065742  28.1343632  79.1376724  60.8737183  27.8830395  80.5552826
  53.0872192   2.9284592   1.7170635  53.8266449   3.5013649   1.9201977
  52.5487175   3.4379973   1.1115749   1.5693123  21.3043346  16.1935940
   1.8810637  20.5640621  16.7142086   0.7343932  21.0077209  15.8314304
  27.4479904  39.8586388   8.6936293  27.8169308  40.1488533   9.5278301
  26.7693367  40.5036392   8.4945555  54.5244827  34.1481667  53.5061569
  54.1879730  34.9751701  53.8512039  54.6401215  33.5955086  54.2790909
  33.3952293  63.6232224  31.4840450  34.0235252  62.9347801  31.2660427
  33.9345551  64.3974457  31.6451073  71.7163925  38.7755051  18.9173832
  71.0700302  38.0695343  18.9102573  72.5525970  38.3362122  18.7624340
   8.5501842   0.5869342  25.6553574   7.7043152   0.1967943  25.8756466
   8.6832237   1.2619145  26.3208904  86.3256378  54.5374641  34.2184219
  86.7324448  53.9968987  33.5412788  85.5938110  54.0099640  34.5384331
  45.5355415  50.8848839  56.8132629  44.8806648  51.3402901  56.2841339
  46.3381081  51.3916054  56.6893654  17.4598064  49.5948715  64.3093567
  17.4088535  49.6545868  65.2633286  18.3970089  49.6256485  64.1171646
  80.8662872  42.1470795  35.6686783  80.5709686  43.0328865  35.8793144
  81.8187332  42.1850052  35.7561340   0.8064183  58.6216164  69.1617737
   0.7199362  58.5457344  68.2115173   0.0504686  59.1438789  69.4301300
  41.2305031   3.2987766   8.9085455  41.4270477   2.9095490   9.7606621
  42.0760803   3.3361251   8.4615183  58.9557381  47.3798256   2.0435400
  59.7781372  47.3387985   2.5316072  58.8144341  46.4842415   1.7366230
  31.1889038   1.5145018  85.6777649  31.6352100   1.1052454  84.9364471
  30.3107738   1.1336665  85.6685944  71.6502228  15.6612329  85.2440567
  71.5550308  15.1828642  86.0676651  72.0795135  16.4803371  85.4910583
  73.4688797   8.0731897  40.5460320  73.5695190   8.3562689  41.4548607
  73.4125214   7.1190219  40.5972137  84.8369370  53.2516670  88.7562866
  84.9608078  53.3581352  89.6994476  85.4912949  53.8284836  88.3621521
  76.6258698   6.3678751   7.6476908  77.3943329   6.0906196   7.1488738
  76.8507080   7.2413526   7.9681830  38.3007889  54.0382957  14.2146616
  38.3429298  53.8858795  13.2706146  39.0850677  54.5512199  14.4097099
   3.1872320  67.7525177  16.2375832   3.3170006  66.8196259  16.0669727
   2.9639633  67.7971802  17.1673088  15.6372471  37.4455757   7.5076036
  16.2072449  37.5270691   6.7429509  15.3972273  36.5192223   7.5297799
  59.8325729  63.4451447   0.1401321  59.0648079  62.8776970   0.2091805
  60.0481834  63.6676483   1.0458016  14.5294085  56.1334915  73.1117554
  15.3169355  56.5792580  72.7997818  14.8382835  55.5700073  73.8211975
  83.0504303   7.9331760  86.5975266  83.3607101   7.0286789  86.5545883
  82.2050629   7.8755116  87.0428009  81.1901474  43.3073463  32.9285202
  82.0859222  43.4722710  33.2228203  80.9104843  42.5414581  33.4299545
  34.4060287  64.9882965  26.8901043  34.9632301  64.5608902  27.5405560
  33.5658379  64.5349808  26.9595070  31.0357857  64.4171219  79.7147522
  30.8952732  63.5385818  80.0678253  30.1599388  64.8008881  79.6717758
  12.6713009  23.3206482  18.4572468  12.6884985  23.3439445  19.4140072
  12.7616615  24.2364044  18.1937008  12.5201302  28.1058979  27.2524738
  13.0815210  28.1188164  26.4772930  12.2898655  27.1837826  27.3661003
  10.4157848  65.9302216  80.9134979  10.4613752  65.5940094  81.8085403
  11.3247271  65.9366531  80.6134720  61.7940369   4.7094164  56.4464645
  62.1217041   4.3965421  57.2896576  61.4751320   3.9215906  56.0061646
  64.4254074  61.7647667  74.8971405  63.8685493  61.9367676  74.1378326
  64.2841187  60.8385086  75.0928802  29.9456348  37.3498116  75.7962265
  29.2286968  37.0976982  75.2142715  30.4950752  37.9252205  75.2640152
  52.5681915  51.0032196  36.9400940  52.3536949  50.1686897  36.5232201
  52.7561569  50.7748680  37.8504562  28.1450272  34.6486282  19.2933426
  27.6296024  34.0962067  18.7056370  27.4941177  35.0933418  19.8362789
  68.0462112  65.8873672  10.6114159  67.2393723  65.3769150  10.6798668
  67.8748398  66.6763229  11.1256332  18.3238182  47.0884933   0.7995157
  17.4760551  46.8562317   0.4205897  18.8040123  46.2613144   0.8372266
   1.9288961  44.3285332  59.7271385   1.7033863  45.1740646  59.3392563
   2.5816197  44.5379524  60.3952141  78.9804840  11.6832676  23.5365143
  79.0063477  12.4052916  22.9086246  79.8987198  11.4468594  23.6676083
   7.8977242  26.6819057  62.1401253   7.5040631  26.6152496  61.2701683
   7.1695647  26.9172688  62.7151184  86.4967117  38.9435387  10.3598671
  85.9279251  39.3264046  11.0277929  86.8011780  39.6920815   9.8468237
  44.6681213   3.0045724  74.9029694  45.1292534   3.8433745  74.9036026
  43.9579506   3.1211925  75.5340729  25.8510513  17.6397018  68.2754364
  25.7207832  16.6920471  68.3102112  25.0842552  18.0032825  68.7182312
  74.9205780  54.7456398  64.4904327  75.3368988  55.5944977  64.6399536
  75.5506973  54.1075630  64.8251572  55.6637306  14.3672199  53.5204926
  56.3131294  13.7037325  53.2874641  55.1668625  14.5094137  52.7148056
  65.6151047  55.8850174  54.9890594  66.0333939  56.2016068  55.7897072
  64.7780685  55.5250359  55.2823563  60.9830437  62.1203995  16.0847473
  61.0608864  62.8412056  15.4597607  61.4231529  61.3850746  15.6583271
   8.1413784  22.8369770  25.3504028   7.5436506  23.1403294  26.0337276
   7.9440670  23.3919888  24.5959091  20.6498737  48.0402794  76.3738327
  20.6528034  47.2512131  75.8319931  21.4244347  48.5270882  76.0922165
  76.1705017  31.5406857  36.3275795  76.8734512  31.8790703  36.8821869
  76.6232758  31.1282578  35.5919647  20.3861904   0.3536165  16.0427608
  19.6753559   0.4320154  16.6789989  19.9523048   0.0957877  15.2294359
   8.5339575  42.9422569  34.8841209   8.3382120  43.4847221  34.1201515
   7.6941152  42.5478249  35.1193275  71.3500137  28.3808575  41.5823708
  70.4889374  28.7595501  41.4052353  71.7812271  28.3563900  40.7281532
  54.1711884  45.5208130  75.9549255  54.6575775  44.8182678  75.5235519
  54.0111198  45.1929512  76.8398666  29.7426128  69.3962021  81.3817062
  30.6239471  69.4509964  81.7511368  29.6992855  70.1202240  80.7570877
  82.9659500  47.4028854   6.8081050  82.8605652  47.1921997   7.7358646
  82.4034729  48.1650124   6.6701765  68.2667542   1.0040442  10.4604921
  67.7087708   1.7470564  10.2306614  67.6924438   0.4158877  10.9508753
  63.4981575  15.0807285  65.2690277  63.5868492  15.4324760  64.3832245
  63.7218361  15.8144569  65.8415985  61.4339905   9.2477674  81.4019089
  61.9238091   8.6493673  80.8377914  62.0998459   9.8279648  81.7710114
  29.0845070  50.2982521  74.3184509  30.0107574  50.1703568  74.5232315
  28.6210537  49.7549896  74.9558716  72.7965240  27.1820488  26.2505283
  72.6764374  27.7200794  27.0330448  72.7515335  27.8031559  25.5235939
  71.1020889  37.1416626  73.1634674  71.7054443  36.4463310  72.9013367
  70.2334824  36.7471466  73.0852737  43.2061653   7.3668046  17.7050018
  43.4431152   7.1363540  18.6033211  42.2496490   7.3324895  17.6932907
  78.1034012  11.1075678  79.3892365  77.8310394  12.0246048  79.3561554
  77.6692429  10.7015524  78.6389771   2.2032101  65.5421982   6.0334220
   2.4527786  65.2372742   6.9057574   1.6130669  64.8649979   5.7027287
  23.3103104  44.0920296  19.2205753  22.6976604  43.3894005  19.4378376
  23.5429001  43.9326706  18.3058414  86.3374405  66.8424759   1.6840241
  86.9746780  66.1285400   1.7052341  85.7120514  66.6259384   2.3755622
  10.1908598   6.1248350  24.1712112   9.3387213   6.5094900  24.3764744
  10.8135777   6.6287460  24.6951656  26.3958321  48.5055351  14.8822117
  25.9134407  47.9285088  15.4743023  27.3153782  48.2824211  15.0267487
  62.9301834  20.5927238  29.0134945  62.3266068  20.6777668  28.2754612
  62.4740601  21.0086231  29.7450790  17.9123058  10.6458702   9.9668407
  17.5071678  10.1697874   9.2419682  18.2758980   9.9618731  10.5291405
  62.1093292  41.8731842  52.8528366  61.2988129  42.1552505  53.2767868
  61.8633080  41.7261429  51.9395561  53.6308365   1.5756205  29.1127548
  54.2369537   1.1363652  28.5161743  52.8628616   1.7683494  28.5748882
  61.3620377  13.0862608  62.8235245  60.8240204  12.2955723  62.7837524
  61.0938110  13.5179224  63.6346664  62.2145996  34.9843674   8.4837780
  61.3616371  35.1082153   8.9001265  62.7770195  35.6444588   8.8889904
   8.2747412  71.2319031  53.2314491   8.1513395  71.6213455  52.3658066
   7.4636269  70.7508545  53.3955040  47.8340073  21.0222893  27.5838699
  47.9060059  20.1302872  27.9235477  48.4506035  21.5299683  28.1114140
  73.4803162  52.8566895  72.0638504  72.5707703  52.5948792  71.9209290
  73.4307404  53.5392494  72.7330933  74.1065826  14.0106497  62.1523895
  75.0055695  13.8554525  62.4421654  73.8107605  14.7544107  62.6773109
  37.1561584  61.7495270  45.0576973  37.5677986  62.6034737  44.9251976
  37.8436356  61.2103271  45.4486885  47.0752907  69.4447174   2.2313073
  46.1352806  69.4798965   2.4084473  47.4833031  69.7499924   3.0415936
  56.4650841  48.0321236  79.6508865  55.6304817  48.4800034  79.5127640
  56.4549294  47.3082237  79.0247040  52.5523949  39.1977921  26.7675781
  52.9182777  38.8965836  27.5992241  52.5007782  40.1492004  26.8592033
  25.7805557  30.8051491  11.6592445  26.4538097  30.2321033  11.2923956
  25.5728989  31.4146538  10.9509964  62.3205681  15.5301304  58.5139351
  62.8738403  14.8160992  58.8306046  61.7152557  15.7020702  59.2352295
  26.9253292   5.7067471  85.3917847  27.0626793   6.3972416  84.7432632
  26.9528751   6.1604395  86.2341843  27.0083466  23.7806072  20.9777527
  26.9004307  24.3159046  20.1915970  27.9394493  23.5589886  20.9906616
  64.4501190  54.1838341  40.0908203  63.9494781  54.3997879  40.8775597
  65.2643967  54.6787224  40.1817360  35.3310890  62.6958618  35.0046005
  35.2010460  63.4226151  35.6138229  34.7938423  61.9872818  35.3588829
  27.4049168  68.7481461  17.5230865  27.9876385  69.4987411  17.6382618
  26.6275082  69.1113358  17.0988693  35.2764091  58.1963844  17.9202728
  35.6871490  57.6455040  18.5866508  34.4138603  58.4040756  18.2795830
  51.5391579  27.2379227  40.0120735  51.6832581  27.1336155  39.0715485
  52.2570190  27.8000584  40.3034706  67.0306015  48.0855370   6.6803451
  67.3657913  48.5695457   7.4350734  66.0796280  48.1762886   6.7407236
   8.7985439  70.9264984  83.0007019   7.9831333  71.0914078  82.5272675
   8.6562243  70.0867844  83.4375763  79.4296417  20.7715855  35.9852104
  79.6571426  20.0141392  36.5244217  79.0902863  20.3944931  35.1735001
  79.0432510   3.0754051  46.0202522  79.8824158   3.0251160  45.5625343
  78.6952286   3.9364491  45.7884789  28.3982811  44.7679405  62.1618195
  27.8392143  44.7709007  62.9387817  27.7933426  44.8950272  61.4309769
  70.3364868  17.5531540   0.0404311  70.6581192  16.6765327  -0.1700906
  71.0743790  17.9811230   0.4747001  73.3180237  18.4844933  73.1089325
  73.2934570  19.3189774  72.6406708  73.6739273  18.7034702  73.9701004
  27.5211372  49.8693008  71.9500656  26.8980064  50.5957794  71.9628906
  27.8407345  49.8119583  72.8505096   5.7323346  19.8048248  21.3963470
   6.4070029  19.5015545  20.7888260   5.2088280  19.0251617  21.5815506
  53.8810005  48.5738945  47.4986763  53.7135277  48.3023834  48.4011536
  53.0148354  48.6014366  47.0921936  83.0800018  50.3059807  46.9818192
  83.0099792  50.8980446  47.7306786  83.8881760  49.8172951  47.1375999
  55.8186264  12.2232714  47.1805038  55.9452171  11.5153866  46.5487595
  55.4738197  12.9493418  46.6607361  19.0240784  44.0717201  89.2152405
  19.0584583  44.1953964  88.2666855  18.1476631  43.7238045  89.3798065
  60.0277138  43.2465363  84.7926712  59.9075470  43.0372963  83.8663788
  60.8498993  43.7357407  84.8229980   3.3143110   2.9571407  73.1378632
   3.5193317   3.3027010  72.2690811   4.0253444   2.3445089  73.3258667
  77.5040588  18.4222565  85.6239700  77.7118988  17.8235836  86.3413467
  78.1309052  18.1985111  84.9360580  65.9046097   9.3861418  62.5543633
  66.6784744   9.9468966  62.6084175  65.5245361   9.5843229  61.6985016
  81.5507355  15.0281372  87.1674271  81.7113953  14.3702660  86.4909439
  81.3119812  14.5206757  87.9431229  47.7543259   7.2604027  65.3321228
  47.0889931   7.4456358  65.9948807  47.9823608   8.1188021  64.9752121
  60.6050835  47.3152885  73.7204056  61.3520851  46.9367752  73.2567825
  60.9423180  47.5176239  74.5930786  30.8341084  49.8239365  32.1489754
  30.6164207  50.7367554  31.9602833  31.7884235  49.8156128  32.2227592
  63.9752083  14.3339252  29.8290424  63.5978508  14.7181692  30.6203632
  63.2664795  13.8098669  29.4558201  39.9563103  69.8332596  37.9446373
  39.0891304  70.2318649  37.8714867  40.1701546  69.5596390  37.0526543
  68.1743164   6.6662931   6.9581423  69.0132446   6.6463237   6.4976611
  68.3987732   6.9177561   7.8540316  35.1710854  27.2649307  84.2257614
  35.6896324  26.7826977  83.5817184  34.5737267  26.6116467  84.5899277
  43.7156296  18.7049828  82.0880432  43.2184525  18.3804054  82.8388443
  44.1131935  19.5187683  82.3977661  80.6946335  65.3587570  19.9851570
  80.1867218  65.5990448  19.2102242  80.0863571  64.8510513  20.5222492
  69.3652191  53.5667381  73.5393295  69.9514236  54.2992821  73.3496552
  69.1895676  53.6372871  74.4776306  81.3712463   5.2378941   7.7330065
  82.1224213   4.7316947   7.4235983  80.7987900   4.5901070   8.1439857
  73.6967163   1.7215327  54.1864357  74.4373169   1.4862990  53.6274986
  73.2316513   0.8968765  54.3274498  81.0740356  56.1145592  77.2123795
  80.5335312  56.8464661  77.5096970  80.5844116  55.3341866  77.4722137
  48.1854553  34.2769623  83.7071762  47.3268166  33.9833107  83.4026489
  48.2789879  35.1585388  83.3461914  23.8656082   3.4814649   2.3279097
  24.1623955   4.3659372   2.5420532  23.8415813   3.0265033   3.1697319
  41.4266663  41.0839310  86.6031799  41.8473167  40.3082237  86.2322845
  41.9421387  41.2856293  87.3840942  26.0743408  59.0527534   2.9000480
  25.8810692  59.8451157   2.3990085  25.2210178  58.7541237   3.2145178
  69.5029449  45.0533066  70.2450790  69.5191803  45.7494469  70.9018631
  69.4652023  44.2439766  70.7547836   5.9360304   3.5585866  51.1704941
   6.8900585   3.4842131  51.1935272   5.6271653   2.6557491  51.0948715
  75.5507431  19.1467228  57.2086525  76.0692902  18.3639030  57.3945045
  75.8305206  19.4172993  56.3341560  15.6090937  59.9939728  72.7317276
  14.6526575  59.9662056  72.7054291  15.8300467  59.7812386  73.6384506
  67.1437378  70.9489441  52.6434555  67.1459656  71.4676743  51.8390045
  66.2164383  70.8229065  52.8446045  38.1768379  63.8387871  51.4085274
  37.3443756  64.1207275  51.0293961  38.8327522  64.0854721  50.7564850
  29.5811310  33.4094734  83.6914825  28.7912922  33.5741005  83.1764221
  30.1804066  34.1131210  83.4425201  50.3069763   4.4154115  52.3766136
  49.9505081   3.5880568  52.7001076  49.9682961   5.0750914  52.9818802
  55.8668594  41.7483940  30.3149738  56.6694603  41.4309158  29.9011211
  55.6784668  42.5745697  29.8698025  42.3672714   8.4761324  73.2893448
  41.5703583   8.3440733  73.8028793  43.0477829   8.0158854  73.7805786
  24.2253857  60.1375999  43.2145576  24.1879520  59.7229233  44.0764580
  23.3828621  59.9283714  42.8113098  23.1487160  19.5999355   7.2764821
  23.5628433  20.1322289   7.9557409  23.2818928  20.0961971   6.4688807
  46.7912674  33.6202774  17.2820110  47.4131355  34.0993805  17.8297081
  47.2177200  32.7798843  17.1143513  66.0942841  54.8240967  25.2961769
  66.2916183  54.2064323  26.0002956  65.7085190  55.5788956  25.7408123
  86.3298340  59.9613914  55.0630722  85.8383713  59.1648102  55.2634544
  87.2474289  59.6905022  55.0926056  25.5475807   7.1006231  67.3978195
  25.2112217   7.3419971  68.2608566  25.3203106   7.8417673  66.8363113
  12.3859043  16.2542229  74.7255478  11.5454950  16.2839203  74.2683182
  12.2073784  16.6458530  75.5805283  68.9410858   0.6533177  20.1433239
  69.4925079   1.4350941  20.1747341  69.4911728  -0.0424051  20.5033360
  85.3497696  56.7473526  32.6505203  85.7651672  56.2092361  33.3243942
  84.4253845  56.5010529  32.6834526  85.9140472  21.4872112  30.8553848
  84.9577942  21.4465141  30.8678703  86.1851959  20.9853153  31.6240273
  36.2998009  69.2709961  47.1050873  37.0875702  68.7280121  47.1337509
  36.3568497  69.8173676  47.8889580   6.2645154  57.7819405  72.3548584
   5.9607201  58.6894493  72.3356628   5.6572609  57.3385582  72.9472198
  42.3342209  59.3737946  82.8447113  43.2541313  59.1917992  82.6526871
  42.3545799  59.8786583  83.6576843  55.9622803  14.2517633  28.1100235
  55.0212517  14.3750372  27.9855175  56.1951675  13.5526972  27.4990406
  38.3235435  53.3238907   9.1649446  37.3677711  53.2761917   9.1863813
  38.6122513  52.5876236   9.7041960  30.3408642  27.2209816  12.2907677
  30.9699593  27.2970085  13.0081882  29.6276512  27.8112068  12.5340643
  49.8193245  56.2223701  55.9325562  49.9638748  56.6501045  55.0885315
  49.2746124  56.8380585  56.4229126  83.3134003  33.3599777  78.0971375
  82.9447479  33.8715820  78.8172607  84.2018356  33.7003174  77.9917984
  76.4590073  67.9306717  77.2825394  76.6521530  68.3531342  76.4456100
  75.6180191  67.4954605  77.1427002  26.9416218  60.6934052  28.4130898
  26.4121876  60.7204018  27.6160946  26.4593868  61.2332573  29.0393772
  76.9693985  20.5617733  61.6196785  77.3511047  19.6841221  61.6358757
  76.7790833  20.7231693  60.6955757  30.6012840  52.3967209  31.1590443
  30.8833637  52.7647667  31.9964237  31.1726856  52.8093872  30.5114040
  78.8814087  61.1632538  66.3011169  78.1594162  61.4303360  65.7322388
  79.0235062  61.9148064  66.8766251  52.6947975  38.8041000  81.3555679
  52.9981422  39.6930580  81.5398712  52.3960648  38.8365555  80.4467545
  63.7867203  53.8601990  37.3732872  63.9198112  53.9456749  38.3173294
  63.8576355  52.9204865  37.2055206  74.1086731  42.1828346  39.4067802
  74.1738052  41.2405586  39.5620461  73.2405167  42.4198647  39.7329025
  86.7543411  18.2734623  61.6930542  85.9400940  18.6941128  61.9692574
  86.8299255  18.4856167  60.7627258  33.1765404  62.5808716  66.5750198
  33.1697426  61.6242294  66.5430298  33.1174431  62.8515854  65.6588058
  20.9763126  25.8770962  67.8861160  21.9068356  25.9542522  68.0968399
  20.5371151  25.8797226  68.7366028  45.1889877  67.5237656  72.4584351
  45.5722008  66.9804153  73.1470261  45.7731361  67.4079666  71.7090378
  86.1160431  49.5695000  17.8412437  86.5014267  50.3853493  17.5217056
  85.5405731  49.8404732  18.5565281  47.3175278  70.5113220   8.1508093
  46.5812149  71.1193848   8.2166252  47.2911606  70.2003021   7.2459316
  85.2713547   5.5064697  68.1066360  85.4928360   6.0430126  68.8677521
  86.0831833   5.0462756  67.8935928  19.1692047  45.0793419  12.3724585
  18.2317295  44.8937683  12.4266100  19.5880356  44.3136101  12.7654839
  65.8943405  47.7591782  49.2227707  65.7394485  46.8172188  49.1524200
  66.0159225  48.0500717  48.3189812  17.0519409  49.9231949  69.3259277
  17.1936855  50.1237335  70.2510910  16.6013832  49.0786781  69.3302078
  33.0991211  63.0600739  56.9089622  32.9931870  62.8460236  55.9820366
  34.0035019  62.8183899  57.1087532   6.8179307  58.9214706  82.8882370
   6.8895926  59.8613701  83.0546112   7.7190189  58.6353416  82.7385635
  12.0970793  52.6876144  24.1006927  12.2085762  53.4708366  24.6395493
  11.6535711  53.0004883  23.3122482  68.7301941  47.9682655  77.9247971
  69.4727020  48.1981812  78.4834137  69.1289368  47.6084442  77.1324844
  77.5133820  62.6620789  10.4715652  78.2335815  62.0320892  10.4460049
  77.2246933  62.6589394  11.3841896  63.3728638  59.7106819  13.4499168
  63.6819267  60.4781380  12.9685392  63.3035851  60.0087395  14.3568859
  58.6159096  20.3477631  53.4553375  57.8980598  19.9585152  53.9547424
  58.3343773  21.2481766  53.2933922   0.2107785  35.8069267  64.7636948
  -0.4959324  35.2029076  64.9916306   0.9956453  35.4111748  65.1426392
  71.8692551  22.8115940  23.1410942  71.2660294  22.9562912  23.8700790
  71.3194351  22.8711071  22.3598213  64.6936340   7.3427243  32.4557610
  65.2148819   6.5636797  32.2617989  65.3252945   8.0618582  32.4468803
  42.5157166  25.1422138  74.7830658  43.0958519  24.3846111  74.7074814
  43.1072044  25.8869476  74.8914413  65.5294952  66.7557068  59.5629272
  64.8447571  66.0895386  59.6227646  65.9985504  66.5451889  58.7555237
  25.6572876  27.7589054  10.1591320  25.2287102  27.3757820   9.3937769
  24.9657955  27.8130722  10.8187819  44.1976852  10.8449154  68.6449280
  43.5824814  11.4818010  69.0084305  44.3327255  11.1310110  67.7415161
  81.3328018  11.4465075  59.9661674  82.1245193  11.7136717  60.4331245
  80.9565125  10.7540216  60.5093956  78.6485977   9.0985184  26.7467670
  78.6466599   9.9395056  27.2038994  78.3398285   8.4703140  27.3996487
  28.4639835  67.8162231  42.9870529  29.1920185  67.2370911  43.2124405
  28.4754639  68.4907761  43.6660805  70.3418503  50.6864548  69.3001633
  69.5311203  50.3849373  68.8902435  70.8374023  49.8850670  69.4688110
  43.2096634  43.2658806  70.8935394  43.5054169  42.6312981  70.2407990
  43.8545380  43.9719391  70.8505402  31.1460857  66.1816711  62.2836494
  31.6861820  65.5435028  61.8175278  31.0008545  66.8823547  61.6479034
  22.9431801   1.2190410  10.0407963  23.1633549   0.5894392   9.3542423
  23.7872162   1.5737325  10.3201351   3.8524368  57.5999641  39.0884209
   3.4465017  57.4882088  38.2287941   3.3096437  58.2556801  39.5261879
  17.4552994  66.1835709  10.6041126  16.8985558  66.1516113   9.8261366
  17.2157612  67.0032349  11.0365477  38.6101151  40.3574104   7.2067795
  38.4370689  39.5908775   7.7533245  37.9359779  40.3247299   6.5280280
  56.9033279  69.7656708  86.3702240  56.7762070  70.6972351  86.5498428
  57.6449394  69.7373352  85.7657013  46.2806702  28.0708885  26.2586212
  46.9619675  28.4559040  26.8098240  45.5219498  28.6412697  26.3820744
  31.2370148  64.0489960  47.2716637  31.0218620  64.8334656  47.7761917
  31.7521839  63.5112572  47.8730583  71.2424393  10.8735132  30.3588715
  70.8168716  11.7254763  30.2625275  71.8004990  10.9704351  31.1304970
  49.0802155  14.0595493  61.5598946  49.1287193  15.0154123  61.5741692
  49.8518372  13.7879686  61.0628319  84.4358902  35.0622826  81.9710388
  83.8709488  34.3294525  81.7260208  84.2650528  35.7291832  81.3059921
  41.9364738  61.4479752  56.2870064  42.1841812  60.7107315  56.8449898
  41.6298943  62.1181984  56.8977776  72.1238174   0.9487609  43.0734558
  71.3607330   1.2481658  42.5792007  72.0496979  -0.0055650  43.0736427
  46.4546356  68.9825745  11.8499165  46.8227959  68.7133865  11.0083551
  45.6372528  69.4259644  11.6229286  39.6397629  37.0452194  86.6468506
  38.8557968  37.2877998  87.1395721  39.8680420  37.8347015  86.1560898
  31.3120689  14.7502823  79.7758713  30.8905754  15.0264950  78.9620667
  31.3730450  15.5504799  80.2975998  50.7566681   5.9374084   6.0769997
  50.3237686   5.9691963   6.9301238  50.1650391   5.4236689   5.5272017
  84.3420792  40.8734627  72.8648529  83.5737228  40.4010887  73.1853409
  84.0243835  41.3591156  72.1036453  41.6063728  55.7181702  86.4897156
  41.4964790  54.8647194  86.9089737  42.3282013  56.1280212  86.9663925
  83.6799850   9.9092751  68.1256256  83.3927078  10.7377234  67.7417297
  83.7538681  10.0921946  69.0622711   9.8019972  58.8189812  64.4957352
   9.6822815  59.6885796  64.1140366   9.0245314  58.6863899  65.0381393
  69.9754257  46.4198761  30.4086361  70.1587143  45.5857468  30.8409157
  70.8171768  46.6891441  30.0409641  63.0484390  48.1645508  16.9296589
  62.9600258  47.2175598  16.8218594  62.2267990  48.4368362  17.3383141
  26.8550053  46.8090057  82.9655457  26.8705673  46.1674881  83.6757889
  27.6297874  46.6052055  82.4417038  60.1139221  54.6082382  53.2735863
  60.1384659  54.2000275  54.1390305  60.8355103  55.2370605  53.2848206
  11.3796482  43.8319931  76.1116028  11.7937803  43.0538406  76.4847107
  10.9030447  43.5067673  75.3478546  21.5064697  18.1304054   9.2266636
  21.0525169  17.7497730   8.4748135  22.1116371  18.7659512   8.8444510
  55.0189590  46.0334663  87.8436508  54.5319672  45.8877525  88.6547241
  55.9123726  46.2215042  88.1312027  33.0880013  49.3778305  29.6636829
  33.6377182  49.9804726  29.1628189  33.0747375  49.7443352  30.5478363
  66.2249069  29.8909302  87.5198288  66.6702728  30.6174793  87.9557266
  66.9051971  29.4770565  86.9886551  12.5175457  52.1302147  70.1506882
  12.4547853  52.9559555  70.6307373  12.8804092  51.5116043  70.7846298
  51.4510422  70.1500702  45.5324173  50.5947113  69.9249420  45.8960762
  51.4182549  71.0991364  45.4123154  51.2968483  15.6478033  77.9666748
  52.0763588  15.4401941  77.4514160  51.2682304  14.9696264  78.6415710
   0.8561794  37.5768127  56.6529160   0.6176479  36.6810951  56.8917122
   0.6552594  37.6372910  55.7189980  18.6151905   3.2392423  23.4034119
  18.7852173   4.1807294  23.4338245  19.3184414   2.8863397  22.8583164
  83.6105347  18.8426895  77.6475143  83.5404205  18.2781677  78.4173431
  83.7657318  19.7169743  78.0049667  76.3814545  66.6931381  23.5417728
  75.6504593  66.8979340  22.9587383  76.2687607  67.2862015  24.2846107
  12.1527205  31.2099724  62.8239746  11.9184065  30.5212173  62.2019234
  13.0969467  31.1112671  62.9461441  24.6068745  51.8555527  40.4114418
  25.2351837  51.4091873  39.8437996  23.8153400  51.3197212  40.3605461
  18.9450645  12.3306541   0.4466149  19.2637749  12.8376703  -0.3001050
  18.5283165  11.5632257   0.0546883  50.0174179  40.6216011  53.2244301
  49.8897934  41.5042419  53.5721207  49.1480293  40.2225876  53.2588501
  12.2203941   8.1543741  69.1687851  11.5670433   8.3074093  68.4861832
  12.0754528   7.2479668  69.4401703  79.8158112  50.9350510  87.2621078
  79.0558167  51.5145760  87.2092667  80.5378036  51.5095215  87.5169525
  50.5066719  61.9476357  39.4578094  49.7858086  61.5265427  39.9260674
  50.1663322  62.8100471  39.2198029  37.1659546  17.6854706  16.7105999
  37.1734314  17.0213623  17.3999023  37.8314781  17.3922215  16.0882549
  48.4522896  58.5319710  24.3087616  47.6647186  58.2797546  24.7907906
  49.1128654  57.8939629  24.5786057  50.8126259   9.3765497  43.1294289
  51.6848259   9.3178787  43.5193710  50.2394028   9.6117439  43.8590393
  22.7463284  64.1316223  71.9115295  22.7562408  64.7075272  71.1470261
  22.5696926  63.2615662  71.5537033  77.2267075  18.5017052   7.1529865
  77.4197540  18.7819672   8.0476465  76.5342178  17.8481693   7.2508836
  63.0978127  64.5210876   8.5969200  63.6999092  65.2283707   8.8281326
  62.9138680  64.6573639   7.6674986  43.1880875  53.5213814  73.4541931
  43.2492714  54.4713898  73.3543167  42.7123680  53.3970299  74.2754440
  44.1139717  25.8472767  46.6147804  43.8037109  26.4847431  45.9716606
  44.4966125  26.3784237  47.3131409  30.6231327  68.8236389  52.6812973
  30.2573986  69.2520370  51.9073830  29.9444828  68.9168777  53.3498611
  71.0543594   6.0879745  30.1565456  71.5140915   5.2694526  29.9697285
  71.7074203   6.6353426  30.5925903  78.5391998  52.8536682   4.3240790
  78.3779602  53.2990913   5.1558437  79.4722977  52.6410866   4.3431711
  77.6394119  21.2304974  -0.0835072  77.3456650  22.1377792  -0.0011494
  78.3477936  21.1491890   0.5550968  55.4638939  61.8987885  62.2529106
  55.0480728  61.0400467  62.3296432  55.3765678  62.1253128  61.3270111
  17.1483746  33.8185501  82.8537979  16.6551170  34.2920227  82.1839066
  17.7564678  33.2687378  82.3596649  10.7006998   0.7296579  66.9093933
  11.0261536   1.1660738  67.6967010  10.3316050  -0.0942499  67.2274780
  34.6331406  50.0429306  20.5398998  35.1599350  49.3069611  20.8514614
  35.2604408  50.7578659  20.4322186  77.0286942  50.9930077  70.6317673
  76.9748459  51.6589851  69.9463425  77.6956635  50.3814774  70.3196716
  54.8761711   3.5229647   5.9082465  54.1750336   3.8257103   6.4852915
  55.0983810   2.6521866   6.2377925  60.2755165   5.6235995  62.2483711
  60.8428268   5.8231587  62.9930611  60.8380623   5.7353311  61.4820213
  79.8935928  51.6086159   1.0556302  80.0424576  50.8207397   1.5784309
  79.6492767  51.2794724   0.1906427  68.8299866  20.4862156  74.9800262
  69.2254410  20.4796658  75.8516922  67.8894730  20.4151001  75.1431732
  66.8722229  67.6938782  12.3302126  66.7852478  68.5716171  12.7020102
  65.9742661  67.3669205  12.2754097  40.9160767  59.9760551  22.9057884
  41.2038956  60.2265816  22.0279350  40.4196968  60.7318192  23.2198868
   6.8630562  12.3801069  76.4929886   6.3664522  12.9274607  77.1012802
   6.3133340  11.6074286  76.3625793  14.1809092  38.4190788  83.0197296
  15.0039206  38.6007805  83.4734573  14.1807537  39.0195198  82.2742767
   8.0094280  56.4068031  59.9278755   8.6090069  57.0301781  60.3379211
   7.4188881  56.9502106  59.4061432  51.6704712  46.4980927   6.9406514
  51.8865051  47.1944618   6.3204651  52.2292290  46.6704559   7.6984859
  77.7033005   8.6560926  53.6279335  78.2085953   8.5816441  52.8183861
  77.5121689   9.5907717  53.7058716   0.1714905  17.9225140   6.7039533
   0.7550229  17.3040791   7.1435647  -0.5487813  17.3824368   6.3787513
  50.3087463  30.0623970  44.7686577  49.5640411  29.6904221  44.2961349
  50.2409630  31.0052986  44.6184120   7.5081339  48.0818176  70.5036545
   6.6038289  48.1097755  70.8161926   7.7222605  47.1493759  70.4730759
  44.1022377  42.2257919  41.9883919  44.7028580  42.4272003  42.7059746
  44.4681091  41.4394531  41.5833702  27.5652065   1.9015503  80.5870209
  26.7449360   2.3186729  80.3235855  28.2284489   2.5815241  80.4687958
  75.3177567   9.4427090  61.9281082  75.9485779   8.9973755  62.4937744
  74.6050644   9.6941500  62.5155411  24.4486160  68.3500290   2.4792399
  24.2107315  68.4997330   1.5642358  24.9594955  67.5406952   2.4645643
  33.8645630  13.2432404  72.5460739  32.9490013  12.9714193  72.4821396
  34.2078552  13.1391115  71.6586380  82.1282883   4.3293624  18.1852436
  82.0651932   4.5114522  19.1228447  82.9743118   4.6948853  17.9266644
   6.7220778  66.9757233  82.4023438   7.5589347  67.4099274  82.5677795
   6.3284721  67.4781342  81.6889801  18.4556065  58.2101898  85.9864960
  19.3059425  58.0115089  86.3785248  18.6638699  58.7478409  85.2224350
  50.8831711   8.7061615   7.9671607  50.9071388   9.5017452   8.4988613
  51.4088669   8.0743132   8.4577179  49.7483559   0.7819816  78.5344620
  50.3452606   1.0834483  77.8495865  50.2039146   0.0453635  78.9420090
  21.8874969  61.5821953  60.4957275  21.1657104  62.1094398  60.1532784
  21.4606819  60.8327827  60.9109917  11.4146242  43.7897186  17.4834709
  12.0689354  44.4658928  17.3076839  11.9224730  42.9839287  17.5784740
  20.9613991  25.5088539   0.7731872  20.5238209  24.7705765   1.1971023
  20.5300636  26.2828960   1.1351827  54.3292274  66.0348129  15.0079803
  54.4121323  65.0885162  15.1257677  53.3969116  66.2111206  15.1342144
  11.4406376  71.2168732  83.7456818  10.5795889  71.3125153  83.3386459
  11.4361076  70.3319626  84.1105728  59.4198570  43.5742416  56.6317711
  58.5427818  43.7924690  56.9469681  59.9444351  44.3508759  56.8264198
  58.9584236  50.9140015  11.9695654  58.8341064  51.7749062  11.5700378
  59.8768272  50.7025757  11.8020496  74.2221832  39.9322243  33.7012253
  74.6297836  40.3924828  34.4348831  74.0367508  39.0567703  34.0409737
  44.0688667  67.4770584  82.5283508  44.2924385  66.7509384  81.9461136
  44.8545380  68.0236435  82.5421371   9.0879602  37.5800781  74.9648438
   8.8717556  37.0537796  74.1950989   9.1478271  36.9460068  75.6794052
   1.7043681  30.7994747  22.8172836   1.4874384  31.5778236  23.3304558
   0.8664243  30.5086517  22.4574165  58.4192734  57.4063377  63.9950867
  57.8009796  56.8702049  63.4985886  58.3353271  57.0958710  64.8966370
  76.9890213  38.4040375  43.6691093  76.8180008  38.2940216  42.7337608
  76.1283798  38.3260803  44.0807533  53.6609001   8.8844738  36.8113670
  52.9304276   9.4855251  36.6651497  53.9793167   9.1030788  37.6871834
  38.3638649  70.6833344  72.6477737  38.0686531  71.2911453  73.3257523
  38.0432587  71.0629730  71.8296585  30.2647438  70.3100662  15.3958855
  30.8840714  69.5855865  15.4842100  30.6658211  71.0289307  15.8843517
   3.9144039  24.4591599  85.8000565   4.3194685  23.5937767  85.8572159
   3.0213985  24.3271160  86.1183929  84.5840912  57.5298615  73.1668167
  84.2908783  58.3222084  72.7168808  84.4328461  57.7112808  74.0944138
  57.2801514  18.2713528   5.8526921  58.2274437  18.3593540   5.7472262
  57.1203384  17.3288155   5.8046036  39.9404907  50.9898109  48.5943909
  39.4171219  51.7474976  48.8555946  39.4258957  50.5692635  47.9055023
  44.3814964  44.9478531  25.2486115  43.4327469  44.9189835  25.3722210
  44.7031441  45.4688683  25.9843540  14.2265701  52.3630905  67.7668610
  14.2659807  51.7513008  67.0317459  13.3801260  52.1887817  68.1784134
  23.6546917  19.8142948  17.7780323  23.3885593  19.1745129  18.4383965
  23.3846035  19.4260273  16.9458466  54.5196571  36.8125648  58.7582397
  53.8138733  37.3802223  59.0678558  54.0821037  36.1680565  58.2020149
  46.9149551  21.9955235  62.6367950  46.8689728  21.1414871  63.0666084
  46.9834747  22.6226025  63.3567314   1.4469571  51.9640999  34.9324646
   0.6790406  51.9974976  35.5029221   2.1440573  51.6173325  35.4892731
  65.7269135  55.9399185  11.3966217  65.4861908  55.5025330  12.2133121
  65.2832870  56.7870560  11.4388361  85.9926758  65.5843277  21.1553955
  85.7310715  65.2257538  22.0034657  85.1675720  65.7341232  20.6938801
  31.7401638  49.7761536  14.2006731  31.8567066  50.6820183  13.9142122
  30.7911491  49.6564369  14.2363243  49.1440086  32.4331017  81.9807129
  48.7841454  33.1259995  82.5344467  49.9910583  32.7728386  81.6920547
  62.4883080  69.7983322  24.8358765  61.8390350  69.8720245  25.5353394
  62.0309143  70.1015320  24.0515976  47.0137253  57.5360336  27.7226772
  46.9719543  56.7615395  27.1617451  46.5184898  58.2030792  27.2472591
  62.8668747   6.9333134  22.8315048  63.3929710   6.1398497  22.9308434
  61.9983521   6.6861362  23.1490040  45.2387772  61.3806381  82.0422974
  44.7938004  61.8750458  81.3539734  46.1526985  61.3462067  81.7598190
  31.7675018   5.5999808  79.9530716  31.4597931   6.4762144  80.1849365
  32.3519554   5.7406902  79.2081909  39.7097816  27.5165443  21.7271671
  40.1488266  27.2998009  22.5496597  38.8765450  27.0473461  21.7695656
  52.1060219  67.5578842  84.3661270  51.2219696  67.1944885  84.3149185
  52.5152893  67.0905075  85.0943451  60.7862625  55.9043655  33.1423302
  60.7987938  55.9339981  34.0989876  60.1774063  56.5982208  32.8891678
  36.1935921   7.5700727  12.7358437  35.9008789   7.3078084  13.6086359
  35.5949173   8.2730703  12.4836283  46.7080536  65.1169968  26.7438946
  47.4874001  65.6664734  26.6606712  46.6725159  64.6258469  25.9230766
  35.6450348  20.6645908   7.2378469  35.4417725  19.7517529   7.0337820
  34.7957993  21.1061764   7.2318802   8.2091770  59.6441765  23.7964382
   8.4388885  58.7202911  23.8959351   7.6403570  59.8313179  24.5432014
  60.2979927  14.4834070  45.9882736  59.4519768  14.8846483  46.1870041
  60.4933357  13.9442968  46.7547150  63.7501106  61.9913216  12.0302591
  62.8738441  62.2389717  12.3253136  64.3062668  62.7265663  12.2878246
  58.9822159  37.5909042  80.7520676  59.3873596  38.3940697  81.0791931
  59.4382744  36.8873291  81.2138290  79.6379776  41.8063164  63.3371773
  80.4699631  42.2625084  63.4633484  79.3155136  42.1250191  62.4941597
  24.4621716  37.3570404   3.4801362  24.2482243  37.7851486   2.6511717
  23.6158562  37.2271805   3.9080606  73.6019440  31.9254684  67.0085678
  73.1466522  32.6067810  66.5138321  73.4048157  31.1155548  66.5380173
  23.0890446   6.7413540  79.6550522  23.3888893   7.5838184  79.9964905
  22.1496181   6.8602700  79.5151672  40.7016869  34.5271072  55.8294563
  41.0960083  35.0897064  55.1629524  41.4042511  33.9290085  56.0842323
   2.7313201  45.5483627  13.1358585   3.0273249  45.4583969  14.0416832
   3.2959688  46.2268448  12.7656336  40.7080078  51.2629356  27.0150032
  40.5629234  50.3541336  26.7518215  40.6738434  51.7577400  26.1963253
  50.6936417   0.5806232  43.5125999  50.1149216  -0.0367799  43.0652428
  51.5765953   0.2870821  43.2879677  30.9378014  56.3889885  84.1803055
  30.9855270  55.4513283  83.9939041  30.1351452  56.6788254  83.7467499
  69.1718826  21.2582970  28.4870949  68.6529465  20.5217285  28.1639824
  69.9386139  20.8520737  28.8912392  73.7923737  57.0704041  44.1704903
  74.3174744  57.3480034  44.9211197  72.9317017  57.4606209  44.3228340
  10.9359055  63.4488487  67.3230591  10.6399145  62.5520439  67.4791565
  11.8588533  63.3585854  67.0858841  77.4818344  11.1148605   9.5683508
  76.6159897  11.4937439   9.7199955  78.0184402  11.4482059  10.2874956
  71.4513931  33.4785385  50.9749832  71.1748428  33.0432930  51.7814064
  72.1604080  34.0607414  51.2480621  29.5057640  44.9602890  73.2468491
  29.1999474  45.7276955  72.7633286  29.0250645  44.9911537  74.0740204
  61.7702293  41.7203140  69.5671310  62.0794792  41.8330879  68.6683121
  62.0420303  40.8337364  69.8044815  54.1566391  47.8938713  57.4557953
  54.9759216  47.6477470  57.8852501  53.5104828  47.9065056  58.1618805
  39.9491806  39.8825035  44.8558693  40.1855774  40.6712456  45.3439636
  38.9919853  39.8803329  44.8532715  68.4221954   7.3103771  85.0023270
  67.8920670   7.6193542  84.2676620  68.8498840   6.5197830  84.6732712
  84.6099930  52.4508362  34.8124771  83.7735291  52.1493492  34.4579887
  84.5187073  52.3504448  35.7600098  53.3287926  52.0836258  42.6049767
  53.5162163  51.1454506  42.5744324  53.5049248  52.3336525  43.5120010
  30.7217941  19.5757942  68.6009598  30.9017754  20.1883259  67.8877640
  30.1165047  18.9383202  68.2221603  30.4617119  56.8675423  43.7721748
  30.4233227  57.3533707  42.9483261  29.6400909  56.3772163  43.7995949
  69.7212524  66.0474091  28.6551266  69.0500793  66.5073776  29.1592884
  69.9889450  66.6752167  27.9839840  15.5162392  64.2079163  69.9055786
  15.4545403  63.4485779  69.3260727  14.8635387  64.0434799  70.5861511
  80.5822906  56.3689728  71.9279327  81.4841156  56.0586548  71.8463898
  80.3593445  56.2184830  72.8465576  62.7858124  38.1660118  74.6468201
  63.5064850  38.5974579  75.1058655  62.5972900  38.7397156  73.9041519
  68.0046768  62.6876755  65.4631653  68.3436966  63.5762138  65.3545380
  68.3331070  62.2111359  64.7007523  62.1491852  31.5928459  87.7004166
  61.5690804  32.3330536  87.8787537  62.5265388  31.3736076  88.5523376
  41.2219315   7.7979455  77.4664612  41.3020782   8.0046320  78.3976364
  40.6370125   8.4722662  77.1209335  77.3356628  26.4003773  37.1990051
  76.6870728  26.3408070  37.9004440  77.6428833  27.3062916  37.2331734
  51.9349785  28.3691845  50.3479996  52.5419197  27.7257004  49.9822350
  52.1467018  29.1840382  49.8925667  14.7660608  27.7412624  83.9515915
  15.3927994  27.2881584  83.3875656  14.6917763  28.6168785  83.5721054
  60.5780334  70.4082947  48.5586510  60.0758476  69.7378082  48.0955238
  59.9178162  70.9279785  49.0172119  39.5430679  18.2393627  24.5147209
  39.4461594  17.9514809  23.6069946  40.3247757  18.7917461  24.5086460
  53.8755302  23.8093224  12.5054483  53.3563461  24.4106674  13.0393591
  54.4803429  23.4005451  13.1245890  12.6111441   5.5824728  69.8584442
  13.2615690   5.0892224  70.3583298  11.7735338   5.1864977  70.0989609
  56.3476448   2.8811989  10.4912319  56.7339134   3.5039959  11.1069841
  55.6999664   2.4029398  11.0089340   2.9365501   1.1081878  67.4548340
   3.4696500   0.7333423  68.1559296   2.0601370   1.1804384  67.8328781
  66.0117111  65.7551270  53.4167519  66.6501846  66.4643097  53.4919014
  65.4651184  66.0029602  52.6710663  18.1302929  52.9591446  18.0973988
  18.1816387  52.7333069  19.0261555  17.7976093  52.1665802  17.6762199
   4.1499553  20.1553116  13.2294817   4.5241394  19.2840767  13.3604965
   4.8473825  20.7571087  13.4896126  31.2964325  65.5240555  26.6690178
  30.3965816  65.6834488  26.3842449  31.3581848  65.9562454  27.5208588
  61.8209877  47.5032959  75.9891891  62.5289001  48.0666046  76.3018723
  61.7167892  46.8455811  76.6767883  50.6968651  14.2205343  65.2149734
  51.1723747  13.4599857  65.5491714  49.8460350  14.1819773  65.6518173
  24.5159492  49.2849045  55.4159508  23.5643311  49.2080078  55.3470840
  24.6582661  49.7858124  56.2191124  46.5408173  64.2949142  68.2350082
  46.5421562  63.4146500  67.8590393  45.8635635  64.7629318  67.7466202
   6.1797080  36.3180656  21.4181080   5.5652347  35.7077866  21.0104141
   6.8569164  36.4544983  20.7555313  83.8828812  47.3726349  42.7534218
  84.7482300  47.2197647  42.3739090  83.3658066  47.7333755  42.0331879
  23.0195484  32.5233154  13.7802877  22.4831848  33.3002777  13.6225739
  23.1875553  32.5354881  14.7225494  26.5112762  44.8504753  60.1080933
  25.9157562  44.3726845  60.6854172  26.0283394  45.6409798  59.8670425
  49.9685783  66.8148270  20.2606068  50.6692009  67.4632034  20.3311024
  49.3494415  67.0553284  20.9498539  12.1309357  33.9267349  20.8497219
  12.5773468  34.6359711  21.3122501  11.7036858  34.3558540  20.1084080
  84.5690842  33.5749512  10.4613810  84.2559738  34.3237038  10.9688902
  84.4489822  33.8371811   9.5486689  78.2184219  55.3892899   2.3151212
  79.1036835  55.0533485   2.1748321  77.7812881  54.7070274   2.8246958
   4.3650165  45.9704208   8.7347984   4.0332541  46.7978783   8.3862591
   3.9588578  45.2994080   8.1861525  52.1629181  56.7835770   6.8034520
  52.7010612  56.0480843   7.0961795  52.2940826  57.4569397   7.4709921
  75.5061188  64.6283569  15.7220669  75.6770630  65.5506592  15.9127865
  74.6276855  64.6212082  15.3418903  41.3959541  57.0089607  74.3236389
  41.4714241  56.5850945  75.1785507  40.8169098  57.7556114  74.4767761
   8.7788916  18.6457272   8.5939856   8.0733862  19.1540737   8.9940815
   9.3092976  18.3488712   9.3334293  17.9762707  13.3208752   8.5353317
  17.4347973  13.9227209   9.0460358  17.6249123  12.4534340   8.7361403
  76.4297638   0.2524349  21.5274353  76.4473038   1.1253893  21.1351662
  75.6928787   0.2788807  22.1377888  18.8297863  19.2019348   2.4975686
  18.3566227  18.6847553   3.1493928  19.5555019  19.5936813   2.9834726
  48.1732254  49.7757492  66.9360352  48.4045601  49.3254700  66.1236496
  47.8657532  49.0795593  67.5165634  14.9043388  55.2102394  56.7368088
  14.5724163  55.5337639  57.5743027  14.6454563  55.8785248  56.1022987
   2.5496757  26.3580685  28.4890575   3.3515704  26.3431683  29.0115280
   2.4996991  27.2527466  28.1524792   2.9791498   8.0889854  62.3198013
   2.5196970   8.2710171  63.1395569   3.3751862   7.2278471  62.4533195
  40.5087662  68.2439041  77.8123322  39.5702095  68.3515396  77.6581802
  40.8650284  69.1300888  77.7492676  50.0395164  52.7278214  24.0577202
  49.3835068  53.0789490  23.4555607  50.4785728  52.0391350  23.5585499
  50.9335213  28.0997543  52.7766685  51.3701210  27.9882851  51.9321632
  50.4227562  28.9032593  52.6780205  22.7458668  13.7939129  17.1862926
  22.8803692  14.7361155  17.2882442  21.9337006  13.7207689  16.6850262
  10.5051517  52.9389725  81.5707932  10.7887754  52.2050858  81.0256348
   9.5961475  52.7360344  81.7916107  70.7662582  20.7111950  84.8257294
  70.7523422  21.3524342  84.1152039  71.5348053  20.1700096  84.6449356
   1.7103560  13.5843735  67.9843216   1.0266399  12.9441071  68.1813583
   2.5220206  13.0770140  67.9885941  11.5182037  10.0785227  25.1642513
  10.7439699  10.3137150  25.6756020  12.0809288  10.8513393  25.2124786
  49.9832344   1.3848311  67.0987015  50.7110329   0.8182667  67.3547134
  49.2688637   0.7805679  66.8967743  27.7565136  50.7690659   3.6332121
  27.6312866  49.8200989   3.6296282  27.7320213  51.0103912   4.5591679
  10.3849955  68.8176575  58.5724106  10.5605793  69.3310852  57.7838707
  10.2834177  69.4701385  59.2653694  40.3300018  50.9243660  16.0225925
  41.1724510  50.5706215  15.7373314  40.0008011  51.4023056  15.2613888
   2.4937856  47.0663490  28.4932480   1.9540348  47.5637054  27.8788071
   3.3828292  47.1420822  28.1466961  72.4558182  41.4738007  85.2894440
  71.9366531  41.2525253  86.0625687  71.8074036  41.6441002  84.6062241
  11.3666925  11.1942673  86.1133804  12.0489693  10.5358582  86.2446365
  11.3154154  11.6561594  86.9501953  83.5699310  64.0941925   5.2269864
  83.2323914  64.8085632   5.7673349  84.2026672  64.5133820   4.6437621
  42.0156555  36.9784203   8.3546152  42.8546448  36.5378227   8.4895220
  41.4898529  36.3471298   7.8634553  84.1110382  27.8322468  64.0609131
  84.4558792  28.0433044  63.1932907  84.5412521  27.0101738  64.2961655
   9.6611347  19.2000313   6.1033239   9.5768795  18.3710270   5.6322794
   9.3692245  19.0007954   6.9928880  47.0112534  52.5978699  45.7584343
  46.4801712  52.2126274  46.4554100  47.0984497  51.8993340  45.1098404
  85.5908813   2.3774345  13.9545717  85.7700195   3.3140144  13.8711557
  84.8164444   2.2323658  13.4110260  87.0395889  71.2827759  40.0305099
  86.4444656  71.4524307  40.7607651  86.6657104  71.7726364  39.2980614
  25.5004807  65.0313721  29.6389465  24.8704777  65.5776596  29.1689472
  25.0312119  64.7445297  30.4223595  36.5231743  61.0531693  73.0398865
  37.3512993  61.3745117  73.3965073  36.7636528  60.6406708  72.2102814
  56.6013756  49.3900146  54.5806313  55.6658974  49.4316978  54.7790527
  56.6591644  49.6113243  53.6511612  12.1774359  50.3650818  43.7893524
  11.8258266  51.1701355  44.1694717  11.8846693  50.3826561  42.8781929
  79.1367188  56.4327736  17.8981743  79.4534760  56.1311455  17.0467529
  79.8420944  56.9859161  18.2339058  68.9702377  51.7942009  33.1589775
  68.3831406  52.5456734  33.2416916  68.6120453  51.2896652  32.4286499
  19.4751644   0.6297186  29.3325233  19.0052128  -0.0444402  29.8233242
  20.2423344   0.8263770  29.8701172  56.0416718  54.1778526  28.4481792
  56.5466576  54.9178391  28.1110706  56.4178314  54.0044594  29.3111248
  73.9241791  17.6117172  14.1655998  73.6667328  18.4072075  13.6996098
  73.0960007  17.1985130  14.4097548  42.8677177  51.3675461   2.3133531
  42.8396187  51.2156334   3.2580040  43.6698608  50.9323692   2.0245354
  43.6399460  51.0730782  76.2140579  43.5087738  51.2567406  75.2838516
  44.4415817  51.5445709  76.4405746  19.8750439  45.1201210  72.3238449
  20.0518970  45.8330383  71.7100830  18.9294376  45.1569786  72.4677124
  62.9013596  30.1091156  63.8913269  63.5126495  29.3983517  63.6980133
  63.3307762  30.6129513  64.5826950  46.5273323  13.6682510  42.3669624
  46.5799446  13.2401094  41.5124702  46.1556587  13.0026894  42.9458542
  49.4185829  35.9050026  71.6796036  49.8104095  36.7723427  71.7817001
  49.1648216  35.8638458  70.7575684  40.5180779  33.9940758  80.9947586
  40.2694206  33.1897430  80.5392914  41.4269295  34.1451530  80.7351456
  53.7115326  70.4510727  19.3377209  54.1238823  69.6490860  19.0167656
  53.0953941  70.6963806  18.6474819  31.1192932  66.1726456  34.2097778
  31.7863750  66.7556610  34.5721741  30.2943039  66.5013428  34.5669670
  15.9713211  58.7602921   1.3298957  16.4321442  58.4120903   0.5665927
  16.6136856  59.3240776   1.7608738  67.1890411  42.8731956  41.7620659
  67.8756866  42.2063751  41.7723083  67.5426483  43.5892258  42.2897987
  35.7438545  54.1899986  59.9887085  36.2331047  54.9735985  59.7380333
  36.3933411  53.4870262  59.9734497  48.1262093   5.9607801  80.0606613
  48.7041512   5.3481102  79.6058578  48.5230026   6.8191895  79.9126053
  76.6113052  50.3244858  58.6476440  76.6259995  49.7640495  59.4234848
  76.3157654  49.7490807  57.9420929  71.0250244  11.6918869  10.4782858
  70.2440109  12.1214561  10.8271732  71.7547302  12.2136707  10.8122129
   5.0564275   9.0656986  78.3279190   5.8908558   8.8594341  78.7491302
   4.4126244   8.5382586  78.8007431  52.9198494  68.1791992  71.7905807
  53.7838707  68.4152374  71.4529648  52.3353806  68.2711105  71.0381393
  52.7594109  15.0466909  63.8434677  52.7400932  14.7741804  62.9260788
  51.8508186  14.9710732  64.1349716   1.2825803  17.5275211  66.5143738
   2.1650255  17.1640453  66.5879135   1.2772605  17.9740658  65.6677322
  57.0627975  24.2652035  66.7022934  56.2711334  24.0410271  66.2131653
  57.3742065  25.0741348  66.2962265   6.4677510  33.8596954   9.9470234
   6.8446641  34.6351089   9.5312128   5.6268277  34.1584244  10.2932034
  73.5841141  48.5142212  48.4413185  74.3175507  49.0803566  48.6817284
  73.4753418  48.6498947  47.5000458  68.3893967  62.1512413  36.5145111
  68.9256287  62.8725090  36.8438416  69.0225220  61.5107689  36.1901855
  50.4773026  24.9168434  65.2166290  50.5416489  25.3224888  64.3520203
  51.1095352  25.3949947  65.7531738  45.2638474  26.0580387  18.2771320
  45.9058876  26.1692333  18.9783115  45.0811768  26.9481773  17.9762707
  30.8277702  11.2728786  76.0679932  30.5151806  10.4289904  75.7418442
  31.7751045  11.2455606  75.9336624  37.6532936  34.8070641  59.2956352
  38.1359024  35.5000420  58.8449669  36.7413445  35.0970688  59.2737007
   3.1710076  59.9818954  70.1120834   2.3275278  59.6878891  69.7680893
   3.7777503  59.2737923  69.8960037  36.3453407  55.9836159  54.7831001
  36.9244499  55.8401451  55.5316200  35.7173004  55.2624474  54.8244781
  12.9629126  33.4659500  88.2881699  12.7220364  33.7768517  87.4155045
  12.1572838  33.5402222  88.7997131  12.9736290  44.9993057  23.5446281
  13.5424099  44.3759270  23.9964218  13.5125933  45.7834854  23.4406605
  67.6972046  16.8774204  88.6492462  68.5540771  17.2658482  88.8256454
  67.6738815  16.0910263  89.1944733  77.4834824  21.4406090  75.4220581
  76.9733810  22.2355194  75.5774536  77.6513519  21.0890045  76.2963791
   7.0747442  36.4474182  47.5980568   7.0585761  35.9558220  46.7768936
   7.3154440  37.3371544  47.3398590  55.7806702   3.6930213  78.7678375
  55.8231430   4.1268573  79.6200180  56.6343231   3.8631763  78.3696365
  29.6942501  20.0580540   4.9920988  29.5544434  20.3916550   4.1058731
  28.9011497  20.3037510   5.4683948  85.0802078  57.8294907   0.5315621
  84.2036209  57.4598503   0.6373626  85.4011688  57.9445686   1.4259732
  45.7658920  11.1890650  84.7265701  46.5397034  11.7524080  84.7361450
  45.4775085  11.1627226  85.6389160  72.6260529  18.9345703  44.2260971
  73.0080261  18.1172333  43.9062767  73.3243942  19.3404617  44.7397118
  50.8387718   5.4547696   1.2123220  50.2166786   4.8364592   1.5956289
  51.2767868   4.9569216   0.5220167  38.9262810   5.7163072  78.3827057
  39.4643402   6.5073624  78.3517380  38.0666122   5.9990063  78.0708008
  75.2399445  58.7122116  58.5759583  76.0952530  58.5634308  58.9791298
  74.6835861  58.0194130  58.9319458  35.3521004  15.9266338  81.1854095
  35.9175148  15.1593666  81.2739639  35.4516296  16.3944683  82.0145416
  64.2303391   6.6008735  18.4227028  64.3435287   5.9528608  19.1180439
  63.9052391   7.3806791  18.8726444  22.8171043  44.3872108  56.2651253
  22.0201244  44.0961571  55.8220177  23.5220985  44.1765137  55.6528969
  17.4859161  34.9050102   5.6728067  16.5979385  35.2584190   5.6196389
  17.4293079  34.2132263   6.3319445  52.7300415  35.0998917  15.9726763
  52.0597916  35.3646317  16.6026840  52.7752838  35.8267365  15.3514795
  78.5658493  41.1888924  59.5904770  78.7074890  40.5158310  58.9247742
  78.1040726  40.7350502  60.2954750  81.7415771  19.1469841  67.4505997
  82.4317780  19.4410210  68.0450745  82.2083054  18.7023869  66.7429733
   8.8360758  45.8489304  50.0699463   8.0310736  45.4276047  49.7687988
   8.5397797  46.5185585  50.6864204  35.1234322  70.5942078  40.7857590
  35.0635719  71.4194183  41.2670860  34.6514893  70.7583618  39.9693298
  37.3339767  54.7135963  25.6283340  37.4460678  54.5450745  26.5638905
  37.5684738  53.8870811  25.2063026  73.1034927  15.3703852  36.4267120
  72.8847961  15.0053186  37.2841110  74.0584717  15.4354296  36.4306068
  57.6000404  58.1157684  75.7336426  57.7094193  58.1179199  76.6845703
  58.1815720  58.8101997  75.4240875  64.0330200  55.3586769  23.4413624
  64.8412933  55.8426857  23.2720490  63.7006340  55.7265053  24.2601719
  78.8376770   9.6464396  38.0105133  78.8574753  10.5995111  37.9239349
  78.2334747   9.3563604  37.3271217   1.9498588  24.1033611   2.3532369
   1.8697590  23.8362446   3.2689140   1.0503739  24.2742519   2.0740321
  28.2109070  60.4374924  46.4008636  29.0554390  60.1430855  46.7419205
  28.1457138  60.0291443  45.5375938  63.3314247   7.2280946  75.8916855
  62.4928932   7.4673944  76.2864380  63.8511391   8.0310917  75.9281158
  65.1238556   8.4647503  44.5964012  65.6269455   7.6504855  44.5861778
  64.7446213   8.5230083  43.7194633  47.4186249  71.4242249  31.1279793
  47.9703445  70.7172318  30.7933216  46.9157333  71.0210800  31.8356533
   2.4972699  46.7828674  86.1111603   1.8989983  46.9754410  85.3892059
   2.0530653  47.1234131  86.8876572  61.2735634  14.6863317  52.5419655
  61.5137100  14.3899765  53.4198799  60.9466820  15.5767145  52.6708031
  72.0486603  55.7303352  40.5684738  72.8195877  55.8334618  41.1263962
  72.2771912  55.0159111  39.9738312  71.8908081  71.2052841  24.6738052
  72.2565842  71.6856308  25.4165726  70.9769669  71.4871521  24.6328735
  61.2845497  33.1307831  19.2980289  60.8024445  33.1149368  20.1248035
  62.1769104  32.8794594  19.5362663  37.4832687  26.0207005  21.6462517
  37.3164749  25.1392422  21.9800892  36.8660583  26.1232224  20.9218388
  77.8193054   2.4737158  23.9975815  77.1508255   2.1011386  24.5725136
  77.7298050   3.4202845  24.1081657  73.4605484  41.4623032  14.1343184
  72.7575378  41.9275856  13.6809769  73.5860977  41.9515038  14.9474306
  31.3620338  55.6242638  77.2606583  31.6010723  56.3882446  76.7358551
  31.2953835  54.9098282  76.6271210  25.8536301  31.3505020  20.6255608
  26.4689655  30.7576523  20.1941376  26.2311707  31.4980469  21.4926968
  80.2093124  56.8354645   4.1246157  80.4245148  56.0466537   4.6223125
  79.2550201  56.8944893   4.1701517  84.6669312  65.1613770  33.1115379
  85.6072922  65.0100403  33.0163956  84.6046066  65.9865952  33.5925446
  84.0376892  31.1231155  41.6578102  84.3024750  31.1407299  42.5774918
  83.3785324  30.4305859  41.6115685  57.6114922  59.8341103   4.3518333
  56.8860550  60.3657799   4.0242724  57.2981834  59.4909973   5.1886983
  28.5567741  61.2132530  81.7779770  29.3984604  61.6690865  81.7740097
  27.9052334  61.9136581  81.8119965  16.6534748  29.7084045  72.3334122
  17.1342697  28.9128666  72.1049652  17.3084850  30.4050236  72.2896347
  42.0455437  69.2922516   0.5100700  41.8693390  70.0049057  -0.1041782
  42.8922539  69.5139160   0.8975992  79.9103088  22.7479763  13.6316175
  79.7920761  23.5962639  14.0590105  79.1309586  22.2474365  13.8730822
  34.8896255  61.3892059  11.8489914  34.0112610  61.1791840  11.5318260
  35.3281860  60.5412521  11.9187880  71.8036499  48.9603462  66.3693542
  71.6440353  48.3994904  67.1284256  71.0637665  49.5675697  66.3604050
  55.9922600  71.3318787  22.4945049  56.1743317  70.3923187  22.4769936
  55.9584579  71.5865250  21.5724182  46.0993347  24.4239082  43.2292328
  46.7680588  23.7403812  43.2719994  46.4683723  25.1516724  43.7296371
  72.8451691  24.3883057  55.0326614  72.2670898  24.0426998  54.3525047
  72.7706451  25.3390121  54.9499969  27.8444252  62.2891121  84.7000046
  28.2476311  61.8381729  85.4418335  27.4336491  63.0633163  85.0848389
  37.3089066  71.4804916  56.8716965  38.2611732  71.5608368  56.9261894
  37.1615448  70.5903320  56.5521240   6.5781388  44.1189575  74.3302383
   6.1439371  43.2949486  74.5509491   5.9267144  44.7926598  74.5251846
  14.1260757  69.2942429  84.5020752  13.2462063  69.1521683  84.8511887
  14.1641140  70.2338943  84.3236465  26.8548813  43.8639069  78.3307114
  27.5242596  44.5339813  78.1922836  27.1907539  43.3358727  79.0550079
  79.7095184   6.5319691  62.8741760  79.7182999   6.3239675  63.8084641
  80.6340103   6.5802727  62.6308517  42.2174911   9.4854832  84.7554779
  41.6641731   8.7962646  85.1229630  42.9786263   9.0212755  84.4070282
   8.9428530  41.7158165  14.6021309   8.2258167  42.3499107  14.5981455
   9.1695385  41.6164093  15.5267735  42.1625481  52.9765434  68.2317581
  42.6435089  52.9219742  69.0575485  41.6348877  53.7709312  68.3139496
  85.7423019  12.9673176  64.7395554  85.5780792  13.1292439  65.6685562
  86.6217651  12.5903416  64.7139435  79.9456711  40.6818504  23.9185486
  80.3139648  41.0771790  23.1284199  80.4953232  39.9152985  24.0813751
  47.8880806   2.3949671  76.0396118  47.6553497   1.6434588  75.4943619
  48.4873199   2.9078977  75.4973526  18.8060741  50.2084656  77.1529617
  19.3977127  49.4599304  77.0762177  18.0497437  49.8679581  77.6307220
  44.8379059  46.5894852   2.7558370  44.4397049  46.2548370   3.5593781
  45.0059814  45.8084869   2.2285562  22.3203354  21.3022461   0.9023992
  21.5126171  21.7645206   0.6785138  22.7012749  21.0627422   0.0575588
  62.2415428  18.3173428  16.1992664  62.1652451  18.1795292  15.2551165
  61.3607864  18.1547489  16.5369968   6.1034517  65.0729599  17.2135868
   6.8181157  64.7920074  17.7850361   5.4599395  64.3665924  17.2699032
  68.6637726   1.9566662  83.9369583  68.1732178   1.6783882  83.1635590
  69.5371399   1.5850097  83.8131485  32.1775055  43.6684265  61.0396194
  32.6521950  43.5904503  61.8671570  31.4015312  43.1202087  61.1560326
  73.7074661  49.6605301  39.9899406  74.1886215  49.5396881  40.8085480
  72.8126297  49.8597717  40.2652512   2.6496403  11.9084702  85.6455383
   2.6122253  12.6976395  85.1051254   1.7344109  11.7104588  85.8439789
  33.6722870  64.7821503  23.2278557  33.0080910  65.0269470  22.5835304
  33.6220818  63.8273201  23.2726631  35.2433548  61.4549179  80.2331390
  34.7047615  62.2461472  80.2227325  35.7164421  61.4981232  81.0641327
  79.0380478  44.7060280  73.7438889  79.1823502  44.0637703  73.0489655
  78.8109589  44.1813240  74.5115738  48.6383018  47.2593956  76.1602936
  47.7006683  47.1224442  76.2956390  48.7558098  48.2061386  76.2384262
   9.6375074  45.9970856  67.5123215  10.2621794  45.6185532  66.8936691
  10.1156816  46.7157135  67.9260254  26.7806549   9.2833757  37.8035660
  26.0828094   9.9385109  37.8100243  27.4616852   9.6643257  37.2492142
  38.4711037  50.2119560  43.4941368  37.9827347  50.2973518  44.3129349
  38.2940979  51.0265160  43.0236130  49.2935791  42.6511040  47.4624977
  49.6163483  42.0148506  48.1006432  48.8598595  43.3212318  47.9907494
  76.9767075  28.9823952  28.4694977  77.0920181  28.9548588  27.5196667
  77.2483673  29.8658886  28.7182331  12.4889116  53.6457367  47.6838226
  12.0759916  53.0302429  48.2895393  12.1443882  53.4034538  46.8242683
  81.7565842  23.6169796  27.6678028  82.6991425  23.7759705  27.6174736
  81.5750961  23.0209045  26.9411736  17.3571682  20.4214554  57.5316658
  17.2283783  20.5861702  56.5975838  17.3133698  21.2879829  57.9359474
   9.3560162  67.8848877  66.5796356  10.1025057  67.5737762  66.0675888
   9.1279459  67.1460190  67.1438065   2.5876710  37.3173065  21.6141663
   3.0701931  37.9955177  21.1414757   2.4003763  36.6514015  20.9525604
   1.4799483  57.2645721  64.9181061   2.3551741  57.3679085  64.5445633
   1.5288771  56.4520378  65.4217148  52.0645256  70.0965500  86.4764099
  51.1148605  70.1947403  86.4076462  52.3126678  69.6108322  85.6898117
  67.1569672  47.7611427  41.8435440  67.3861160  48.2254601  41.0384789
  66.2997589  48.1111946  42.0862198  83.8574448  68.8812866   6.9516759
  83.3511353  69.6842957   7.0743785  84.7705612  69.1666641   6.9834738
  52.2957039   4.8610005  79.6389847  51.9258690   5.4127069  80.3282394
  53.0382843   4.4232864  80.0551682   2.7872744  26.0079479  14.9122391
   2.7319200  25.4486275  15.6870470   2.2444515  25.5665894  14.2589560
  30.2361927  64.7226257  73.7025375  31.1865215  64.8210068  73.6439819
  30.0611401  64.6412125  74.6400604  44.2005959   4.3237019  71.2958603
  44.5128250   4.2061114  72.1930313  44.9726028   4.6131492  70.8095856
  45.4889145  12.4052620  56.9433250  44.6944580  12.2104588  56.4462128
  45.5995827  11.6516132  57.5229759  70.3298264  61.3768463  84.2426682
  69.3837051  61.3987617  84.3862000  70.4874573  60.5362740  83.8127594
  85.7698364  11.4744520   6.2621679  85.1250381  11.4751921   5.5547285
  86.5588150  11.1038055   5.8667378  83.5283051   9.4207821   0.3825620
  83.4981079   9.6844130  -0.5371221  84.4527893   9.4890709   0.6210681
  60.2823982  10.8324785   2.8909509  60.2701416  11.7853918   2.8013017
  59.3859100  10.5617247   2.6928852  17.5919132  27.6372566  11.1487389
  17.6877365  28.2253189  11.8978920  18.4872112  27.3760185  10.9332609
  29.7712059  67.3800964   1.1620562  30.6087513  67.7378006   1.4566705
  29.1135883  67.8846130   1.6408426   3.9754128  32.3883247  61.1775665
   4.5023804  32.4524574  61.9740753   4.4368954  32.9336891  60.5405083
  33.4380951  29.4051609   8.3936539  32.8225822  29.3901749   9.1265602
  33.5768852  30.3355160   8.2164268  62.7445793  45.2187042  87.4794159
  62.4668732  45.4155731  88.3740387  63.7007103  45.2484550  87.5133972
  41.6669617  17.8746033  80.1211243  42.1470032  18.2261086  80.8709488
  42.2544518  18.0071259  79.3771362  41.6537819  56.7089233  26.6372013
  42.3653069  56.2446404  27.0781116  41.9321785  56.7610626  25.7228661
  25.8518791  40.0764160  19.4862080  26.7825775  40.0914154  19.7093792
  25.7982216  39.5036201  18.7211857  43.0379601  53.7547836  44.6767540
  43.2307739  52.8209000  44.7599106  42.2498932  53.8845444  45.2043419
  20.9398918  52.5565109  10.0305023  21.4178219  51.8535538   9.5904255
  20.0235844  52.2820396   9.9947615   0.6600958   4.6622562   5.8262410
   0.3481962   3.8294175   6.1802607  -0.0132864   5.2954421   6.0749655
  64.8583145  -0.1022569  59.2534103  63.9839668   0.0843898  59.5953293
  65.4405518   0.0246964  60.0024872  80.0636749   8.2549000  12.6900644
  81.0173874   8.2021875  12.7523727  79.8334961   9.0354357  13.1940651
  23.7084942   4.3987703  29.2316761  23.8316116   3.5954840  28.7259045
  24.4450264   4.9557509  28.9796371  47.3587189  14.9113674  11.4621811
  46.8487282  14.1252127  11.2669868  48.1546898  14.8165178  10.9390507
  28.2972927   5.7981396   5.4294839  27.7240181   6.0265007   6.1612220
  28.7586174   6.6112347   5.2238445  37.5702744  44.3721504  24.6547413
  37.1663208  44.7659645  25.4280205  36.8312683  44.1086884  24.1063881
  21.7848740   4.6818647  87.6328659  21.3635845   5.1798501  88.3334045
  22.2218094   3.9585845  88.0825119  61.0360146   7.9073896  77.4519730
  60.7120705   7.2194719  76.8705444  60.5088463   8.6753025  77.2314377
  79.6048279  57.8374596   8.4062738  79.1181259  57.0472107   8.1720562
  78.9368057  58.4446983   8.7244530  35.3136063  27.4655914  86.9412003
  34.4300575  27.5339813  87.3030014  35.2666054  27.9292583  86.1051178
  62.0993767  62.6581993  27.8508244  63.0416832  62.5562897  27.9846535
  61.9550591  62.3840561  26.9451466   6.4446635  36.7466202  67.1589584
   6.9318862  36.0721931  67.6322403   7.0783844  37.4517517  67.0269852
  29.7358494  62.3119698  67.8079834  30.1749725  61.6074295  67.3315125
  30.4412842  62.7640381  68.2708359  18.5470448   6.1984029  23.7630959
  18.0196266   6.8277702  23.2712040  19.4506931   6.4045520  23.5240250
  11.9472809  30.6033974  23.3299141  11.6734505  30.3359413  24.2072487
  12.7760630  31.0622196  23.4671478  43.3430595  39.9735374  61.5842094
  43.9878845  39.9665146  62.2915878  42.4982338  39.9092293  62.0295868
  84.2769394  54.5818481  19.6935692  84.1198349  54.5346565  18.7505302
  85.0259476  55.1711998  19.7824020  19.0183430  58.5762482  20.7423439
  19.2135658  57.8197212  20.1893616  19.3394566  58.3284187  21.6093502
   0.3556553  22.6569214  80.2958450  -0.0350373  23.5052567  80.5054092
   0.3535346  22.1805973  81.1261139  70.3985825  52.2148438  83.7543259
  69.6752701  52.3582649  83.1440048  70.0954056  51.5070305  84.3229370
  69.9449768  21.7109146  70.6394348  69.3741684  20.9926224  70.3665543
  69.5523224  22.4909859  70.2475891  80.8424988  16.2998829  26.3949070
  81.7595596  16.1712475  26.1526661  80.8235397  17.1611214  26.8122101
  70.1095810  69.5607910  75.6962433  70.8716736  70.0215988  75.3453903
  69.3826523  70.1710663  75.5722351  72.8477325  18.9019222  29.0530071
  73.0697174  18.3718891  29.8185253  72.0046387  19.2984447  29.2725506
  22.6364212   8.2427263   1.4785199  22.3817120   8.7028971   2.2782683
  23.5780525   8.0997486   1.5740206  23.3766708   4.1982450  81.5197678
  24.0326862   4.5503778  82.1213303  23.1428070   4.9388003  80.9601974
  48.4038200  64.6222534  56.6619453  47.6730042  64.3230362  56.1210098
  47.9904900  65.1095276  57.3746490  79.0797501  66.4735336   0.5704086
  78.7109222  65.6142349   0.3659507  79.4908829  66.3599701   1.4273235
   1.5225461  40.4448013   4.1632748   1.3611008  40.5762444   3.2289894
   1.1296816  41.2094994   4.5841351  17.9014626  28.8088188   8.0515728
  17.1718063  29.2671547   7.6347270  18.3237476  29.4745770   8.5944099
  79.5064774  68.8501053  58.5902939  79.1774521  69.6033249  58.0997505
  80.0604324  68.3812332  57.9661713   2.5693216  63.2770729  50.1840858
   2.2843275  62.7273254  50.9140091   3.3246162  62.8167572  49.8182030
  69.5467834  27.6997414  27.9558926  69.8230362  28.0508976  28.8024197
  68.7095642  27.2720032  28.1357155   4.4280605  45.3623619  77.6329193
   4.4979038  45.3174667  78.5865097   4.8791442  46.1731606  77.3976288
  72.0338440  68.9947662   9.9521294  71.5118866  69.7968216   9.9300585
  71.4446259  68.3163986   9.6221695  31.8386765  66.2905579   3.7319779
  31.0902367  66.8872681   3.7324979  31.6073437  65.6156387   4.3701043
  52.7634583  54.6037827   2.2785299  52.4428215  55.3502617   2.7846816
  51.9713326  54.1833000   1.9439201  54.3094215  56.3194427  58.7338104
  53.6018753  55.6750908  58.7542534  55.1083145  55.7959862  58.6705856
  73.6148529  53.2415085  17.4859982  73.4096375  53.7360115  18.2794628
  72.9831161  52.5223961  17.4818363  67.2310333  33.8867378   8.0771351
  67.0464020  34.0229225   9.0064344  67.4008713  32.9477463   8.0017815
  26.0992146  42.3625641  73.8922119  25.8540115  43.2267570  74.2227859
  27.0177193  42.2622452  74.1422501  84.9172134   2.1238925  49.5963287
  84.6867218   2.6494620  50.3624115  84.9909744   1.2305653  49.9321213
  46.4737206  37.0853195   7.4698434  46.1007576  36.2850647   7.1000805
  45.8975716  37.3015556   8.2030067  28.8938351  21.5010567  86.4623032
  28.9435635  21.4986496  85.5063934  28.5135822  22.3520298  86.6802139
   3.4720187  54.5544167  79.7080688   3.3669405  55.3366394  79.1664810
   3.9116852  54.8676720  80.4985123  13.8008928  27.8558407   2.0230010
  14.1121674  27.3684578   1.2602453  13.5036373  27.1811008   2.6334074
  15.2133188  15.6589146   2.6350548  16.0914192  15.3955412   2.3597238
  15.1891737  15.4685459   3.5728226  84.0424118  60.1695557  34.9654655
  83.6306305  60.5208244  34.1759872  84.0687180  60.9099464  35.5715675
  17.0014610  59.4351997  14.3428173  16.9498272  59.2386475  13.4074383
  16.1117744  59.2943420  14.6666250  32.9501572  20.0525036   2.6212435
  33.5840263  20.6930046   2.9440384  33.1088295  19.2708340   3.1504366
  20.3919296  60.6570129  19.5686150  19.8975525  59.8761940  19.8179073
  21.2567196  60.3257675  19.3264427  52.7256470  49.9245224  85.9933167
  52.7726669  50.8803024  86.0157700  52.8757896  49.6559753  86.8997269
  40.1248665  45.4493370  70.8982773  40.8940239  45.7173805  71.4010544
  40.4795570  44.9306145  70.1762314  66.6461258  27.3387489   8.3482141
  67.2077560  27.7907791   7.7185574  66.8064804  26.4088192   8.1877556
  65.7784653   4.0437613  55.0236816  66.5638733   3.8789477  54.5019531
  65.6979752   4.9974198  55.0406837  34.3322868  10.3079557  18.0372353
  34.9226799  10.6571379  17.3695965  34.5111580   9.3676682  18.0470200
  39.5398445  19.3366814  67.2038727  39.6215477  19.3468838  66.2502213
  39.0918350  20.1558838  67.4146576  30.6631489  39.1650047  54.3427315
  30.6905861  38.5447083  53.6142311  31.5368137  39.1173744  54.7308960
  73.2045441  39.8162422  40.6396942  72.4445496  39.6507072  40.0818100
  72.8428574  39.8836517  41.5233612  68.8507462  21.6720009  61.2157097
  69.7226257  21.9292107  61.5155296  68.2607498  22.3067131  61.6222534
  69.9539490  25.4577255  18.2312889  70.4762726  25.6819420  19.0014381
  70.3368835  25.9755249  17.5231419   3.9650085  26.8553467  72.0048523
   4.6157122  26.1711845  71.8475647   4.1343279  27.1454201  72.9011917
  62.7001228   4.7284026  78.9772491  61.8613167   4.4436579  78.6145401
  62.7823257   4.2445679  79.7990646  73.1861115  22.8281956  64.1659164
  73.6447906  22.2613735  64.7860413  73.8544769  23.0735683  63.5261383
  86.2145157  43.7231255  88.9557724  86.0146255  44.3284073  88.2416916
  86.6823654  44.2567062  89.5981445  49.1253471  55.7017365  41.2185860
  49.5588799  55.9821968  40.4125938  49.8403206  55.5659409  41.8403587
  14.8742456   8.8677416   3.2783735  14.0250826   8.5457525   3.5808260
  15.4438124   8.0987673   3.3008325  79.1835556  68.2902451  25.2846966
  78.9074707  69.1307755  24.9193001  80.1376877  68.3510590  25.3311024
  49.5740585  42.2975082   0.7511731  50.0695534  41.9331703   0.0177054
  50.2366104  42.4952469   1.4131089  75.1574936  68.9053955  63.9176598
  74.7721558  68.6191711  64.7458038  74.5230484  69.5267181  63.5603600
  19.7510548  44.6054153  86.6599197  19.4159660  44.0493317  85.9565582
  20.1044731  45.3731308  86.2105331  74.0351028  35.8805122  10.2542801
  74.7426453  35.6789894   9.6419010  73.3042145  35.3349762   9.9637184
  59.2219620   3.9359326  39.0980949  58.5103340   4.4914827  38.7800102
  59.6350670   3.5975769  38.3036842  24.9111881   2.5329564  79.5271530
  24.5497646   1.7520075  79.1079559  24.2310658   2.8123014  80.1400375
  45.9637871  52.2643585  76.6077347  46.3038101  52.0414429  75.7411728
  46.7411728  52.3173294  77.1637039  69.4907532  17.5172462  23.9187641
  69.1897278  16.6183357  24.0513363  69.6687546  17.5742283  22.9799862
  42.0436592  46.1534691  72.8152466  42.9641647  46.2809372  73.0447083
  41.5986671  46.0534325  73.6567917  31.7829170  51.1481438  86.6581421
  32.3535652  51.3344536  87.4037170  31.0408840  50.6764488  87.0364532
  56.9761124  59.6937103  64.1299057  57.5122299  58.9851418  63.7738953
  57.3375549  60.4881744  63.7369461  27.6677761  59.2347069  33.1155472
  26.7927437  59.4468613  32.7906761  28.1380348  58.9147530  32.3456650
  23.8836002  20.8960648   4.8911643  24.2832317  20.7722683   4.0302343
  23.2983685  21.6450329   4.7781062  33.9922104  71.0524521  22.8577213
  34.7979164  70.7964554  22.4087925  33.8964996  70.4114609  23.5621395
  28.4424610  44.5920219  75.8454590  27.8019104  44.0554085  76.3123322
  29.0307827  44.9120064  76.5293579  41.4137154  47.4246178  17.2871437
  42.2145500  47.8279572  17.6221237  40.7102203  47.9936562  17.5994186
  57.3437424  28.0452633   8.9596453  57.9956093  28.7430077   9.0263529
  57.8591537  27.2409363   8.8993034  32.4357338  57.6429100  52.2962379
  33.3320618  57.6770401  51.9620743  32.3479462  56.7605438  52.6567268
  51.6081085  53.6320114  53.3026085  52.4469147  53.1733017  53.2554817
  51.1184540  53.3143654  52.5439453  34.7879219  65.1110764  87.2665634
  35.0980492  66.0025940  87.1076508  33.8373909  65.1974945  87.3390579
  86.7191391  17.1476860  14.4762888  87.3223648  16.6984444  15.0683460
  85.8490295  16.8829365  14.7746992  77.9320145  53.7660065  69.1777649
  78.6736374  53.4525604  69.6954346  77.7530746  54.6413498  69.5212631
  74.6989822  38.2210312  45.1530228  74.0601578  37.6088257  44.7878532
  74.5980682  38.1353493  46.1010246  21.4667339  64.3894043  76.6605835
  21.1220531  64.4509201  75.7697144  21.1234856  65.1649933  77.1042862
  69.8740616  22.5770741  73.5532837  70.2058640  22.1025047  72.7910995
  69.3556290  21.9298553  74.0313721  76.3069077  33.4802284  28.7388020
  76.9622116  32.7875214  28.6553993  76.8144531  34.2677193  28.9349804
   4.8270974  48.6563759  68.2598267   4.5374165  48.6904716  69.1715012
   4.4459534  47.8478203  67.9174881  32.6519279  60.8358727  27.7515373
  31.8814468  60.4931908  28.2044849  32.3854637  61.7039986  27.4489059
  16.7770958   7.2893033   8.7998171  15.9091406   7.5284462   9.1249256
  17.3627052   7.4502439   9.5396757  19.2179661  59.2940712  15.8570700
  19.6814976  60.0000267  15.4065189  18.4038277  59.1896019  15.3646307
  50.7531853  37.4809875  56.3775024  50.5261955  37.9821091  57.1608200
  51.2612724  38.0904694  55.8421440  10.0701981  61.1497345  68.1783752
   9.2544079  60.9076653  68.6166916  10.5401001  60.3224945  68.0730438
  38.1850739  45.4798546   1.3903502  38.7707672  44.7435074   1.2143236
  37.5048866  45.4103165   0.7204685  79.3945389  50.1184959  66.8237305
  79.7573700  50.9586449  66.5431442  80.0495834  49.4735832  66.5568237
  69.7891541  57.5125618  28.9738808  70.1877365  58.3729553  28.8431549
  70.4070053  56.8993874  28.5757523  79.7210617  29.1400280  36.8745537
  79.9837723  30.0366173  36.6663628  79.4004974  29.1873970  37.7752342
  62.6979980  66.4160919  23.5149002  63.0708389  67.2704010  23.2972336
  62.7507553  66.3679123  24.4694290  31.4613609  44.1350899  41.4023552
  30.8716049  44.7801628  41.0121040  32.2404442  44.1557617  40.8466301
   6.0776238  37.2687683  23.8422985   6.3682008  37.1300201  22.9408855
   5.2589579  36.7771912  23.9083958  59.6040268  36.3232193  16.3206749
  60.1849327  36.7881355  16.9228649  59.7701111  35.3967934  16.4949894
  56.0538864  62.9571762  17.9588680  55.7823524  63.2475700  18.8295994
  56.5318756  62.1429214  18.1161880  86.5461502   4.6144948  23.8487186
  87.3098907   4.8512859  23.3225384  86.1286316   5.4508271  24.0547695
  70.1596985  64.1838379  70.6082687  70.2705688  63.2619019  70.8405914
  69.8268738  64.5936813  71.4066925  36.9001236  70.9277039  22.1402645
  37.7929726  71.2694550  22.0927887  36.9726219  70.1429214  22.6834831
  66.1904678  52.1022606  63.8434639  66.3285980  51.2003136  63.5542488
  65.2605057  52.2647324  63.6853256  66.6472931  53.7012520  23.0669880
  66.1292038  53.8469887  23.8585548  66.0292740  53.3206825  22.4429264
  46.5368462  37.5936966  65.4418411  47.2532539  37.0421524  65.1275330
  46.8958244  38.0379181  66.2099762  17.3367443   0.2416464  84.4555969
  17.9265633   0.9727263  84.6396255  16.4603157   0.5994914  84.5971985
   9.4632139  47.9027557  24.2367649   9.1159201  47.9425926  23.3456802
  10.3216333  48.3221855  24.1782360  83.6083450  70.9560165  11.2019129
  83.3433380  71.1380692  12.1035013  83.6652908  70.0015640  11.1570911
  80.1156998  63.7133446   1.0891929  80.0762482  62.8864365   1.5697056
  80.9637070  64.0882950   1.3269440  13.0376701  36.3693581  33.4291916
  12.5798044  35.5658264  33.6760330  12.3394108  37.0072708  33.2817841
  86.5215073  58.6662560  35.2171631  85.6677780  59.0979958  35.2484818
  86.9039917  58.8290405  36.0793915  81.0584641  11.7442036  51.9643517
  81.2571716  10.9433098  51.4792557  80.3530045  12.1571016  51.4662857
  33.1602821   0.2458549   3.9262280  32.6851501  -0.1802314   3.2128348
  32.6250229   1.0074308   4.1492257  36.7447128  56.8472099  71.8752518
  37.3302727  56.9259148  72.6283493  35.9364624  56.4839821  72.2372284
  18.6603794  48.0000191  80.3417358  19.3892307  48.4498329  79.9143295
  18.8305492  47.0703773  80.1899338  54.8884506  18.8351650  22.7993069
  53.9408951  18.7863331  22.6728706  55.2393456  18.9912758  21.9225330
   7.2774191  50.1357651  61.4207916   8.1840477  50.0597076  61.7182312
   7.2438493  50.9783134  60.9677849  11.5699158  40.3608055   7.6164522
  10.6281366  40.2908249   7.4602890  11.9211569  40.7240829   6.8034997
  82.1822662  50.5168037  70.3386917  82.3491898  50.2280083  71.2358856
  82.5041046  51.4179192  70.3133392  76.0057907  35.7373734  59.9075737
  76.4138641  34.9015350  59.6815529  75.0782852  35.6132927  59.7061882
  82.8538666  18.1159382  40.1189041  82.9429855  18.9925232  39.7448883
  83.1741638  17.5294304  39.4335899   1.2954394  43.6494370  79.4078598
   1.4484355  42.7135201  79.2779236   0.9918885  43.7191162  80.3129730
   1.4824624   1.8890433  78.7935638   1.7977717   1.5250195  79.6207809
   0.7032116   2.3902349  79.0339890  73.5324402  54.6747169  19.7644997
  74.3081360  55.2344131  19.7288322  72.8450165  55.2402420  20.1164417
   9.0424309   0.6567870  21.9897213   9.4750433   0.7884086  22.8333759
   8.2538967   1.1972640  22.0380001  65.4180450  58.5015564   8.4668274
  65.2306747  58.7684479   9.3667688  66.1609116  59.0456429   8.2053843
  57.5824585   7.3413768  69.3723221  57.3435173   7.9960537  68.7161713
  58.2854271   7.7521806  69.8756180  83.9177780  33.9177094  68.4299774
  84.0746841  33.9601364  69.3732758  83.8852081  32.9812546  68.2344666
  11.2727528  32.6241531   7.5682631  11.4335489  31.6918373   7.7137485
  10.6592770  32.8721771   8.2599001  80.8487549   4.4373364  12.3137779
  80.0111389   4.7656336  12.6406488  81.3504791   5.2256670  12.1063137
   3.1831276  17.1672783  60.8341522   2.9708397  17.3479137  59.9184380
   2.8963926  17.9495983  61.3053093  56.5831184   0.4530974  74.9738922
  57.2983589   0.0213355  74.5067291  55.8720131  -0.1876237  74.9680862
  51.3953934  68.1517334  43.2380295  51.6657181  68.6856537  43.9850807
  51.3621140  67.2588348  43.5813408  29.0346451  48.3998756  28.5347691
  29.1525707  47.5800629  29.0145893  28.0862446  48.5260391  28.5056095
  15.4540272  57.6297188  20.4870148  16.1042957  56.9277306  20.4626637
  15.9480171  58.4046097  20.7548866  35.5867882  43.8687592   7.0191031
  36.4493866  43.4978065   7.2049775  35.2432442  43.3305855   6.3059549
  77.3505325  62.4266090  70.1822052  77.9871216  62.7554016  69.5474777
  76.5088120  62.7608757  69.8723602   4.9128876  33.1795921  68.8284988
   4.1982813  32.5606384  68.6786041   5.1560287  33.0473671  69.7448120
   7.2927599  36.4311600  37.4526443   7.0136929  35.9120750  38.2069016
   7.4095469  35.7905769  36.7510414   9.2236681  31.1209087  17.1748142
   9.4648504  30.2833023  16.7792377   9.9989576  31.3835278  17.6709900
  62.3421478  68.1751785  53.0882111  63.2414894  68.4246597  53.3007431
  61.8137779  68.5699615  53.7818985   1.0270830  40.3130951  52.2602425
   0.5848401  39.6324158  51.7529640   1.9304026  40.0058937  52.3368835
  86.0774384  68.6953278  12.5890284  86.0476151  69.3381119  13.2976694
  86.4369659  67.9069443  12.9957523  70.5143585  53.1246071  65.2753525
  70.9558868  53.9711342  65.3437347  69.6906204  53.3195190  64.8284760
  16.5705013  53.4980240  43.3069153  16.3951225  54.0284195  42.5296402
  16.3246765  54.0606499  44.0412560   2.3821158  28.5999584  41.0823250
   1.5399754  28.4857216  40.6418915   2.1545846  28.7410355  42.0013237
  27.3506203   5.7065997  74.9145737  27.6412220   5.2352233  74.1338196
  26.6451855   6.2737503  74.6032410  68.3854752  22.5965080  24.0571156
  67.7645569  22.9745216  24.6798515  68.7895203  23.3532486  23.6324692
  31.8145027  57.3136406  86.7751312  32.7116356  57.6413536  86.7119675
  31.6202145  56.9773178  85.9002686  24.5486240  50.7877235  57.6936569
  25.0192299  51.4956360  58.1336861  24.1891289  50.2597313  58.4065514
  48.2732010  39.3982544  16.9827919  48.4931145  39.3340073  16.0534153
  49.0019531  39.8846092  17.3682938  72.4463043  70.7142944  18.0648403
  72.8746796  71.5598297  18.1982784  71.9198303  70.8346024  17.2745361
  57.3766861  60.5323753  58.3299179  58.0725708  60.5084953  57.6731033
  57.8340607  60.4486313  59.1665955  55.8056641  31.0062714  43.6878281
  54.8783264  31.0934658  43.4672050  55.8157654  30.4436741  44.4621773
  58.1208954  11.9449244  10.1341162  58.3101959  12.6190939  10.7867212
  58.6122742  11.1791430  10.4313688  15.6839695  55.1166306  41.0880089
  15.8875799  55.1195068  40.1527176  14.8068333  55.4958420  41.1433487
  73.1051559  53.9678726  30.5219097  72.5589600  54.3470383  31.2104874
  73.4657440  54.7239265  30.0586700  76.9999313  69.2526016  50.3288956
  76.4693527  68.5669022  49.9232597  76.8323746  69.1616898  51.2669220
  73.5527267  25.0822144  88.1151581  73.0041885  25.8665771  88.1257019
  72.9307709  24.3554287  88.0806580   1.3527318  34.7325363  69.4253616
   2.1711428  35.0498238  69.0435638   0.6673448  35.1519241  68.9051743
  58.4088631  70.5278091  46.5782127  58.2239380  70.7934799  45.6774063
  57.8880424  71.1245880  47.1156425   3.8330963  32.7253265  63.8647346
   4.4267278  33.2663078  64.3854752   3.5721018  32.0190468  64.4557343
   5.3440866   9.6727266  31.0043640   5.7035542   8.8284416  30.7319698
   5.7472305  10.3071260  30.4117050  38.8033066  50.7191849   5.5179682
  38.9125900  51.4985352   6.0628595  39.5997658  50.6837044   4.9882321
  59.4084702  15.0201511  58.1785240  59.6268768  14.9349890  59.1065750
  60.1195297  14.5696545  57.7228088  30.4135475  71.2311630   3.3318748
  30.6369190  70.9736176   4.2263055  29.5503616  71.6377563   3.4081995
  43.8071747  32.6360893  14.4508686  44.0108452  31.7254868  14.2374420
  43.3608665  32.5898628  15.2963877  58.7221680  33.1164665  47.3705597
  58.5341797  33.1040306  46.4320869  58.3262596  32.3116341  47.7048225
  33.9517593  54.3617172  42.3209038  34.4408607  53.6864777  41.8507309
  33.7766228  55.0333481  41.6617622  71.5579758  49.1963120  61.8622627
  70.9313660  49.9188805  61.8236618  71.2637787  48.5876961  61.1845703
   3.6338682  20.4522648  64.8312225   3.5872693  21.2303505  64.2756653
   3.6489463  19.7191887  64.2159195  26.6262894  36.6974220  81.6202011
  27.4348717  37.0712700  81.2699661  26.7335148  36.7423515  82.5703125
  12.9983616  55.9148674  81.2191010  13.5559101  55.1704826  80.9926834
  12.9355078  55.8853989  82.1737823  44.6848450  54.6013222  85.1914520
  44.9125938  55.4032707  84.7210846  45.5126686  54.1275520  85.2719345
  37.6098595  25.0625095  69.9884109  37.1536942  25.6535702  69.3894119
  38.4511337  24.8938808  69.5640793  81.5534821  23.5786591  41.4827271
  81.9378357  24.4348106  41.6711655  81.1238022  23.6904221  40.6347198
  23.6871052  33.3319359  75.7605591  24.0425282  34.2019424  75.9422150
  22.7378922  33.4467850  75.8056641   7.3770866  32.9635963   4.1486378
   7.3408093  32.1365891   4.6292367   7.5268655  33.6261559   4.8230357
  33.4982147  52.5067673   3.7586074  32.9956055  53.2308083   3.3852715
  32.8423004  51.8403549   3.9632959  18.1788445   9.4548931  74.4245682
  17.6933212   8.8955765  75.0309219  18.8205776   9.9040985  74.9746780
   9.7135801  45.5408821  44.1747742   9.8315039  46.3337212  43.6515808
  10.4680576  44.9943962  43.9548874  43.8163719   8.7051401  14.6452713
  44.7707481   8.6458826  14.6018610  43.5642967   8.0428391  15.2887383
  46.1469841  64.8739700  16.9700813  45.5339088  64.3716202  17.5067501
  46.2444420  65.7060471  17.4330921  59.4834785  41.0174637  76.1960220
  59.6263504  40.1036758  76.4426193  60.1696014  41.2025871  75.5547791
  84.8376694  70.7446594  64.4762955  85.2944031  71.1709213  63.7510796
  85.4256744  70.8493881  65.2242966  14.9071341  63.4566231  85.6983871
  14.4698238  64.1046371  85.1460648  14.2325449  62.8022118  85.8797989
  59.6075134  59.6464729  74.5957108  60.1833229  59.0893021  75.1193848
  59.9736290  59.6059418  73.7122269  80.1270142  52.8948746   9.0417719
  80.7297211  52.8696518   9.7849703  79.9833603  51.9752121   8.8185787
  59.5755310  57.7751541  53.1222801  58.9717979  57.2251472  52.6230469
  59.1727982  57.8486977  53.9875107  55.9611969  27.0178909  52.5555611
  55.8726082  26.6480980  53.4339905  55.5633926  26.3650036  51.9796066
  51.2439613  34.9013252  55.7208824  50.4598427  34.3524513  55.7094765
  50.9295731  35.7624283  55.9963608  44.9222794  65.8853378  41.2345810
  44.3237495  66.5925598  41.4750557  45.3592606  65.6524506  42.0537529
  62.1873932   8.7090130  26.1299686  61.8676071   8.7545080  27.0310249
  61.4223137   8.9166460  25.5935249  56.5373383  31.2965889  34.2778282
  56.0797844  30.4656029  34.1500206  56.1294212  31.8935623  33.6505661
  71.0700378  67.1095428  53.9503479  71.0287857  67.3080521  53.0148659
  72.0057526  67.0976410  54.1516342  55.5897179  29.8515167  53.1468315
  55.8551559  28.9655247  52.9002686  54.9153976  29.7226315  53.8138504
   8.4040022  64.3517227  74.2311401   7.7166338  64.8441315  74.6798019
   8.8789024  65.0106049  73.7246017   9.7909212  12.9741163  17.2872009
   9.7553520  12.7916718  18.2261791   9.3972330  13.8419056  17.1967392
   2.0244255  48.3108711  63.7759933   1.8599815  47.6167412  64.4142532
   1.2719392  48.8965073  63.8598213  73.8563232  19.3581638  31.9166164
  73.8441696  19.8093929  31.0725346  73.9676285  20.0576057  32.5605316
  50.1810837  63.4303322  83.4712677  50.9291573  63.5331116  82.8830032
  49.5856438  62.8461876  83.0017319  29.8364429  39.9124756  41.0921059
  29.1613865  40.5252037  41.3838120  30.1754246  40.2966919  40.2835884
   5.3985558  10.8754911   5.4892573   4.4545317  10.9751806   5.6121902
   5.5448885  11.0958662   4.5693374  10.1063452  28.0353222  63.2009468
   9.4568090  27.3782501  62.9507637  10.3122711  28.4913635  62.3849487
  44.4910316  62.2288361  43.3066521  44.8458252  61.3406868  43.2673721
  43.5856209  62.1384201  43.0095177  59.1367264  22.6655903  67.4904556
  59.4190292  22.0806065  66.7873688  58.3697968  23.1146660  67.1349564
  17.2001343  31.0270691  76.0832138  16.6495667  31.2143478  76.8434982
  16.9678955  31.7033806  75.4468994  63.9943810  32.8586693  80.3381119
  63.6827621  33.0966606  79.4649048  63.7055473  31.9538803  80.4571381
  57.4881592  30.5527363  57.8121719  57.6011581  31.3846321  57.3523750
  58.2333221  30.0211697  57.5321732  84.3307571  10.9307384  41.8553238
  84.6521912  11.8127995  41.6685562  83.4059219  10.9558516  41.6097908
  40.0035515   3.1475401  79.4683151  39.5716362   2.9516025  78.6368790
  39.9900780   4.1029105  79.5259171  59.9183121  68.7491531  20.9123268
  60.4744148  68.2748795  20.2942295  59.4959908  68.0633087  21.4295311
  84.9174652  45.3341408   7.2213678  84.9989090  46.2474632   7.4960408
  84.7939301  44.8488121   8.0371037  29.6720371  44.0019836  69.7065582
  28.8573933  44.4407768  69.4615021  30.3614159  44.5495453  69.3308334
  58.7415276  18.8064632  35.2919922  59.2825165  18.1500740  34.8530006
  58.5853920  18.4438667  36.1639862  46.5187798  33.8088646  45.6787987
  46.1776466  34.2132072  46.4765244  46.4539337  34.4958801  45.0154457
  33.4128876  44.9111824   2.5134170  33.7610703  44.1477890   2.0527380
  34.1251221  45.5502625   2.4903607  73.5806656  14.7232323  79.0792694
  72.6712418  14.4714260  78.9187546  73.6714096  15.5764484  78.6549835
  53.2618713  31.9815273  16.4927940  52.9048615  32.7702827  16.0845757
  52.8447418  31.2591152  16.0233707  14.1329746  43.1809845  25.4876366
  13.4479332  42.5892639  25.7987938  14.8770266  42.6086235  25.3004951
  53.9747925  47.3124657  49.9801483  54.2474251  46.4148521  50.1703987
  54.7902946  47.8135643  49.9706841  45.5854988  59.7395859  73.1103592
  45.9965973  60.5578766  72.8317413  44.6459236  59.9047508  73.0319519
   2.0271964  41.8435440  15.7473087   1.6767896  42.4214859  16.4251213
   1.8325758  42.2932281  14.9250326  27.5315495   7.2391100  15.2198887
  26.9801178   7.6877356  14.5788813  26.9806900   6.5325875  15.5569496
  40.6760521  67.5212173  68.0939255  40.9275932  66.8106384  68.6838760
  40.5610962  67.0971375  67.2435303  45.6589546  26.5006371  86.6686020
  45.0458374  26.2063923  85.9950027  45.1374550  26.5301743  87.4707260
   6.1089029   2.7423010  66.0498810   6.4464197   2.2838395  65.2803879
   6.8903546   3.0679407  66.4965668  16.6377811  64.9224930   1.7861626
  15.9247932  65.1084671   1.1751844  16.7232285  65.7222595   2.3051174
  60.2856827   8.1936064  47.1705246  60.9993820   8.8213282  47.2837791
  59.8808479   8.4387770  46.3385201  22.7331772  57.8935776  79.5234985
  23.4878960  58.2107697  80.0195007  22.3355465  58.6848984  79.1602707
  70.8450623   1.0252670  71.0233078  70.2364883   1.6930283  70.7071381
  71.4214401   1.4932775  71.6274490  61.7488976  48.6617622  82.6311493
  62.3265076  49.3971291  82.8356934  62.3209343  48.0160599  82.2163315
  72.4133377  15.5969362  21.5934601  73.2115631  15.9143496  22.0157356
  71.9509659  16.3916397  21.3272095  -0.2517865  32.9113770  36.1952591
  -0.0375838  32.6692390  35.2943039   0.3409265  32.3852692  36.7320366
  53.4489212  37.5170708   7.7058463  53.4417038  37.1978111   6.8034873
  54.3256340  37.8828087   7.8235011  14.6754856  67.2130661  31.6036758
  14.6525698  67.0878601  32.5523758  15.4791059  67.7088852  31.4468689
  21.5186653  29.9774284  67.5063019  22.2970257  29.5177975  67.8211517
  21.1514473  29.3974190  66.8392410  63.8151550  50.2349205  81.0611267
  64.1185989  49.7162247  80.3160706  64.3067245  49.8922768  81.8075790
   1.3976017  42.7193832  53.3956413   1.0671014  41.8733101  53.0937119
   2.3483996  42.6110802  53.4176788  11.4882936  31.1657543  48.7099113
  11.7241859  30.9474335  47.8082886  10.7400532  30.6015778  48.9050369
  68.8002090  66.7332764  24.6120949  68.0650024  67.3414078  24.6887531
  68.8986511  66.5940323  23.6702080   3.9383674  49.4625397  19.0373611
   3.4240460  50.2538261  19.1972618   3.3206782  48.8529205  18.6335564
  86.6582260  40.9317703  39.4225540  85.8895264  41.3451118  39.0295258
  86.5006714  39.9925499  39.3262711  53.5135765   8.5753994  62.7779083
  53.7486725   7.7298927  62.3957024  52.5900841   8.4837589  63.0124245
  66.0932922  67.6147690  45.5724182  65.3042984  67.8182449  46.0747261
  65.7667084  67.2331085  44.7576180  60.9056969  69.1274948  28.9335117
  60.4319077  69.2853699  28.1169147  60.2863121  69.3723984  29.6209812
  63.0531006  16.7574806  39.8260155  63.9498253  16.7596169  39.4911842
  63.0328522  16.0335217  40.4518814  54.5779343   5.1507649  63.6889420
  55.0245552   4.3811831  63.3360901  54.2947540   5.6388330  62.9157486
  16.5080738  42.0672722  74.8144836  16.5767517  41.2844429  75.3610077
  15.5665855  42.2026901  74.7072754  27.3028679  30.9027004  16.6178780
  27.5195122  30.5788116  17.4921741  26.5605373  30.3657322  16.3406754
  84.6719284   3.7918277  31.6271744  83.8837280   3.4977186  32.0837517
  84.6487579   4.7459970  31.6996746   7.8862844  26.0310402  13.0099497
   6.9316764  25.9710293  12.9731445   8.1734600  25.1458282  13.2339220
   2.7315707  34.4502487  74.2423096   2.8875775  35.3512573  74.5252991
   2.4202402  34.5328140  73.3409348   1.2527329   1.2846880  86.2273636
   1.7684157   1.6918346  85.5312805   0.9717200   0.4472228  85.8586960
  49.6958237  35.1643181  59.2179337  50.5987930  34.8600426  59.3090134
  49.6331673  35.4599800  58.3097000  13.1176147  46.9962425  32.9649315
  13.6386328  47.0307579  33.7671661  13.0610456  47.9072609  32.6767006
  63.7666626   0.0741276  13.3209209  63.1752510  -0.6124097  13.0124874
  63.2504387   0.8782032  13.2642908  11.0620413  42.0712204  24.9454498
  10.6879139  41.4628944  25.5827885  10.9399738  42.9352837  25.3388042
   5.0791450  59.3289757  34.0265808   5.0857406  58.3717995  34.0252609
   5.9596891  59.5741692  34.3107529  36.3237686   0.4906621  18.1381969
  35.7587891   0.8659337  17.4627705  35.9655151  -0.3836226  18.2915401
  73.6763229  64.8789520  62.9766769  74.0025177  64.7948761  63.8726463
  74.1905289  64.2469482  62.4742851  24.0169125   5.6601033  60.4373398
  23.9794655   6.4354382  59.8772621  24.5674152   5.9236531  61.1747131
   3.2479990  69.7511673  31.7533703   3.3200867  70.6204453  31.3591785
   4.0914187  69.6129379  32.1843796  86.5414352  29.2142754   9.2658911
  85.6713638  29.3071003   8.8778305  86.7165070  30.0652370   9.6676941
  64.5740051  27.6149673  23.1740208  64.4515305  28.4694881  23.5875740
  65.5125198  27.5695782  22.9913826  49.9254913  44.7849617  24.4040852
  49.3297653  44.5408020  25.1124115  50.4795914  45.4679604  24.7818661
  22.6488667   4.2795472   7.9727635  22.0041084   4.8666687   8.3674879
  23.1582108   3.9504881   8.7133856  73.7238693  64.3421173  19.0794926
  74.3935776  65.0070343  19.2395134  74.2171097  63.5603485  18.8309193
  77.0578156  64.8153915  56.9496422  77.0460281  65.5892105  56.3863487
  76.1543884  64.4991989  56.9411888  54.7912178  19.5164490  14.5978737
  54.1285019  20.1062412  14.2384539  54.2996902  18.7417679  14.8708229
  81.8205490   5.4930096  30.0758781  81.7940140   4.7921848  29.4244385
  82.4655914   5.1981883  30.7187042   9.0530300  24.7125206   2.7683325
   9.7876072  24.1056919   2.6767533   9.2934217  25.2695904   3.5086818
  64.2700195  20.1869984  16.3448124  65.0711594  19.7118702  16.1242104
  63.5703812  19.5444107  16.2272549  58.4602814  60.4995422  48.4370003
  58.2232208  59.8105812  47.8162193  58.6926155  60.0303459  49.2383156
  50.6935196  52.1877441  70.3104019  51.6372032  52.2972870  70.4274139
  50.3896294  53.0416298  70.0025711  37.4967041  10.1268549  16.5431919
  37.1233215  10.6919584  17.2195606  37.0781479  10.4153490  15.7321358
  71.9503708  31.1386509   7.0293403  72.5918884  31.8482704   7.0629377
  72.4654846  30.3434486   7.1654987  34.0335083  65.1619492  53.5454559
  33.7292824  64.2703781  53.7150841  33.3663864  65.7221909  53.9420815
  82.1692963  27.4232998  10.3334007  81.8987274  26.7040615  10.9041166
  82.4213181  26.9971848   9.5141668  15.1662445  50.3760910  10.2062826
  15.2029371  50.8346519   9.3668728  15.0885992  49.4515305   9.9709330
   8.4479876   0.9260310   5.6179276   9.1255484   1.3810835   6.1179972
   7.7102900   0.8549169   6.2237144   4.1674843  70.2753983  83.0717468
   4.3786364  70.9195709  82.3959579   4.5993919  69.4723663  82.7804871
  42.2036362  52.1415329  33.3565712  42.6557083  52.5965004  34.0671082
  42.3749123  51.2138824  33.5189285  43.7382889  45.2820091  65.5825806
  42.9184914  45.7705956  65.5088196  43.4662781  44.3870392  65.7857361
  69.7413177  62.5088234  63.0778427  70.1157455  63.3881111  63.1316376
  70.4446030  61.9305458  63.3731651   8.6742773  42.7054176  47.8015823
   9.1689253  41.9878883  48.1974411   9.2096109  42.9840889  47.0586166
  64.6244278  21.8126068  14.1395931  63.7278252  21.8078480  13.8044548
  64.5331573  21.6103249  15.0707130  51.1968117  55.3125725  82.6721878
  52.0220222  55.7478638  82.4582138  50.5259018  55.8521843  82.2539444
  61.5917397  12.5247965  69.4397202  61.0346565  12.4744339  70.2164841
  61.0235138  12.8883572  68.7606201  71.2895050  20.5761719  53.8241806
  71.3955536  20.5524960  54.7751961  71.9626389  19.9815197  53.4932480
  13.6132421  62.1296654  25.4332561  13.2570658  61.9549179  26.3043652
  12.8590641  62.0606499  24.8478622  49.3667374  37.6788445  37.1829834
  48.5394745  37.4035683  36.7878990  49.9398003  36.9173317  37.0939217
  70.5015411  51.2556496  14.8857384  70.4986954  51.9924202  14.2746811
  69.5764999  51.0966110  15.0734720   0.0630596  37.1685715  68.8225174
   0.2720316  37.3781929  69.7328033   0.2453902  37.9765358  68.3427429
  59.0744629   2.7108142   4.8984942  58.6424599   2.0051661   5.3798108
  58.4532166   2.9459405   4.2092919  51.4000931  20.7647915  60.3571281
  50.8331642  20.8596764  61.1225166  51.9585190  20.0154266  60.5641212
   1.1262418  26.5252819  72.2029877   2.0806797  26.5641251  72.2643967
   0.8703070  27.3954220  71.8970718   8.8080540  43.7135353  63.2907181
   9.4504642  43.4844475  62.6191101   8.6872253  44.6581688  63.1942787
  21.6195545  61.1814575  10.1677799  22.2831593  61.7356758  10.5785103
  20.8466053  61.7421989  10.1018000  69.6054306  58.8961334  18.1198616
  69.3161163  58.7849693  17.2142296  70.3535233  59.4903755  18.0610828
  84.4113007  39.8519402  41.5219116  83.9529037  39.3102074  42.1642761
  85.0002518  39.2450676  41.0734978  63.0417595  28.8025169  72.3427505
  63.5922737  28.4560432  73.0449753  63.4526176  29.6334820  72.1041641
  74.2741089   8.7618046  36.4408798  75.1601639   9.0952177  36.2995720
  74.3567657   7.8131804  36.3433571  52.2949219  48.3865814   2.7691300
  52.4421997  48.1579018   1.8513902  51.4463501  48.8294716   2.7724035
  17.4521790  61.9982033  76.9863968  18.1208000  62.2663460  77.6166916
  16.6350880  62.0089188  77.4848709  79.5200806  60.8328018  25.8895931
  79.0833130  61.4990273  25.3589287  79.3565674  60.0117836  25.4254513
  27.4636192  26.9999161   6.2068834  28.1092072  26.8984623   6.9062791
  27.8181858  27.6951370   5.6526442  54.3338013  50.0899239  25.5949287
  54.1960487  49.1434555  25.6330242  54.3500633  50.2921333  24.6594715
  21.0146885  68.4469986  17.2209835  20.1108723  68.3518219  17.5214672
  21.1340675  67.7356186  16.5917625  21.7555313  59.6572266  41.4795341
  22.5074215  59.5243301  40.9022713  21.0010319  59.6714363  40.8906708
  77.4990005   8.9097328  66.3028641  78.3303375   9.2901287  66.5864182
  77.5321274   8.0043602  66.6117935  76.2519150  36.1777573  16.9194279
  76.2290726  35.5420380  16.2041874  76.2738190  37.0291519  16.4825306
   0.9409471  59.6872482  44.0413513   1.0448898  59.0322075  44.7315331
   1.3138200  60.4870758  44.4121246  68.1403351  26.8485508  58.3484268
  67.7919235  27.7221451  58.5263939  67.3819046  26.2690105  58.4202080
  63.1997566  36.8988457  13.6063910  63.0919533  37.8229942  13.3815451
  63.0115891  36.8569336  14.5439777  78.0775375  58.9226341  84.6971741
  77.7161636  58.1278496  84.3047943  78.4032288  58.6409531  85.5520477
  42.7610741  47.2753029  27.3285465  43.4430504  46.8630180  27.8587933
  43.1716652  48.0688362  26.9851017  81.6494751  35.9744530  15.8867836
  81.4822617  35.4639854  15.0945110  81.0919952  35.5723076  16.5529156
  29.6000614  11.6903219   2.7152758  30.5175056  11.8377008   2.9450738
  29.6343460  11.1285725   1.9410061  24.0850983   7.2560959  19.7043228
  24.1532326   7.9687262  19.0689106  24.6488762   6.5670347  19.3527832
  34.8292160  40.4804077  16.6211185  34.2714462  41.1774292  16.2757397
  34.7027130  40.5199928  17.5690975  36.0539246  49.2449074  48.8175468
  36.8564072  48.7289543  48.7397652  35.6095734  49.1246490  47.9783096
  76.3815231  42.5753746  23.3547306  76.4792328  43.4289169  23.7768078
  76.5167389  42.7517052  22.4236794  41.2603073  42.2084122  46.2623024
  40.5988655  42.6586304  46.7876892  41.7829895  41.7225952  46.9002800
  85.1185760  47.7240372  30.6843681  84.4510803  48.3851051  30.5008640
  85.0433731  47.1007309  29.9618263  69.1048660   5.6207147   3.1270134
  68.2369461   6.0126491   3.0304368  68.9802856   4.7016063   2.8904717
  71.1933670  53.1086426  78.6475983  70.7825851  52.2761955  78.4140930
  72.0316925  53.0999374  78.1856842  58.0089569   5.3056178  31.2373753
  58.0425301   4.5071058  30.7106094  58.0899506   5.0001016  32.1408844
  20.4396439  13.8871365  15.5115137  20.3453636  12.9497709  15.6808910
  19.6639118  14.1173410  15.0001650  57.1479301  69.8466034  59.5293808
  56.3815193  69.9439087  60.0945206  57.7885094  69.3863754  60.0716705
   2.6469510  36.2085915  18.9229317   2.5874939  36.1151657  17.9721584
   3.3601646  35.6229286  19.1770096  74.0382690  67.6541901  22.2679996
  73.6303864  67.8576584  23.1096992  73.5489960  68.1763992  21.6322803
  23.7016220  49.8741837  70.7998276  24.4543610  49.2978783  70.6675873
  22.9446983  49.2887421  70.7763062  33.4463615  34.4441452  16.8437157
  32.8904839  34.5488052  16.0715275  34.2912788  34.8099785  16.5819626
  31.7454948  47.5255432  54.8949776  32.3463058  46.8449707  54.5915337
  30.8812771  47.2246590  54.6142159  68.0447998  30.9270325  46.1463814
  68.2003250  30.5254726  47.0012474  68.8976517  30.9043083  45.7123718
  50.7643890  47.6119308  11.0311003  51.5780296  48.0946999  11.1765614
  50.7662239  46.9311981  11.7040291  40.7645493  19.1163692   8.2302113
  41.2184792  18.2892208   8.3914747  39.8375130  18.8795090   8.2031193
  40.0478058  28.4083080  10.3795471  40.4190979  28.5170097   9.5040150
  39.4529648  27.6629791  10.2966051  30.8161545  66.8573227  28.9011726
  29.9271908  67.1904831  29.0235462  31.2672672  67.0730743  29.7173691
  40.4297371  26.6806736   2.6853161  40.7168579  25.8043976   2.9420969
  41.2348213  27.1976185   2.6563783  28.7982273  69.8829727  62.1436424
  29.6214695  69.6103821  61.7384262  29.0644112  70.3548508  62.9327621
  82.7830658   3.7483158   5.6933489  82.0622330   3.4379570   5.1453433
  83.5407333   3.7599061   5.1085162   4.2545424  38.7036667  81.1895065
   4.1668968  37.8770561  80.7148819   3.6795077  38.6061859  81.9485016
  48.9186401  58.1107674  45.3616905  48.0442009  58.0672760  44.9747849
  48.9377365  57.3906631  45.9920197  51.8755035   2.9808233  20.6371708
  51.4217911   2.1974394  20.9481163  51.2846756   3.3566153  19.9845333
  19.9049740  55.8344803  82.3638153  20.4818649  55.8623199  83.1271286
  19.0878620  56.2305870  82.6665649  44.6686516  47.9016647  12.4964876
  45.0538788  48.5150032  13.1223068  45.3551064  47.7623825  11.8441000
  86.1743088  65.7409592  69.3180923  86.1590271  65.8828354  70.2645950
  85.3646927  66.1424942  69.0026169   6.1658397  60.5372429  66.4722672
   6.3552170  60.5894928  67.4090958   6.9573045  60.1595840  66.0886154
  16.9704666  50.5639458  86.1915054  16.7599182  50.9130363  87.0575562
  17.2669258  49.6694374  86.3594208  61.8693657  50.4440193   3.6182542
  62.7775688  50.1658745   3.4997845  61.8289795  50.7505569   4.5241437
  16.2642403  10.0891123   7.8651094  15.7500172  10.3884430   7.1153049
  16.2368679   9.1339893   7.8083458  31.5086727  41.5599937  65.7134171
  30.9499855  42.3219070  65.8669968  31.2203541  41.2182884  64.8670425
  69.0835800  56.9842262  34.8137054  69.1611786  56.2114487  35.3731918
  69.6173401  56.7787857  34.0461540  36.9604645  25.0152340   5.0482411
  37.4994926  25.7650890   4.7964492  36.8084602  24.5437393   4.2292056
  29.7272396  42.4233170  61.2985268  29.3330231  43.2111626  61.6728516
  29.2647762  42.2943611  60.4704399  62.0227203   0.1674676   6.2996645
  61.2910652   0.1163341   5.6846037  62.5336876   0.9201582   6.0020056
  28.2814579  62.9863396  70.9607849  27.6779518  63.1090050  70.2280045
  29.1459141  62.9345703  70.5530243  16.5626221  56.4995842  81.3343430
  16.3963604  56.0500145  82.1628799  16.2536755  55.8894806  80.6645966
  49.1570358   5.9077935  54.6469917  49.3082123   5.6138320  55.5453033
  48.2583389   6.2372775  54.6508408  57.9740448  67.3947296  37.1624985
  57.0328407  67.5653992  37.1977272  58.0456886  66.5299530  36.7584343
  18.8329220  45.5669861  78.6842804  18.7871342  46.2250824  77.9906998
  19.3717365  44.8671837  78.3152466  85.1246033  22.3078613   9.4270153
  85.6385956  21.6297226   8.9886456  85.7757111  22.9310474   9.7493925
  25.6920834  71.5837402  70.0322647  25.8524818  72.1165695  69.2534256
  26.4329491  70.9785385  70.0651703   5.5843172  40.6625214  57.3277588
   5.4184551  40.6803970  58.2703094   6.5048251  40.4114304  57.2512703
   7.1186752  60.5406075  68.9839478   6.9572015  61.1615257  69.6943130
   7.3271770  59.7183228  69.4273529  42.4274368  60.8779068  85.2945938
  41.9115677  61.6351433  85.5715485  42.6331902  60.4177170  86.1082993
  17.9349937  30.2240868  86.7370758  18.5618801  30.6931286  86.1864014
  17.7940025  29.3924713  86.2845612  41.9313545  30.4368687  18.6913967
  41.6862450  29.5629559  18.9954185  42.2018471  30.8992977  19.4846344
  12.7337751  35.2573242  64.4040909  12.8828259  34.8323784  63.5594368
  13.3656855  34.8461533  64.9938889   0.3488579  40.2421417  21.4436264
   0.0936948  39.4125443  21.0400276   0.7432424  39.9908676  22.2788239
  54.5621681   2.0801747  12.5015984  54.7192192   1.2012451  12.8466349
  54.0680046   2.5234315  13.1912041  71.5723343   5.5750051  39.4539223
  71.4869461   6.5283222  39.4652023  72.3663712   5.3996620  39.9588890
  18.2040176  36.0911217  64.2645416  18.6541290  35.4637642  64.8302765
  17.4873028  35.5906601  63.8745575  81.6133347  51.8495598  25.6232853
  80.7363358  51.9958344  25.2687359  82.1470337  51.6305847  24.8594437
  69.5715256  47.1322784  51.6392708  69.4919205  47.8752098  51.0409851
  69.5674133  46.3637466  51.0686760  73.8730011  37.8562202  47.5753021
  72.9486771  37.8075523  47.8192101  74.2771759  37.1100502  48.0181427
   1.6940851  68.8707809  49.3269997   0.9640598  68.5189972  48.8175430
   2.4622567  68.7298508  48.7735710  66.6142120   9.6716089  14.0574675
  66.2569885  10.5380268  14.2522593  67.4162445   9.6207743  14.5774584
  67.1757660   3.4540062  65.4964218  67.2715225   4.3323398  65.8646469
  67.8202820   3.4190488  64.7895889  71.4529190  33.4119606  56.5509682
  72.3728561  33.6558838  56.6532021  71.3164749  33.3835678  55.6039696
  40.2358246  49.2414627   8.9058189  40.6395645  49.6374969   9.6780758
  39.3241196  49.5313797   8.9369144  21.9004402  49.6984863  65.4322968
  21.0118999  49.8502998  65.1103058  21.8251019  49.7662086  66.3841248
  84.3187790  40.2996140  37.0862617  85.0643234  40.4084930  36.4958916
  84.2608795  39.3546181  37.2271919  60.1575165  26.6664410  28.2480412
  59.3913040  26.5572205  27.6848183  60.8383522  27.0006275  27.6640739
  -0.2085879  49.8954582   7.4438438   0.7298108  49.9786263   7.6133223
  -0.2678826  49.7225685   6.5042562  44.4360123  20.5868969   4.6348047
  44.6421585  21.3111229   4.0438461  43.7671089  20.0827236   4.1715455
   4.0558090  60.9005547  20.6428776   3.6959970  60.0536232  20.3793030
   4.8105984  60.6806488  21.1889248  35.8176117  60.0164948  24.1920490
  35.3331451  60.2258224  24.9906158  36.2497482  59.1845245  24.3852062
  64.3390350  10.7891541  79.3859177  65.1183319  10.5856714  79.9031448
  63.6563034  10.9541006  80.0362244  84.5695953  65.7229996  55.7360878
  84.6231537  66.3124237  56.4883766  83.7856216  65.1982880  55.8982658
  62.8116074   1.9096861  81.2172546  62.1712685   2.6194320  81.2668381
  63.6186523   2.3350401  80.9274521  27.1078720  47.2656670  62.5911980
  27.8474159  46.6976471  62.8072128  27.0689869  47.8931503  63.3129921
  21.0264893   4.0716987  68.5198288  20.8564358   3.3328924  67.9354630
  20.6392288   3.8103526  69.3552704  82.7801971  41.5710411  55.1458244
  82.0751190  42.0233345  55.6090050  82.8065414  41.9874420  54.2843437
  59.5992470  39.3676109  13.0095825  60.1017609  40.1607208  13.1958227
  60.2182121  38.7917862  12.5606508  39.0545731  49.0869102  57.0450630
  39.7536201  49.7407837  57.0487289  39.4869347  48.2726135  57.3023834
   9.8318176  53.4216843   6.7433724   9.7437840  52.4759712   6.8621664
  10.7587900  53.5980148   6.9041858  47.0859909  19.5910625  30.6173210
  47.6720963  19.4520206  29.8734264  46.5503731  18.7984924  30.6516438
  30.3959332  52.3727684  53.5273170  30.9372692  51.6960449  53.9338036
  29.9524555  52.7977600  54.2614403  21.6831913  57.5693855  36.9337959
  22.2201004  57.7792549  37.6979408  22.1172829  56.8146706  36.5360489
  33.2273026  47.1390305  18.1158028  32.3864326  46.6963997  18.0006886
  33.6837273  46.6180725  18.7764912  31.8499126  68.9212112  49.8072166
  31.3760929  68.1122665  49.6139908  32.7440681  68.7517471  49.5105743
   1.1398857  41.5242996  27.4529381   1.5069550  41.9512787  26.6788712
   0.1922050  41.5789948  27.3298855  66.6518631  57.9495430  50.1492691
  66.2783813  57.8270493  51.0220451  66.2432632  58.7518539  49.8243484
  58.9318886  34.9404793  21.2546921  59.3026962  35.2674179  20.4350300
  58.8158417  35.7227745  21.7939301  16.4211941  11.5369148  23.2518291
  17.2789040  11.8771610  22.9972763  16.5744095  11.1059475  24.0926762
  53.0368195  46.5025978  39.0794373  53.8229866  46.9091873  38.7149353
  52.3232155  46.8250275  38.5289459  56.3696556  71.1257782   2.0514612
  56.3341637  70.4052887   1.4222890  56.7680855  71.8482056   1.5660861
  67.0406418  28.7223740  75.0971527  67.2181549  28.8528938  76.0286484
  66.1006851  28.5465374  75.0548019  46.2736740  70.3341522  51.7387466
  46.1694107  70.9512711  52.4629898  47.2209473  70.2523880  51.6282349
  77.9303436  41.9924698  25.8142376  78.6057358  41.4165268  25.4559574
  77.4359360  42.2866478  25.0492210  12.7522240  30.1283627   8.5154915
  12.1147346  29.5417576   8.9225950  13.4199514  29.5441818   8.1561823
  64.7175751  45.2196541  19.4067039  65.3289948  45.0695534  18.6856842
  65.0611343  45.9923782  19.8551407  30.9045525  53.7735519  83.6577988
  31.3916111  52.9747314  83.8600159  30.4251671  53.5652657  82.8559036
  37.2370491  54.1213608  34.9257889  37.3580704  54.3832779  35.8384705
  37.6413078  53.2555504  34.8694534  21.9921894  56.3948936  21.9966717
  21.9576607  57.2129364  22.4925003  22.7409821  56.5018005  21.4100609
  47.1981506  49.4965553  27.7355461  47.5053978  49.5227966  28.6417160
  46.3672371  49.9715157  27.7505264   3.9859962  70.9197540   1.9877485
   3.6081421  70.8756714   1.1093893   4.2276926  71.8392792   2.0986376
  28.8507328  55.0296860  27.9653015  29.3209572  55.2730446  28.7627335
  27.9262657  55.1298828  28.1923599   8.8714848  27.5454369  80.3366241
   9.6028805  27.5895672  80.9525375   8.9926977  26.7128925  79.8801117
   7.0261745  12.2630749  80.3645630   7.1504912  12.5421181  81.2717056
   7.9137254  12.1782560  80.0162964  73.1764984  16.3970585  42.6708908
  72.5579987  15.7811041  42.2780952  73.4947510  15.9496822  43.4549866
   0.9030564  60.2865410  39.0933151   1.2016658  61.0442543  39.5962448
   0.4483157  60.6632195  38.3399544  77.0827103  60.7445107  60.2602577
  76.6798782  61.1220856  59.4783401  77.8639832  61.2773705  60.4082718
  76.0820847  58.7450027  29.0220528  75.8854370  59.3829803  28.3360920
  76.8240051  58.2463531  28.6798058  24.7645817  62.0460052  47.0506020
  24.4420662  62.4011459  46.2222977  23.9731102  61.8595390  47.5556107
   5.9677377  65.8656693  27.5028343   5.4142838  66.0112152  26.7355442
   5.5343885  66.3494415  28.2059727  80.0708923  50.2160339  43.0257759
  80.3965302  49.9802971  43.8944664  80.0458832  51.1728935  43.0308990
  24.7963047  19.0275536  85.4502029  25.4199791  19.1351624  86.1683197
  24.2497215  18.2882309  85.7164383  51.9873734  70.6458359   6.1071744
  52.9014244  70.6666946   5.8237886  51.7758369  71.5590057   6.3011031
  59.5368347  33.2493172  83.6867447  58.9110146  33.3431320  84.4049225
  60.3557053  33.6020088  84.0350113   5.1616673  68.2609482  86.0604858
   4.5324264  67.9082642  86.6896973   4.7762971  69.0893555  85.7750778
  28.7747860  66.7335281  77.4818802  28.8438320  66.7038116  78.4361191
  27.8359871  66.6666489  77.3074722  13.3714085  47.1215477  59.4861641
  12.8844500  47.3469505  60.2788162  12.9459534  47.6253128  58.7923050
  47.7524834  52.7894325  15.5178003  48.1378326  52.4965172  14.6920033
  48.1615906  52.2356339  16.1827621  78.2282410   0.5347054  32.4112930
  77.4392853   1.0720363  32.4823532  78.7139587   0.7147636  33.2162094
   9.6712475  25.4264812  85.9861984  10.4822121  25.8731403  85.7431717
   9.4455147  25.7891312  86.8427963   5.8426642  41.0606079  70.5968475
   6.1319418  41.5360718  69.8180771   4.8936763  40.9884224  70.4946518
   2.8609369  39.5093040  88.0137863   3.0603545  40.3057022  87.5216370
   1.9214476  39.3777924  87.8861313  82.0238113  26.3299866   7.5046287
  82.0092010  25.4097824   7.7677722  81.3431091  26.3984985   6.8351645
  71.5305557  13.4017706  63.0163956  71.7190018  14.1160889  62.4077339
  72.1825027  12.7322512  62.8091621  57.7441025  21.1382675  57.7177887
  56.9676819  20.7775955  58.1459389  58.4296722  21.0888958  58.3839645
  46.3847809   4.7431207  69.9571838  46.2668381   5.6918073  69.9090652
  47.3274727   4.6245489  70.0733795  15.7582817  10.0547714  61.8963051
  14.8153439  10.2150927  61.9336777  15.8636723   9.1656885  62.2349167
  39.4741898  16.6428242  15.1965294  39.9439850  16.7378807  16.0250740
  39.7923737  15.8159246  14.8342791  28.2241249   9.5119867  31.8899136
  28.6738644   8.6694965  31.8252831  28.7691860  10.0296116  32.4825401
  72.6319962  69.7070465   5.8921390  73.0657425  69.6981735   6.7453780
  73.2521057  70.1498642   5.3128185   4.0208549  36.9400444  72.8481140
   3.3227921  37.2376900  72.2647171   3.6704347  37.0740051  73.7287292
  41.7813110   0.3259732  14.8571348  41.2041359  -0.2816278  15.3196497
  42.1210823   0.9018971  15.5420418  56.9889870   3.5865133   3.1252205
  57.6017532   4.3215718   3.1043656  56.1645927   3.9703376   3.4240274
  85.5154800  20.6543865  52.1430931  85.2520523  19.8094902  51.7784195
  85.4883270  21.2555027  51.3986778  82.5403900  34.9593544  87.1774521
  83.2027359  34.2836952  87.0324783  82.8335114  35.6999283  86.6465454
  46.3567657  52.1508942  85.3883896  46.0035553  51.7830925  84.5783310
  47.2676430  51.8573494  85.4075165  77.9023895  70.1717682  30.5318890
  78.0130615  70.8298721  31.2180977  77.0243759  70.3318253  30.1858997
  71.1572342   4.6832752  76.9035492  70.7551498   4.4736748  77.7465439
  70.4376831   5.0264206  76.3737106  18.8257389  51.9333611  71.3012619
  19.0171013  52.6462898  70.6918869  19.6858711  51.6187134  71.5794754
  85.7880096  46.8732872  36.9357033  85.0017776  47.4192429  36.9351768
  85.4603729  45.9814186  36.8196983  81.8730927  33.7355728  75.7574539
  82.2839661  33.6872330  76.6206360  80.9344788  33.7754402  75.9408646
  50.5876083  35.5115356  30.5327568  49.7608528  35.5227432  31.0150261
  50.3312874  35.6091995  29.6156998  19.0743084  50.9875717   7.3297272
  19.4826241  51.7119827   6.8556604  19.8061867  50.4266891   7.5866251
   8.7281771  52.0397491  77.2460098   7.9096813  52.5100822  77.0876312
   8.5487556  51.1439171  76.9604797  43.7716904  60.3731384  20.5372066
  43.4894066  59.4589806  20.5664806  44.6862755  60.3325615  20.2577019
  75.1757126  25.4277153   6.7172289  76.0080795  25.8246574   6.4606538
  75.3577652  24.4885044   6.7483516  19.5985985  63.2159309  53.7107124
  18.8932781  62.5704536  53.7566986  20.2146587  62.8526115  53.0745506
  62.4271927  38.8741035  28.0598488  61.6042099  39.2560806  28.3648472
  63.1055336  39.3655319  28.5230827  78.1232910  46.6159058  12.9324417
  77.6223297  45.9778519  12.4243498  78.6375504  46.0862617  13.5417395
   8.9938898  57.1726189  16.8067627   9.9412680  57.2462044  16.6914806
   8.6268787  57.4887161  15.9811602  82.6696167  68.2670822   0.2391136
  82.6916428  67.3793411  -0.1181765  82.0851059  68.2067261   0.9947153
  31.4975166  71.2539139  59.8893700  32.0704079  72.0163727  59.9711266
  31.4321518  71.1034622  58.9463272  42.9217453   1.6937060  83.3215485
  43.4585190   1.6855142  82.5290604  42.0254745   1.7997751  83.0026779
  20.6538544  32.1817932  70.0948868  21.0350666  32.3322182  69.2298508
  21.3337269  32.4610481  70.7080917  60.9123650  13.5637960  56.5068283
  61.4375153  14.3168974  56.2361145  61.5245171  13.0043449  56.9848595
  47.3815880  16.3336411  41.5990868  46.9569664  15.5052090  41.8218613
  47.5913696  16.2526569  40.6686745   2.3700848  34.6983871  65.9234848
   2.9759800  33.9573975  65.9160538   2.7558329  35.3169861  66.5437775
  82.7091980  35.8136978  74.2958603  82.2460938  35.0752373  74.6913834
  83.4987640  35.4265213  73.9178162  32.3866272  67.9330826  17.4103756
  31.9639587  68.4521713  18.0945778  31.6631451  67.6109314  16.8727722
  61.3306923  17.2603321  85.9719009  60.7932777  17.7802734  85.3743439
  60.8565788  16.4337769  86.0627594  53.9005318  56.8603706  10.4016962
  52.9741020  56.9038162  10.6384916  53.9297981  57.1599579   9.4930582
  18.1647930   0.3626111  17.9689007  17.3206062   0.2530674  18.4066010
  18.6011333   1.0582374  18.4607792  30.1225300  62.9968300  42.2322273
  29.6600380  62.3698807  42.7883492  30.9052505  63.2285271  42.7321243
  55.3283081   9.5671406   4.3041463  56.0277901   9.1023893   4.7634540
  54.6343689   8.9156981   4.2026420  46.8839645  55.5941200  63.6524620
  46.4482460  54.9135895  64.1655579  47.8128242  55.4930687  63.8604050
   9.4542065  52.9070473  35.2173767   8.5751657  52.9582062  34.8420067
   9.4147606  53.4621696  35.9961700  81.2265778  32.3849106  58.7522430
  80.9988632  32.1015739  59.6377335  80.8120651  33.2428932  58.6612740
  77.7186890  28.8594723  48.8252945  76.8530426  28.8223858  48.4184570
  77.5467148  29.1158638  49.7313423  22.1318188  50.3266373  68.2347794
  22.1148529  51.2339821  68.5391998  21.6142693  49.8472328  68.8817291
  75.9290848  69.0734558  11.3573999  76.2002945  68.9325256  10.4503069
  76.1297379  68.2479324  11.7983913  64.6908264  37.1366463  56.1814995
  64.0291748  37.8278198  56.1546097  64.9745407  37.1120949  57.0953598
  35.8250427  61.5984802  38.0089989  36.4436150  62.1568947  37.5380669
  36.3767128  61.0296974  38.5460091  79.2052994  14.6984167  47.7472610
  78.5424957  14.2264128  48.2513733  79.7393799  15.1396370  48.4078026
   2.8593543  29.8814278  52.4562263   2.9757419  29.2284660  51.7660637
   2.0596585  30.3476009  52.2125053  76.9015121  49.8212585  84.0836182
  76.2784500  49.1501274  84.3622055  76.6022034  50.6205864  84.5168915
   6.4748406  43.3644905  57.0043945   6.2936630  43.7901459  57.8423843
   6.3196130  42.4345245  57.1696243  17.0246162  29.4132404  83.1561890
  16.7261105  29.4699001  82.2484894  16.8409481  30.2780170  83.5231476
  13.3516207  41.8167801  55.5109406  13.6316757  41.1786995  54.8546944
  13.0989370  41.2873077  56.2672729  30.9936619  44.2133560   9.2811632
  31.2432957  44.9169579   9.8802118  31.8110600  43.9652138   8.8492832
  25.2326088  58.2520676  88.1498642  24.6720505  58.7925758  88.7065125
  25.5996647  57.5971069  88.7436066  73.2893143  37.1316032  54.8384361
  74.0156403  37.7445908  54.9521446  73.2743759  36.9496002  53.8988190
  14.8975344  55.0994301  86.2147217  15.4555531  54.3616524  86.4607544
  14.0060244  54.7564392  86.2763824  76.9575806  19.2398434  28.2841282
  76.4149399  19.8439007  28.7909718  77.5576401  19.8063278  27.7991047
  70.4542160   1.0571949   3.7072172  69.8473358   0.3484849   3.9208813
  70.1977997   1.7748710   4.2863722  23.4594994  23.4225712   7.1389971
  23.1820984  23.8038387   6.3059812  24.3729820  23.6924648   7.2335448
  64.2250443  16.4487381  63.1484718  63.9289513  17.0034218  62.4267502
  65.1405640  16.6952477  63.2799797  10.2521925   2.0999265  64.2453384
  10.7587557   2.8928030  64.4213257   9.4557772   2.2040255  64.7660294
   8.4663172  18.7463455  54.4846230   7.8268013  19.4016209  54.7636642
   9.2161293  18.8815079  55.0640564  13.0767698  71.6034546  75.4600143
  13.8749104  72.0363922  75.1570816  13.0861864  70.7514191  75.0239258
  66.4503403  46.7618027  73.5272751  66.6513824  47.0814171  74.4068527
  65.6591492  47.2376060  73.2745743  70.9085159  10.4826250  56.6366196
  70.8579178  10.0642109  55.7772026  71.0313339   9.7574472  57.2492104
   3.3753088  44.1096077  45.1243515   3.3608513  43.6598358  45.9691734
   2.9843864  43.4847641  44.5136299  49.3463058  17.9620514  42.6339989
  48.8564835  18.6337509  43.1084747  48.6955147  17.2905426  42.4296036
  72.5413971  59.4379425  35.6138344  72.5471191  58.5673180  36.0115891
  71.6175842  59.6134949  35.4349937  53.4351692  66.0189819  61.0109253
  53.4066544  66.4201431  60.1423149  54.0003052  65.2539902  60.9030075
  63.0984802  18.0407696   0.2849438  63.9509392  18.4606037   0.1696710
  62.4643440  18.7443218   0.1466834  85.7065506  15.6900120  17.8102264
  86.4539337  15.4895172  18.3736515  85.6087036  14.9148369  17.2572689
   0.2207359  50.6818352  49.0250359  -0.1791672  50.0188332  48.4622421
   0.4601648  50.2074089  49.8211670  81.0973129  48.8724937  49.9542122
  81.2949829  48.9266548  49.0192146  80.1415405  48.8995476  49.9989204
  15.7221909   7.4962440  63.2678337  16.6160393   7.2456279  63.0344772
  15.4987297   6.9277916  64.0048294  73.2815704  59.2720108   6.1482201
  72.4619064  59.4421120   6.6123838  73.7719269  58.6934776   6.7322388
  46.7045975  22.8561287  33.8362083  46.0833588  23.0993481  34.5226021
  46.1587372  22.6852741  33.0686951  16.5789948  54.1647720  32.8791122
  16.4051609  54.1775131  31.9379158  15.7155018  54.2497635  33.2833290
  65.4975281  58.4579391  75.9926529  65.4788437  58.8608322  75.1245728
  65.6569824  57.5295868  75.8224564  67.1863098  26.4580860  12.3377008
  66.5079575  26.9473324  12.8032255  67.0200729  25.5431385  12.5645628
  22.9281273  46.0202255  36.8126717  23.4437160  45.8945580  37.6092911
  22.9768620  46.9607735  36.6417046  55.5854530  70.8785248  32.4164886
  55.4993935  71.8095474  32.2114906  56.5106697  70.7657928  32.6344261
   6.1286540  21.1799603  55.8968391   5.7352901  21.3724499  56.7479820
   6.3555250  22.0379829  55.5382881  60.5534286  46.5038109  35.9084740
  61.1293526  45.8231277  36.2566338  60.4741173  46.2971840  34.9772110
  65.2355270  53.8653564  77.7798615  65.7117233  54.6423645  77.4870758
  64.4998856  53.7920380  77.1718445  63.4736366   8.9566269  38.6801453
  62.8400879   9.0873013  39.3856735  63.3163948   8.0614758  38.3797913
  15.7682533  46.0825233  11.0031195  16.4275627  46.7672195  11.1159573
  16.2364674  45.3679962  10.5713110  38.7002220  55.2727280  62.4644661
  38.6655769  55.6527252  61.5866051  39.6350327  55.1925545  62.6540260
   1.5172842  37.6426811  37.5560150   1.6400486  36.7608681  37.9075394
   2.2075889  38.1627617  37.9673920  86.6555328  46.5410995  71.7245789
  87.2747116  46.6061172  70.9975128  86.0399323  45.8596001  71.4546967
  61.4525604  12.5121346  85.2830200  60.9517250  11.8086147  85.6958847
  61.1532516  12.5175295  84.3738327  82.2636719  31.9467468  73.4351807
  82.4187775  32.5100899  74.1933517  81.3367844  31.7152348  73.4944458
  35.1446571  13.4312220   2.2802377  35.7280312  12.6797314   2.3859174
  34.8991966  13.4156590   1.3551767  79.1622314  17.9748020  56.5882149
  78.9115906  18.8673306  56.3498726  79.8083572  17.7231674  55.9283409
  71.8357239  33.4458923  42.9544067  71.7036819  34.3908043  43.0314941
  71.7801971  33.2721710  42.0147400  50.7116051  34.3622208  62.5037766
  51.3403778  35.0098953  62.8222008  50.5518951  34.6108971  61.5933456
  44.5790367  68.2713318  63.3115883  44.2619858  67.5167618  62.8152695
  45.5194359  68.2963104  63.1348038  51.6679840  58.0951958  64.7277908
  52.0897141  58.6033020  65.4207611  51.0966797  57.4839706  65.1928177
  13.5510635   3.7408397  61.7015762  13.5263710   4.1366229  62.5727692
  12.7172947   3.9888325  61.3021240  44.8719902  51.8346367  16.6724777
  44.4514542  52.6943855  16.6870136  45.3924255  51.8089676  17.4754219
  56.5287247  17.0915642  88.1849060  57.4527931  17.2210445  88.3983688
  56.1136246  17.9264507  88.4014435  65.6124039  30.9721966  32.4146576
  64.8067856  30.6890030  31.9822063  65.5912247  30.5389843  33.2679482
   2.8690124  55.6023064  42.4693947   3.0170383  56.4329872  42.9213753
   2.1510236  55.1919823  42.9514275  68.7217484  41.5131149  77.5044937
  68.1059799  41.7504044  76.8111343  69.4921265  42.0558853  77.3367233
  36.8562126   2.7349498  25.9536324  36.3273468   1.9395480  25.8914471
  36.7825279   3.1397450  25.0893726  65.0230026  18.4982185  54.8321648
  65.4345474  17.7028446  55.1701660  64.1645203  18.2103424  54.5217361
  37.8667793  37.4985962  72.7257690  38.0109444  36.7869835  72.1020279
  36.9333267  37.6969643  72.6512680  59.5639191  56.9663315  71.6086426
  60.0831871  56.8879166  70.8083649  60.2043304  56.9010544  72.3170547
  85.2406158  28.4405231  61.6283302  84.3958282  28.8434601  61.4278030
  85.8832321  29.0049953  61.1986275  55.3877525  37.4911385  55.6307640
  55.6630783  36.5768623  55.5634575  54.5104408  37.5058594  55.2482185
  77.8047409  17.7308235  88.2301636  77.5784225  17.8346157  89.1544113
  78.0337448  16.8056030  88.1420898  17.4990253  64.8514862  30.3636265
  16.9095306  65.5119247  29.9995480  18.1809845  64.7472687  29.7000751
  21.3598194  17.3266773  71.1243286  20.4074669  17.2308083  71.1161499
  21.5333786  17.9324665  71.8448334  46.5377617  17.4171562  78.0323868
  47.3163414  17.1116199  78.4978943  46.5672112  16.9611187  77.1913223
  26.6343536  26.0893440  84.5700531  27.4235725  25.9382687  84.0499191
  25.9144039  25.9910812  83.9469604  50.5481415  52.4854698  17.3309860
  50.5110207  53.3573532  16.9377098  51.4798088  52.2660103  17.3394585
  64.0653076  40.4348755  29.5695038  64.9009933  40.0609322  29.2901649
  64.2902908  40.9968796  30.3109646   6.7369180  69.0020370   5.4408522
   6.1420550  68.6137772   4.7992744   6.5763078  68.5090408   6.2454557
  30.9869709  18.8664436  19.8305187  31.5247841  18.6053352  19.0829830
  30.8370018  18.0535927  20.3132343  25.4429283  14.8569202  68.3672256
  25.4133644  14.3442745  67.5594177  24.9660110  14.3262024  69.0052872
  10.5218372  38.4403076  86.4464874   9.7672157  38.2218056  86.9933243
  10.8902950  39.2263298  86.8497696  52.0451202  34.9035034  12.3364267
  52.0440712  34.6912498  11.4030571  51.3206177  35.5199738  12.4426785
  73.2310333  17.6965141  86.0360718  73.4165802  17.9453411  86.9415512
  73.4863968  18.4614067  85.5203629  85.0700531  67.0760727  58.2281914
  84.3409500  67.6860352  58.3404083  84.9075546  66.3873825  58.8728142
  68.7832870  67.3788376  39.7321281  69.0023499  67.6730957  40.6162415
  68.4785461  66.4788513  39.8478699  80.5495758   5.3981357   2.7653093
  79.8784866   5.6775107   2.1425595  80.4565277   6.0000386   3.5037448
  37.8044968  50.2924156   2.7413094  37.9001007  49.3419800   2.8026628
  36.9285355  50.4677086   3.0851011  41.0821724  29.2295742  43.7566338
  40.5347672  28.4482403  43.8347282  40.6801758  29.7339401  43.0493546
   9.5465059   6.0230279   9.7046461   9.1736126   6.8028326  10.1158476
   9.0743341   5.2925363  10.1042299  72.7908401  20.6684170  71.0737991
  71.9598923  21.1435089  71.0663528  73.4573975  21.3526402  71.1352005
  19.3639221  53.0316200  77.1456223  19.3364391  52.0766296  77.0866852
  20.2540092  53.2280350  77.4378510  22.2101784  58.8914146  30.6353016
  21.2808361  58.7153549  30.4884720  22.6442604  58.0593567  30.4469223
   5.4383807  21.8524914  24.9418793   5.7475128  22.6884499  24.5928230
   5.2613111  22.0294895  25.8657570   9.0274105  29.3580132  57.7247467
   8.7171593  28.6194725  57.2007828   8.2417593  29.6905155  58.1588287
  35.1689835  57.9654846  30.5127926  35.0305443  58.7448273  29.9745655
  36.1112137  57.9549103  30.6810818  39.2221603  29.9638004   3.2805908
  38.7772026  29.1239700   3.1668711  40.1439514  29.7328472   3.3954506
  28.1355858   4.1796908  23.8000298  28.6191025   4.5700283  23.0719624
  28.7851486   3.6499720  24.2623024  28.1085110   4.0056343  87.8217926
  27.9755116   3.2944095  87.1951370  27.8902054   3.6208837  88.6706390
  23.9316025  55.8501091  77.7951050  24.7921867  55.7451744  78.2008286
  23.4813881  56.4872017  78.3497696  52.8843727   5.6862569  70.4404221
  52.5342293   4.9047399  70.0128021  53.6890106   5.8818307  69.9602814
  75.2352829  40.4444504  12.1320553  74.6418686  40.6058044  12.8655767
  75.9801407  39.9874191  12.5226269   1.5587745  47.8226547  17.8978481
   1.2519172  47.3368530  18.6633987   0.8963230  48.5002708  17.7628460
  38.7023163  44.3108177  11.8703403  39.4858475  43.8122978  12.1022682
  38.4255867  44.7177277  12.6913624  21.9076157  45.7582169  16.4829826
  21.4144516  46.0895081  15.7324696  22.8217754  45.7875328  16.2006989
  49.6169624  24.1704865  38.5558777  49.3246346  25.0476532  38.8035736
  48.8130684  23.6523933  38.5162849  54.3776970  58.7328758  57.2780113
  53.6637917  58.4459686  57.8474464  55.0565605  58.0676422  57.3913193
  55.7295074  32.7767792  16.3575611  54.8952789  32.3167572  16.4507275
  55.8221931  33.2719116  17.1714916  77.4920807  32.6881027  38.4309921
  76.9068680  33.3357315  38.8238449  78.3496704  33.1132240  38.4241028
  30.7271824  33.8950844  12.9140625  30.1279030  33.3116341  13.3795538
  31.5797539  33.7352180  13.3187799  66.3346252  33.5699196  73.5523682
  67.2764435  33.7317314  73.6074524  66.2053223  32.7458572  74.0218735
  64.9785767  29.1533241  12.6381321  64.7084656  28.4194965  12.0860720
  64.3683243  29.1357441  13.3753653  17.8588982   3.8590434  19.6343575
  18.1074162   3.7821035  20.5555267  17.5437412   4.7585073  19.5456295
  63.3230019  50.2241364  26.9007835  63.5688782  49.7862854  26.0858803
  63.7127495  51.0956421  26.8314533  14.3161926  36.6344299  10.1339464
  14.3635416  36.5746460   9.1797895  14.8586483  35.9103584  10.4465094
  36.4244537  56.4036369  19.5320911  36.1288948  55.5315704  19.2705994
  36.3910103  56.3910446  20.4886246  82.8703918  38.6935120  46.2093697
  81.9902573  38.9526596  46.4821892  83.4375305  39.3927040  46.5345116
  66.8010864  49.1587334  19.3226719  66.4613266  48.9745178  18.4469662
  66.9921036  48.2964516  19.6917496  12.0725670  66.7570877  55.5463867
  12.9143438  66.5964966  55.1199417  12.0605822  67.7010040  55.7048759
  65.3008118   4.3362226  20.4409981  65.9677963   3.6583123  20.5496426
  64.8269196   4.3414373  21.2726421  39.8677597   1.6488479  31.6350746
  39.3113556   1.0700887  32.1563072  40.2345467   1.0815893  30.9569016
  29.6427746  55.4716492  79.4071732  29.3264809  54.5726891  79.3173752
  30.1469231  55.6290359  78.6088638  19.2350426  54.4796829  33.5068016
  19.3508625  55.4291496  33.4702835  18.3486462  54.3336372  33.1763420
  20.3280735  31.2832603  15.5663385  19.4270325  31.5863552  15.6780958
  20.8650227  31.9936390  15.9174519   3.2984083  22.6187954   0.4064488
   4.1967316  22.4645119   0.6987569   2.9251418  23.1950455   1.0734123
  35.5663681  65.4965057  79.6974335  36.3268700  65.2392502  79.1761932
  35.6688118  66.4401474  79.8210144  31.4445820  57.7226562  49.6581497
  32.0764694  57.8053818  50.3723679  30.9297352  56.9475060  49.8824348
  77.0349350   9.1404381  35.8813210  77.4775085   9.9034023  35.5095100
  77.3087769   8.4104748  35.3259888  14.6190166  64.0663528  28.7287827
  15.1467896  64.8281250  28.9683495  13.9021502  64.4263077  28.2065105
  40.0350418   1.4998701   0.2375483  39.9094124   2.3622022   0.6335694
  40.9624596   1.4774294   0.0017017  11.1884060  33.7293091  75.6611099
  10.2616253  33.8702660  75.4676132  11.2776527  32.7784767  75.7258148
  48.1536217   8.5157442  78.7414322  47.7836151   7.8811626  78.1277237
  48.9210434   8.8665867  78.2895355  28.2342224  43.7942352   2.6375687
  29.0409870  44.2966003   2.7515602  28.5298595  42.8942413   2.5003161
  21.9879398  61.4928436   3.4860382  22.6800919  62.1537018   3.5067439
  22.1384659  60.9637337   4.2693729   1.7318548  50.3214149  38.3676796
   2.1792228  50.4386597  39.2057419   1.1985239  51.1100540  38.2684898
  25.4532757  48.7602119  10.6948767  24.6782227  49.1277199  11.1196852
  25.1427937  48.4748878   9.8355627   4.1781907  19.1412277  75.4210510
   4.0582309  18.3434143  74.9059448   3.2947180  19.4949188  75.5240631
  30.3378773   1.8163068  21.8124123  30.0959702   1.6454108  22.7226372
  29.6671696   1.3671701  21.2979622  27.2249451  26.0468807  80.1813889
  27.2619267  27.0031013  80.2039490  27.2430172  25.8284073  79.2496338
  69.5882263  35.1263008  47.1697693  69.8942261  34.2203674  47.1264000
  69.2066727  35.2917633  46.3076401  80.0436172  31.2115707  81.0867462
  80.1028214  30.9627056  82.0091248  80.9537735  31.2903385  80.8010178
  71.7562332  31.4161568  61.3116570  71.8590393  31.5419426  60.3683434
  71.7289810  32.3033218  61.6700249  17.2827873  46.0007668  36.2712250
  16.9767017  46.8289604  35.9015808  18.2299252  46.0124283  36.1332893
  38.9570541  68.7500381  19.7741604  38.7550964  67.8803101  19.4291782
  39.3738060  68.5816498  20.6192627  80.2186966  12.7698469  13.9278851
  81.0699768  12.6361094  13.5111465  80.1704788  12.0882874  14.5982456
  75.3926773   8.8729639  43.3343468  75.3996658   9.6831255  43.8440742
  74.4706497   8.6177988  43.3027802  70.1441193  19.6371384  51.6073875
  69.3187561  20.0997849  51.4625740  70.5391006  20.0811234  52.3577843
  68.9838791  54.7374840  30.3857059  69.1034241  53.7916756  30.2997494
  68.0384903  54.8515472  30.4829941   7.5448270  39.0963478  81.8118820
   7.1576104  38.2953033  81.4588699   7.6123137  39.6821976  81.0579224
  86.2124557  13.8407221  52.4231148  86.7715302  14.4493017  51.9401093
  85.9734116  14.3154249  53.2192001   8.5777092   3.7185762  60.6917191
   9.4650230   4.0567713  60.8122635   8.3508644   3.9562962  59.7926826
  55.4245605  13.7632980  87.8270187  55.9445839  14.5667849  87.8417664
  55.8119011  13.2147551  88.5091476  14.0057945  41.6158676  58.6864624
  13.5543470  42.4211349  58.4335327  14.6298771  41.8918724  59.3577080
  63.0920296  33.6250877  31.7181759  63.7090454  34.0172005  32.3360519
  63.6461105  33.2159309  31.0534801   8.7189398  46.2314034  76.5169830
   8.2377062  45.5009346  76.9056473   8.7969141  46.0012665  75.5911407
   8.4080648   9.6023111  68.2380905   7.7457094  10.2917156  68.1907730
   8.0971727   9.0185585  68.9300461  65.8968506  45.0597382  48.2991486
  65.8481445  44.1261520  48.0935478  66.4545212  45.4272270  47.6134415
   4.8988161  10.5408287  71.4643784   5.6326199  10.8768330  71.9790268
   4.1656976  11.1132221  71.6905060   5.7704020  69.7729645  32.7989502
   6.5368886  69.2538986  33.0424728   6.1054049  70.4162979  32.1743546
   0.7325823  36.6364594  89.0986786   1.5313977  36.5509262  88.5782852
   0.6189176  35.7776909  89.5059052  44.4418449  29.2119007  22.0237427
  43.9347458  28.4003258  22.0029907  43.7954407  29.9020786  21.8752537
  55.1097717  24.1173325  55.7676048  56.0010490  23.7913933  55.8925781
  54.6128159  23.3514919  55.4799347  80.5352478  59.8481789  45.5272293
  80.6726913  60.5241470  46.1908607  81.2030563  60.0239754  44.8643913
  40.8843498  42.8705215  80.2813797  41.0717125  42.2102242  80.9485626
  40.0153923  42.6394730  79.9531174  40.2128944  12.3456812  24.0311069
  39.8685684  11.4532690  23.9954586  39.5141411  12.8558273  24.4406509
  17.1815681  21.9604874  10.8447227  18.0375938  22.2693653  11.1414518
  16.8817463  22.6348133  10.2351141  15.6196842  12.9918919  69.4777679
  16.0112705  12.7731771  68.6321640  15.5657682  12.1555605  69.9402390
   2.8948982   7.1090608  24.0428791   2.3329465   6.9272757  24.7961369
   3.4776840   6.3515339  23.9904804   5.2107573   0.1063772  26.1025581
   4.7088432   0.1215556  25.2876453   5.0232005   0.9494988  26.5151119
  53.1791687  67.6168518  26.7856617  52.5130501  68.1552277  27.2130623
  52.8533287  67.4958954  25.8937931  65.4682693   2.9813449  26.4614944
  65.3919830   3.9336402  26.4019470  66.2916336   2.8356900  26.9274158
  43.4645233  71.2045441  27.9813995  42.9485588  71.7768936  28.5492268
  42.8153000  70.6581573  27.5384598  20.0541973  56.9012680  40.0749664
  20.9858685  56.7335129  39.9332771  19.9242744  57.8005791  39.7739792
   5.6195269  22.8768883  27.5723648   5.3043489  22.7086372  28.4603882
   6.5299506  23.1485596  27.6887951  59.7676888  31.5164089  60.6506538
  59.8861847  32.2851448  60.0927696  59.8227768  31.8575077  61.5433197
  37.5387192  39.2060928  19.5771637  38.1763573  39.8068542  19.1915054
  37.5826035  38.4243889  19.0264835  18.1147919  30.8136272   0.4425464
  18.5112705  30.5781269  -0.3962483  17.1770573  30.6725445   0.3122336
  39.5077324  39.4538307  15.2936287  40.0186920  40.0994415  15.7818279
  39.1199112  39.9505005  14.5731125  19.8163548  52.5066681  82.6387863
  20.3706875  52.6263580  81.8676682  20.4329853  52.4148941  83.3651276
  82.2843781   6.7752833  39.8162460  82.1863861   7.2149978  38.9716873
  83.1850433   6.9626074  40.0807304  54.3105087  61.1511536  29.5483723
  54.4259911  61.8699188  30.1698761  55.0324783  60.5520287  29.7382259
  49.0267830  16.0086861  27.0109158  49.4619102  15.2579174  27.4149513
  48.1441536  15.6958084  26.8126583  40.4520836  56.2734947  35.7927475
  40.8112221  56.5383453  34.9459267  40.5040588  55.3177261  35.7865944
  17.4714470  41.9022980  65.4810410  18.2032108  41.2912292  65.3953323
  16.8830872  41.4846802  66.1100540  58.4595718  25.7340584  58.4209709
  59.3101425  25.8450508  58.8457565  58.5713348  24.9683590  57.8575439
  -0.2218520  26.4783020  37.2505226   0.6565861  26.7822800  37.4789429
  -0.3293466  25.6646214  37.7430687  13.5108395  24.2684593  50.7072182
  12.8200750  23.7966461  51.1724777  13.5267286  23.8720798  49.8360901
  68.3548431  39.3217049  61.6281929  68.0887833  39.6042557  62.5031853
  69.3086014  39.4027290  61.6300201  48.1609535  59.6462860  76.2712021
  47.8885155  59.1037560  77.0112457  48.6262665  59.0437431  75.6909790
  81.4479828  26.9918518  78.7803345  82.0811386  26.2740288  78.7712860
  81.9370804  27.7382717  79.1265717  22.2864876  46.7498932  70.8521347
  22.4691887  46.0795174  70.1937714  21.6878490  47.3565826  70.4164810
  81.9835205   1.5276755  67.4113770  82.2091446   1.1263705  66.5721588
  82.5825806   2.2700219  67.4906311  70.5842743  44.8641472  49.9223709
  69.6754761  44.5652504  49.9537621  71.0969620  44.1000366  50.1860313
  21.5159779  62.6492805  51.8692970  22.3819180  62.2712402  51.7161102
  21.6233082  63.5803604  51.6748772  63.8432655   4.6218529  67.6552277
  64.3946228   5.2642908  67.2085648  64.4165726   4.2316918  68.3150253
  79.4113007  22.7094002  32.4543343  78.5629883  22.6992035  32.8976097
  79.6528931  23.6350002  32.4207764  36.0065231  51.5938644  62.6862297
  35.4699402  50.9948807  62.1670723  36.2280426  52.3021545  62.0816765
  86.3461533   9.2669468  49.6059570  85.7639313   8.8837404  48.9499016
  85.7686920   9.4957142  50.3342628   8.3681536   0.4593554  33.1964149
   8.2552519  -0.4894151  33.1388016   9.3133011   0.5928633  33.1249657
  39.2041855  13.7652807  -0.2287196  39.5334969  12.8796091  -0.0758398
  39.5061569  14.2671032   0.5283929  82.9631348  24.2906857  58.9368477
  82.5720978  23.6479759  58.3450279  83.2655716  24.9932709  58.3614006
  36.4346504  57.3084564   6.4874883  36.8883781  57.0371895   7.2854691
  35.6885223  56.7124634   6.4218273  20.3274441  24.2132320   6.7478452
  20.1786270  23.5477467   6.0761204  20.3422070  25.0404034   6.2663879
  62.6537933  29.4517727  45.5629234  62.6558151  28.5343132  45.2899857
  63.4922104  29.5707512  46.0091705  44.3925972  15.1251268  45.0967636
  45.1560593  14.5900574  45.3136864  44.0946426  15.4697504  45.9386024
  21.2676601  43.9291534   9.1625690  21.8420563  43.3332825   8.6816988
  21.6374035  43.9581947  10.0449972  34.5527077  39.8039894  67.5170441
  33.9964523  39.7254944  68.2920609  35.2307281  39.1397209  67.6405869
  48.3956757  27.2434578  37.0709572  47.6462784  26.8802814  36.5989990
  49.0325203  27.4497395  36.3867760  41.4855309  40.3129387  68.5501175
  41.9944878  40.4298401  67.7479095  40.5927849  40.5560875  68.3049393
  60.3259010  17.8656826  29.4838028  60.6929169  18.5950661  29.9833317
  61.0875511  17.3513737  29.2162075  55.7458801  34.2312355  30.4354725
  55.7362175  35.1390953  30.1322746  55.6598816  34.2954521  31.3866367
  59.7965584  61.2027512  54.2295609  60.3129196  61.3917847  53.4460640
  59.7175751  62.0469360  54.6737976  34.3038750   6.8511682  77.3609848
  34.3398438   6.9160771  76.4066696  33.8606071   6.0193777  77.5279388
   2.7525625  17.3174992  57.5924225   2.5763805  17.9710884  56.9156570
   3.6408474  17.5141964  57.8899002  54.9170876  41.4463005  87.2225418
  54.3438683  41.8793907  86.5900192  55.0630302  42.1036644  87.9028397
  22.5642548  33.1643524  71.7362366  23.1870384  33.3132744  71.0247650
  22.7254143  33.8813171  72.3496094  25.2895966   9.6240911  32.8870735
  25.8720512   8.8695068  32.9741325  25.8643818  10.3830376  32.9863358
  59.2217026  44.8418808  52.6571846  59.1204262  43.9178810  52.8856468
  60.1626778  45.0036774  52.7251854  36.5351601  49.8462906  80.1783218
  36.8327522  49.2607918  80.8746414  37.2115288  49.7799950  79.5042572
  41.4881020  30.6663017  82.1547623  40.9809113  30.7912636  82.9568710
  41.1791458  29.8311214  81.8036957  72.2540359  51.1748352   3.1285563
  73.0105133  51.7596321   3.0840828  72.3625488  50.7053261   3.9556103
   7.5742893  42.6652069  82.1730347   6.8072567  42.1507530  82.4244919
   7.4162531  42.8994637  81.2584991  68.0197906  58.9390106  48.0725937
  67.7766266  58.8607216  48.9950752  67.4015045  59.5763550  47.7151756
   0.6645138  31.6946507  39.7448578   1.0472755  31.5055313  38.8881454
   0.1678195  30.9064465  39.9645462  41.1268616  12.9129953   2.3062706
  40.9054031  12.3289604   1.5809489  41.1562233  12.3414879   3.0735700
  21.5189972   2.8436978  11.9549561  21.6950283   2.4392304  12.8044567
  22.1443233   2.4311993  11.3591013  62.6647377  45.8143425  38.0039711
  63.1804008  45.0135956  38.0995293  62.7031670  46.2282906  38.8661766
  44.0610199  57.0856438   7.9280820  44.9890480  56.9640656   8.1286163
  43.6195679  56.3791237   8.3994379  84.3419800  18.7015057  22.5626984
  83.5454865  18.1757317  22.6361713  84.4533920  18.8372822  21.6217499
   1.2848556  54.7040367  44.2912865   1.3964454  54.7646523  45.2400246
   0.3370283  54.7270126  44.1596527  42.2512360  70.6469345  75.3361511
  42.3847542  71.1291962  76.1521378  42.8145294  69.8773575  75.4178467
  67.9327621  51.2150612  14.9986334  67.9232178  51.0169029  15.9350500
  67.0844269  51.6259537  14.8321104  62.8587990  10.3050518  77.2259674
  63.2679482  10.2927008  78.0912323  61.9914703   9.9249868  77.3657074
   8.3427677  46.8068314   0.6629801   9.2616768  46.8709297   0.9232309
   7.8534679  47.0321922   1.4542005  59.6407242  15.8309069  34.7119408
  59.5331688  16.2812271  33.8741608  59.5568962  14.9019232  34.4970131
  43.7988014  63.8183289  57.1782570  42.8937263  63.5129585  57.2400208
  44.0571556  63.9866486  58.0844345   3.0044875  46.0484848  16.0386238
   2.7720480  46.8152542  16.5623283   2.5937681  45.3137283  16.4943409
  69.0765381  51.8614426  30.0899353  69.8195496  51.3695145  30.4394703
  68.3107529  51.4682999  30.5085621  34.8914604  68.3634949   8.7977657
  35.6404076  68.1399689   8.2451887  34.1927872  67.7800217   8.5017223
   5.9686785  36.9946251   6.7741256   6.0553675  37.7404633   6.1804566
   6.6675024  37.1174240   7.4166193  75.0852051  16.4426022  22.1109180
  75.9163132  16.1153774  22.4550400  75.0592041  17.3606892  22.3804932
  72.6239624  38.2619591  81.7068253  73.0464630  38.5226250  82.5252228
  71.8099289  38.7651253  81.6866837   2.6422400  13.1675138  77.8670425
   3.5532775  12.9081182  78.0047226   2.4471052  13.7539558  78.5979538
  63.0190125  68.6257629  15.0345936  63.0611496  68.9127502  15.9467850
  63.7438049  68.0070724  14.9444332  27.8333530  42.1203156  41.6938972
  27.5282440  42.7440453  41.0350304  28.1099472  42.6658325  42.4301987
  27.3602695  34.4578476  85.6744537  26.7451134  33.7297058  85.7617645
  27.8164234  34.2884865  84.8501511  35.1305923  34.4523277  67.3136215
  34.6151886  34.5001526  66.5084457  34.9620361  35.2844391  67.7556686
  49.8213692  34.0101891  15.0427818  48.9795151  34.1409111  14.6064005
  49.9781837  34.8300667  15.5112276  16.0641575   5.9676008   0.2600083
  16.3763065   6.8546739   0.0814150  16.8514194   5.4244623   0.2219407
  54.9634933  45.0079346  46.3180923  55.3643379  45.7345085  46.7952118
  55.6462593  44.7106514  45.7166862  76.0412750  21.5054302  68.9100418
  76.9163208  21.3305893  68.5636826  75.4950027  20.8105888  68.5426102
   2.1961019  35.1361084  38.4719124   2.9509599  35.1249084  39.0603828
   1.4944886  34.7220573  38.9744377  43.7081528  40.0271873  66.2520218
  43.8169937  39.5485153  65.4302750  43.7618713  39.3539314  66.9303055
  47.9847603  44.9156303  67.4262390  47.4655800  44.8266754  66.6270065
  48.7608109  45.4056282  67.1544342  83.2183456  68.5190201  64.4102631
  83.9063644  69.1774292  64.3135147  82.4093170  68.9853134  64.1998291
  72.6900253   3.2314177  49.2870750  72.8469315   2.2875617  49.3143997
  72.9746094   3.4963031  48.4123878  65.5389023   4.2549405  50.4928741
  66.1531982   4.9862528  50.5565681  64.6876221   4.6688929  50.3507767
  74.5703964  22.1529655   2.1092913  73.6528397  22.3028221   1.8815659
  74.9967270  21.9634037   1.2735039  61.3925247  39.2310066  84.3276901
  61.6599312  38.4388618  83.8616028  62.2026062  39.7287369  84.4384155
  63.0329208   2.6276550  10.7627354  62.9719124   3.3442998  11.3943453
  62.2830391   2.0674546  10.9629478  59.9617271  46.6679115  12.0487385
  60.1301994  47.0229988  12.9215279  59.1131744  47.0348053  11.8005877
  15.7959375  50.8567085  80.5212021  16.6058159  51.2862701  80.2458725
  16.0001469  50.4891472  81.3811035  18.6398964  16.5590458   8.0516882
  18.3611813  16.3162346   8.9346333  18.5228443  15.7613564   7.5357199
  77.1531754  14.3635254  73.1993332  76.5374451  15.0958548  73.1711655
  77.8819199  14.6418495  72.6446228  14.7143488  32.4784851   3.3472254
  15.2885542  32.7658615   2.6373413  14.8827000  31.5395241   3.4262440
  38.5442810  69.9835892  77.4446411  37.6571579  70.0167999  77.8026047
  38.8121185  70.9004745  77.3828888  48.2672386  47.6021156  56.2929764
  48.8727417  47.9626007  55.6451721  47.4020729  47.7087898  55.8975677
  82.1879349   5.0466428  37.2161446  81.2769852   5.3165851  37.3324852
  82.5343933   4.9829307  38.1061668  78.5331650  15.5424509  66.0893326
  78.0627594  14.7168407  65.9739151  78.7807770  15.8030729  65.2022095
   0.0439684  29.0852051  48.6251488   0.2318278  28.4217396  47.9612541
   0.7125079  28.9483795  49.2963905  31.7762775  28.3783989  75.2491989
  31.0165653  27.8409576  75.0250854  32.1352386  28.6498470  74.4043884
  59.6390305  15.2977219  50.3939171  60.3293228  14.6660671  50.5957565
  60.1050491  16.0606613  50.0518875  20.3025417  65.3935776  48.5080872
  19.4096603  65.7371063  48.4767227  20.8555374  66.1435318  48.2889977
  61.7595787  14.7732525  25.5572166  61.1215935  15.4808493  25.6494751
  62.2346611  14.9824562  24.7530003  71.3385468  67.2197800  70.5949402
  71.6896973  66.7279129  71.3372269  70.7242889  66.6163712  70.1768265
  24.3327332  26.8826675   3.1803775  24.4994469  25.9408035   3.2168632
  24.1460190  27.0572968   2.2579491  73.0554047  13.9020882  71.0031204
  72.5695267  14.3344231  71.7054367  73.6971817  14.5533028  70.7197952
  34.8376465   4.9954405  45.3296318  34.8840103   5.9464030  45.2308769
  33.9320450   4.8254323  45.5888901  48.8310013  47.9358406   4.9304271
  48.3117790  48.1083870   5.7158341  49.1713829  47.0503578   5.0580816
  56.5738716  12.2198648  15.6879597  57.4418221  12.2422056  15.2849760
  56.6164284  11.4920235  16.3081760  25.5497627  66.8110352  35.3729591
  24.7729435  67.0272141  35.8887558  25.8604393  65.9846191  35.7427483
  63.4879494  25.6061153  15.2755880  62.6573753  26.0807667  15.2426758
  63.2889366  24.8089085  15.7665920  45.2954216  63.8782310  87.1435547
  44.9244690  63.1773376  87.6796265  45.5076523  63.4562454  86.3110123
  70.1990204  48.6161308   2.5637531  70.4755402  49.3571854   3.1028326
  70.7911301  47.9058838   2.8111072  46.5496254  10.4846907  70.1781769
  46.2492104  10.8862591  70.9934845  45.7682877  10.4496365  69.6263504
  59.8350220   0.3544497  54.4387703  59.0432587   0.8653365  54.2704315
  59.8764153  -0.2690683  53.7136879  78.5601578  23.9699116  37.4093132
  78.0250473  24.7603951  37.3384285  79.0086594  23.9078732  36.5659676
  61.9335670  15.2361374  44.1014633  62.2643089  16.0848408  44.3956490
  61.3609962  14.9433775  44.8104668  53.0586395  33.7134666   0.3779720
  52.9699020  33.1405907   1.1396614  52.3883858  34.3851051   0.5040440
  28.8071251  49.5447121  88.5340118  29.2795429  50.2625999  88.9555511
  27.9142113  49.8737030  88.4305573  23.1925640  62.3725204  87.6848450
  22.6952553  61.7701149  88.2380371  23.1533985  63.2098389  88.1470032
   8.1872063  58.9208031  56.4695015   8.4737062  58.9644356  55.5572243
   8.5285673  59.7221909  56.8663406  33.8612518  55.5769157  85.3760910
  34.6769028  55.0929565  85.2467422  33.9527397  56.3526802  84.8228683
  52.0620003  63.1943092  70.6959381  52.8699417  63.3719177  71.1775208
  51.7548676  62.3571587  71.0438995  81.2258911  68.5896149  85.0051956
  80.7961502  68.0557938  85.6734619  80.8586426  68.2788086  84.1776886
  86.4061050  25.1615810  43.3729439  86.3163528  25.8735180  42.7394447
  85.6814041  24.5694084  43.1720200  82.4097824  51.7997169  28.4356842
  82.1325607  52.0065613  27.5431595  81.6944656  51.2733421  28.7927399
   8.7505064  56.2072220  83.4466934   9.1806021  56.0813332  82.6008759
   9.0850878  55.4965096  83.9936600  10.5925369   6.3402443   3.2161798
  10.7297306   5.5026245   2.7736840   9.8947039   6.7637429   2.7162700
  86.1694183   4.1964064  74.2948914  86.3986893   4.1233020  75.2213440
  86.9534607   4.5583472  73.8819656  62.9624405  50.5588150  24.0510864
  62.8533592  51.3422050  23.5119839  63.8548965  50.6242752  24.3908939
  12.0207167   4.3188596  13.6424875  11.1307049   3.9748819  13.7185841
  12.2395124   4.6147275  14.5261288  36.1554031  67.9074249   6.4490561
  35.4336700  67.8998795   5.8203483  36.6652451  68.6842270   6.2191014
   3.4794614  54.9518776  39.8833542   3.7847369  55.8297539  39.6545105
   2.7580194  55.1009216  40.4945335  61.6986122  69.2921906  60.8981323
  61.7933578  68.5677185  61.5165100  61.7795410  68.8836060  60.0363045
   1.0878568  31.0211639  62.2100182   1.8317999  31.3123493  61.6827698
   0.8118244  31.8035336  62.6874428  71.5138016  65.6388321  83.6055679
  71.5074692  66.2538376  84.3390198  70.6002121  65.5928345  83.3236694
  55.6028557  32.1248741  27.6139202  55.4214325  31.2345295  27.3129139
  54.7546120  32.4551277  27.9099693  54.5627899   5.3242455  17.5669060
  54.4792671   6.1813388  17.9848137  53.9562950   5.3583522  16.8271542
  74.5002441   7.7403345  21.1297569  75.3619461   7.7565370  21.5462227
  74.4787445   8.5325470  20.5929432  14.2103472  37.1882553  36.7282181
  14.4812174  37.3367119  35.8222237  13.2954655  36.9144783  36.6628761
  11.2549133  25.0032539  81.0645370  11.5594063  25.7705917  81.5490036
  10.8943729  25.3600578  80.2527847  41.1221504  27.0896435  66.4925919
  40.5896568  27.8298054  66.7838745  41.4646225  26.7081699  67.3009338
   6.3499212  60.0998611  25.6245155   6.2919211  59.3339691  26.1957188
   6.2156458  60.8455811  26.2094116  76.6406326  24.1265430  43.7087479
  76.3070984  23.8015957  42.8724518  77.5120392  23.7381058  43.7862778
  52.7249451  16.2860832  80.7379990  52.4526863  15.3824883  80.5779190
  52.6938095  16.3805237  81.6900177  78.1221390  26.4896641  15.8058119
  77.2233810  26.6439247  16.0967941  78.4824066  27.3654518  15.6663980
  77.2852631  52.0744095  87.2521133  76.8422012  52.3225479  88.0634995
  76.5785904  51.9742775  86.6142960  83.0137863  56.8762856  47.8377342
  82.9751205  56.6681557  46.9042358  82.4043045  57.6064148  47.9457855
  41.1111717  58.3557320  66.3025208  40.6717415  58.5077629  67.1391983
  42.0208778  58.1749725  66.5391388  80.4265289  12.9365854  45.9820900
  80.7050629  12.2103214  46.5399323  80.2489319  13.6526175  46.5919991
   5.5081620  48.2858582  79.5896759   5.6670399  47.7333336  80.3549881
   4.5932078  48.5542107  79.6737900  76.1010132  24.4652729  31.2565117
  76.0645523  25.1737690  30.6139126  75.5033340  24.7411842  31.9514065
  68.9827194  14.9142027   1.9065884  69.5009384  14.4331474   2.5517747
  68.1544876  15.0948172   2.3511593  49.2308960   3.1699820   6.8612599
  49.1333771   2.4881482   7.5259590  48.6306534   3.8621972   7.1383491
  82.5306473  25.9931011  14.0079765  83.3112411  26.4874802  13.7579927
  82.4709930  26.1033974  14.9569283  58.8880196  13.1839066   7.0001264
  59.5730972  13.4076433   6.3701735  58.8668442  13.9258413   7.6045399
  13.7886610  39.0617332   3.3410435  14.3395967  38.2823334   3.2687101
  13.2341681  38.8932266   4.1028666  74.7337036  12.0412416  15.0916014
  75.5637665  11.8694210  14.6469707  74.6793137  12.9958258  15.1368046
  40.9300766  39.3972931  21.0436974  40.9330711  38.5031166  20.7021255
  40.3946190  39.3493614  21.8356705  55.9035530  52.9518242  77.6202011
  56.2953072  53.2401123  76.7957916  55.0163956  52.6822701  77.3824615
  38.8806000  59.5061150  64.9640656  38.1686478  58.8702469  65.0349503
  39.5640793  59.1657562  65.5413361  20.4726467  41.4668503  43.1312828
  20.9890728  42.0605087  43.6763535  20.7868862  41.6247063  42.2410240
  26.8505535  68.7469635  64.6594467  26.2969151  69.2314529  64.0470886
  27.2164764  68.0326385  64.1378403  81.3844833  37.8758049  81.3096542
  81.6603928  38.7852402  81.4237976  82.1417618  37.4435196  80.9148254
  57.5678940  53.2154922  63.3609390  57.0722466  53.3586273  62.5546646
  56.9383202  53.3834305  64.0621262  46.8541794  22.8578053  38.2545853
  46.3387833  22.9010105  37.4491463  46.3406334  23.3510303  38.8942986
  79.6483917  28.7946625  89.4376831  79.8361359  28.1661835  88.7405548
  79.1907043  29.5109348  88.9975586  43.0875282  47.2356682  21.8447514
  43.9237938  47.6966133  21.7782459  42.8744087  46.9948730  20.9431820
  70.5663910  19.9092350  66.2273788  71.0290222  20.3485432  66.9409714
  70.8232803  18.9904404  66.3051910   6.5603399  51.0395470  87.2405319
   6.2151384  51.0082550  88.1327667   7.4572148  50.7144890  87.3191757
  46.2541237  40.5420113  84.9574280  46.3971443  40.8738747  85.8437958
  46.0341148  39.6185417  85.0800323  30.7994709  10.6327820   8.1399012
  30.1523952  11.2824364   8.4146261  30.3797302   9.7896261   8.3105984
  23.8421040   0.8527843  83.0106125  23.6996956   1.6391153  83.5375214
  24.5350246   0.3786821  83.4703064  67.9455338  24.5695992  14.6297092
  67.8388977  25.4590664  14.9669189  67.0614700  24.3004150  14.3803024
  71.7347870  56.7094994  54.4403381  70.8862305  56.5214920  54.8413773
  71.7482834  57.6617050  54.3436089  73.4768677  11.0005398  54.9913368
  73.0505219  11.0546150  55.8466339  73.4674072  11.8991604  54.6617546
  34.1330757  36.5874939  10.8046646  33.7645340  36.8496895   9.9610634
  34.8258438  37.2263870  10.9723549   6.3263254  58.0306091  76.0533524
   5.7638717  58.7926483  76.1918106   5.8625793  57.5060692  75.4006348
  77.1786575  58.6832733  69.0858536  77.3326645  57.8493614  69.5298157
  76.9804764  59.2977982  69.7924805  38.7196503  49.2024117  54.1088142
  38.6163139  49.1171112  55.0565910  38.9651680  48.3252144  53.8147430
  13.8098412  60.4623680  37.5941772  14.7381172  60.3970184  37.3699760
  13.7017584  59.8733749  38.3409271  62.7502670  16.3986435  46.6791000
  61.9432640  16.4083252  47.1937675  62.9958878  15.4744911  46.6361656
  57.6645851  52.3618240  36.6011581  57.9224396  53.2012672  36.9820518
  58.2472076  51.7232285  37.0122261  58.7806282   8.7221880  81.2908478
  59.7127304   8.9395647  81.3037262  58.3806610   9.4138088  80.7636642
  68.8442993  50.1225815  54.1497955  69.7280807  50.4320107  53.9512634
  68.2693481  50.7062492  53.6548309   5.1763449   3.4284148  47.7438736
   4.5460567   2.8081079  48.1101913   4.7923460   3.6948903  46.9085464
   0.8475657  71.7762299   8.3354654   0.4372765  71.1504059   8.9323254
   1.7842816  71.7027359   8.5182056  21.6973724  32.4073029  88.4091949
  22.2177963  33.0992737  88.8173141  20.8001499  32.5839348  88.6920776
  40.4037552  60.7830544  12.0659685  41.3007965  61.1003914  12.1701088
  40.0107803  60.8870659  12.9325619  52.1194916  18.6484814  22.4470291
  51.7107735  19.3743420  21.9755344  51.6188240  18.5787048  23.2598610
  55.7470284   0.3622293  19.7814503  54.8606300   0.0029079  19.8190823
  55.6199570   1.2963833  19.6157951  84.4448166  26.7648563   6.3897333
  84.8999863  26.0823574   6.8829370  83.5431290  26.7301903   6.7090755
  51.5743675  13.8924656  80.1007996  51.0097427  13.2537079  79.6655731
  52.1668282  13.3636007  80.6351395  71.9821472   7.7644901  69.6623001
  71.6560364   8.5515490  70.0986710  72.2816162   7.2014990  70.3761597
  63.6929092  21.7399693  66.6791611  63.2465134  22.4630833  66.2386246
  64.5641556  22.0824356  66.8788757  49.9119911  14.1405993   1.5814229
  49.5765915  14.9990082   1.8400229  49.7718315  14.1037970   0.6352556
  80.6959915  39.3952026  15.9719648  80.4148331  39.3354568  16.8849888
  80.2821884  40.1943092  15.6457300  28.1609840  15.3306570  35.8009720
  28.1146851  14.6049042  36.4233627  29.0869350  15.3846674  35.5644798
  62.5612755  15.2293615  55.2625160  63.3824158  15.2471657  54.7709465
  62.6116791  15.9905643  55.8406677  44.4813690  25.9899082  13.3207083
  44.3858147  25.6557140  14.2125683  43.5838318  26.1391697  13.0234175
  58.7815781  18.2607613  84.2962570  59.3033829  17.7177734  83.7053986
  58.0123863  18.5042629  83.7811966  62.0200768  56.6868629  52.7576447
  62.5933495  57.0900764  53.4095726  61.2236023  57.2173653  52.7782478
  73.3808746  38.5532265  73.9495316  72.7168121  37.9716873  74.3197479
  72.8847656  39.1749954  73.4170761  74.3422241  60.9337006  26.9633198
  73.9175568  61.0677757  27.8106174  73.8885803  61.5329247  26.3705540
  24.3743000  10.5071630  69.9965820  24.2596836   9.7375612  70.5540848
  23.6802845  11.1068058  70.2704468  75.5967712  61.7930260  58.3750992
  75.3429184  60.9180183  58.0815849  74.9477844  62.3756409  57.9806328
  66.9578552  33.2483940  45.0487976  67.5681686  32.5396500  45.2523308
  66.7127686  33.6059113  45.9022293  32.5724068  57.5391693  63.6868248
  31.6508141  57.4286652  63.9206848  32.6113434  57.3192863  62.7560349
  67.7602539  42.9358368  13.1923466  68.0250092  43.8398209  13.3624887
  68.3740845  42.6279564  12.5255165  43.0776863  16.4006310   4.7557087
  42.9794579  16.3457642   3.8051443  43.0602531  15.4903612   5.0512357
  11.9938679  37.8047943  20.9021530  11.9021921  37.9659538  19.9630814
  11.5608912  38.5510979  21.3166332  50.6159477   3.9130633  56.3219337
  51.4605865   4.2830601  56.0651894  50.7477303   3.6177726  57.2228622
  60.2109108  64.4425278  52.9211769  59.8087273  65.2640839  52.6391716
  61.0700684  64.4392166  52.4991989  61.1896057  50.5278282   0.6910818
  61.3165207  50.8142128   1.5955750  60.2696266  50.7172470   0.5067257
  27.5922127  26.0900154  13.2189236  28.3052216  25.5979061  12.8118896
  26.8000946  25.7571430  12.7970495  75.8877716  33.9236641   4.1365929
  76.5569763  34.5965958   4.2613420  76.0746002  33.2719193   4.8122783
  42.4190826  32.1967239   2.6570902  42.0276680  32.7804337   2.0072355
  43.2664261  32.5946159   2.8569038  57.5363617  62.5599098  72.2749863
  57.8457909  63.3909225  71.9145584  58.2186394  62.2981186  72.8932037
  40.7056389  45.3674316  42.8347130  41.0816002  44.4902496  42.7610130
  41.2545242  45.8096352  43.4823380   9.6279211  49.1582909   4.7285743
   9.8300753  49.6511459   3.9333014  10.0395851  49.6598129   5.4323063
  43.9709435  57.0767326  28.6101475  43.5397797  57.5262146  29.3369865
  44.7831345  57.5648193  28.4746819  21.7923317  67.5891876  75.9818878
  21.2265491  68.3578796  75.9095917  21.7451134  67.3430710  76.9057007
   0.7061988   6.3422771  29.0189762   1.1582659   5.7985272  28.3738365
   0.6580351   5.7943821  29.8023796  85.6308670   4.0306463  47.8800049
  85.6559601   4.8345566  48.3989754  85.4413681   3.3408215  48.5159798
  24.6093884  66.0760193  20.2418041  24.4483261  66.8644028  19.7234020
  24.1430988  65.3827820  19.7746525  72.4464340  63.5069199  58.9430351
  72.4946671  63.3051605  59.8774872  71.6921463  63.0082817  58.6289635
  55.7719841  32.4584084  86.9791870  55.5640945  33.2207069  87.5194778
  56.3897476  32.7885246  86.3267899  79.9261475   9.3019838  20.2294617
  80.5920486   9.8886099  20.5881710  79.1078873   9.5946207  20.6307678
  53.7935600   9.2966480   9.8811855  53.1641731   8.5790644   9.9531460
  54.1787338   9.1910696   9.0112858  13.9604902  28.6346169  18.2014885
  14.8691511  28.9088230  18.0774746  13.5196218  29.4132481  18.5414906
  43.0374947  56.8962326  20.3832970  43.6864624  56.7662697  21.0748043
  42.2009964  56.9452438  20.8460121  84.8473053  24.2617760  73.7298813
  85.5048904  24.7417278  74.2333298  84.9189911  23.3594284  74.0411072
  46.3907661  37.3760223  14.4306650  45.4852791  37.6473427  14.5813589
  46.8184433  38.1554070  14.0758648  48.0787125   5.9177356  38.4003983
  47.9166412   6.4178691  39.2002907  47.3418198   6.1342182  37.8291206
  83.1646576  46.9529991  79.1116714  82.6226730  46.6061592  78.4030151
  83.9544907  47.2719345  78.6750107  79.7639923  32.2483864  85.3158340
  80.6050797  32.4519196  84.9067230  79.2383194  31.8736820  84.6090775
   6.5162663  30.7030983  59.2587776   6.0173960  29.9468250  59.5676613
   7.0524430  30.9590778  60.0092583  57.9205170  56.9761391  10.9883251
  58.8404655  57.0363998  11.2458038  57.4402351  57.3524437  11.7258596
  35.0899391  23.2996655  78.6687698  35.2123375  23.9758720  79.3350983
  34.3555832  22.7766609  78.9903564  32.6572380  50.8061028  70.5323181
  32.5187912  51.2816124  69.7132034  32.8250885  49.9039078  70.2601013
   6.0037165  55.8899269  64.8413239   5.3371696  55.2046356  64.8895569
   6.4986300  55.8004189  65.6557465  41.7325554  15.2330875  85.0252304
  41.8930702  14.2991848  84.8899841  41.0375862  15.2639055  85.6827316
  67.3670731  48.6380386   1.6092805  68.3135223  48.5723114   1.7363755
  66.9930649  48.3519173   2.4426360  42.4286804  22.0221825  18.3165245
  42.0616875  22.6382637  17.6824970  42.7621841  22.5755482  19.0227776
  24.6899643  27.0957546  86.9767990  25.6421013  27.0000477  86.9543228
  24.4666023  27.0507507  87.9064865   4.6442676  71.3990097  78.3783875
   5.3596587  71.3669815  77.7432327   5.0516305  71.7226562  79.1818390
  22.7467060  42.3526192  27.8821125  23.5617294  42.8543282  27.8982697
  23.0230408  41.4431267  27.9947815  27.4465008  15.6640205   4.3881454
  27.2784901  14.7240248   4.3217187  26.5776329  16.0649166   4.3640432
  46.0611687  69.7683029  55.4897957  45.8063850  70.0825043  56.3573189
  45.2601013  69.3900375  55.1272583  63.7974892  40.8738823  73.4539261
  64.6099167  40.9739685  73.9500809  64.0787964  40.5598373  72.5945816
  42.5526657   7.8188834  -0.1781452  41.7366486   7.8519535   0.3211080
  43.2376862   7.9748855   0.4719640   3.6397028  21.5509338  36.3346748
   4.5264416  21.5965748  36.6922264   3.2507384  22.3986435  36.5499153
   1.3660008  14.2008791  83.9916840   0.7509038  13.6115561  84.4282455
   0.8723945  14.5583048  83.2535553   0.4077143   9.7568245  24.2569523
   0.1537627   9.8443680  25.1756897   1.3510827   9.9189053  24.2527294
  86.0924606  29.4104118  15.5180798  85.4448242  30.1134720  15.4680271
  86.9287491  29.8626060  15.6293459   3.3561862  61.9825821  37.2189255
   4.0819349  61.5742950  37.6909676   3.0226157  61.2907333  36.6476936
  46.6829300  38.1384697  61.2433586  45.8390808  37.9306946  60.8421402
  47.1516647  37.3040810  61.2610168  65.0236130  70.8731842   8.9274836
  64.1384430  71.2025375   9.0831890  65.5204468  71.6431656   8.6508760
  11.9290018  64.2605743  53.8969803  11.9068975  63.4798546  54.4503441
  12.0460253  64.9858398  54.5105972  41.6743088  55.8475571  81.1916733
  40.8947105  55.9497452  80.6457672  41.3461609  55.4767075  82.0108337
   3.5273163  18.5890942  69.2967224   4.4189334  18.5102348  69.6358795
   3.2569315  17.6876583  69.1219711  36.0016747   0.3682345  74.6912079
  36.1935387   0.6484046  75.5861511  35.1641846  -0.0904112  74.7581711
  39.7976570  17.9983692  75.2127609  39.4474297  18.5813370  74.5391769
  39.2705994  17.2027912  75.1386185   9.3284464  49.3122177  44.4831734
   9.1078215  50.2143135  44.2512741   8.8451118  49.1480217  45.2929001
  37.6579590   9.1796064  80.5263138  38.2753181   9.6599579  79.9746246
  36.8415337   9.1777248  80.0266418  64.6758728  44.7868118  40.7532196
  65.5908813  44.7720261  41.0338898  64.3018723  45.5486984  41.1958084
  37.6870155  23.3236103  23.0769463  37.3046341  23.1119709  23.9285469
  37.9166946  22.4743500  22.6998062  48.3966179  25.8407841  76.4281235
  47.6950073  26.4023781  76.7576599  48.0362396  25.4491806  75.6325073
  33.8067932  67.4656677  36.1680069  34.3083229  68.1431961  36.6215096
  32.9226685  67.8263779  36.1013374  44.0070267  38.1032639  68.1984177
  43.7681808  37.1775475  68.2457199  44.7873383  38.1776619  68.7477798
   8.5681353  39.1123352  37.0400925   8.1255789  38.3241119  37.3548660
   7.8634629  39.7470245  36.9103508  34.0182495   8.9094973  87.4502106
  34.5678902   8.6696596  86.7041473  33.7578850   8.0725002  87.8347626
  30.2723026  70.9764481  65.2750702  30.7516212  71.0638123  64.4511414
  30.6741714  70.2227859  65.7071915  49.7747002  11.5109863  83.7112885
  49.2192307  11.3610821  84.4762802  50.6474876  11.2351732  83.9912949
  34.2986145  46.2238617  49.1150169  34.0848236  47.1101303  49.4066620
  34.9980278  46.3452072  48.4728889  63.8646584  57.3190002  81.0992966
  64.2224503  57.6866760  80.2911911  63.1323395  57.8943214  81.3205261
  55.4161034   4.0766063  30.1264400  56.1205254   3.5970557  29.6904945
  54.6168327   3.6212986  29.8616829  77.6417923  47.7419739   8.5473938
  76.7381821  48.0450554   8.6360741  77.5677185  46.7923317   8.4529152
  15.6949501  54.9909973   2.3059926  15.1743526  55.7937584   2.3339968
  15.9992247  54.8713493   3.2056220  48.8477402  20.9965630  34.7647018
  48.8035698  20.6589088  35.6592827  48.1183243  21.6135349  34.7052841
  22.9622688  11.0555859  81.4177780  22.7898521  11.9953957  81.4748840
  22.7707672  10.8318520  80.5070038  61.0616646  53.8710098  27.0584850
  60.1744461  53.8852768  26.6994953  61.0547791  53.1477089  27.6853943
  40.5450935  70.9089432  29.9143562  41.2609978  70.3188324  30.1499157
  40.3623505  70.7092514  28.9962292  31.9659863  62.3492241  13.4466581
  32.1328316  62.2203140  12.5129690  32.0261269  63.2962494  13.5721960
  83.2900772  44.9248734  66.5023880  83.8943787  44.2415009  66.7922974
  82.4888916  44.4543037  66.2723923  -0.2249267  62.0846443  56.8735847
  -0.2860562  61.5374031  56.0906296   0.5751405  62.5947456  56.7474022
   8.1739140  44.5706024  79.1342239   9.0305452  44.1571655  79.2413864
   8.0915909  45.1507378  79.8911285  85.4652710  32.0453911   2.1996458
  84.7568054  32.2715645   1.5970253  85.5585098  32.8160248   2.7597020
  72.9596786  59.4093399  46.7942963  73.8217621  59.0534172  47.0096207
  72.6953125  58.9359322  46.0054855  12.4371052  66.7347641  30.1842537
  13.2263384  66.7947388  30.7225342  11.7638607  66.4091949  30.7817287
  22.4459305  30.4977875  86.2304459  22.4917603  31.2854099  86.7724609
  21.7058640  30.6535530  85.6436996  41.4946632  58.1716270  39.1449165
  41.1571960  59.0509071  39.3158379  42.3174591  58.1319160  39.6324234
  66.0627899  54.4776344  72.8640213  65.4826889  54.1657410  72.1694336
  66.5021667  55.2390175  72.4852448  44.3212547  52.2683563  26.7812996
  44.5047684  53.0849533  27.2457619  44.0098343  52.5473404  25.9202423
  12.6759510   7.5877385  63.6026421  12.2196894   7.4230113  62.7774620
  13.6047068   7.5569954  63.3730812  35.9437561  66.6396637  24.3038979
  35.3869629  65.8778000  24.1433334  35.5079498  67.1091919  25.0151272
  50.5411911   6.0384569  61.3579865  51.0945969   5.2757726  61.5261841
  49.6938629   5.8082919  61.7391548  40.0596809  13.4157925  49.7226830
  40.2980080  12.7546692  50.3725662  39.9648132  12.9255924  48.9060211
  66.7238007  13.6817694  10.5929203  67.1822739  12.8974199  10.2915335
  66.9904404  13.7786379  11.5071154  30.4906311  42.3124771  78.6561279
  31.0996532  42.1517830  77.9353638  29.6569633  41.9560204  78.3492584
  43.8042030   5.6182475   8.1655436  44.1941147   6.4904585   8.2242823
  44.1289825   5.1580873   8.9394951  84.1108170  40.4103012  51.1379776
  83.4674072  39.9808846  50.5741920  84.8482971  40.6004562  50.5581512
   6.5776286  37.4379272  51.8693008   6.6790791  37.9678192  52.6599693
   7.4457884  37.4405975  51.4661598  68.6896515  50.5611343  79.7702560
  68.1862640  50.4403038  78.9651260  69.1026077  49.7114525  79.9243317
  86.1674881   0.3941992  11.5469027  85.3721085  -0.0769532  11.7951307
  85.8532944   1.1487542  11.0487471  33.0190926  19.0223408  86.7945175
  33.5458298  19.0778275  85.9972076  33.6483231  18.8063030  87.4827271
  53.0001526  31.3530674  52.5777206  52.5155144  31.3664513  53.4030571
  53.3540993  30.4654484  52.5221786  61.9855537  38.7240219  25.4522266
  62.0909843  38.8964386  26.3878498  62.0054550  37.7696991  25.3808117
  73.7295761  71.2141113  76.8020935  73.9559174  70.6564255  77.5463943
  74.5551224  71.6310959  76.5554581  11.9891558  69.4367752  55.8825798
  11.4809875  70.1864471  56.1923943  12.8328304  69.8089523  55.6258202
   7.4283919   5.3292551  26.3081360   7.5607276   5.0141344  27.2022381
   7.3941650   4.5340014  25.7765064  30.5823097  15.6399240  77.1596680
  30.8270035  16.5531788  77.3090820  30.9385242  15.4348707  76.2952118
  46.2230988  53.3186798  70.6095200  46.6685944  54.0791359  70.9829788
  46.7065277  52.5663528  70.9508820  61.4169769  47.1307869  28.5700951
  61.8015938  47.1328239  27.6935692  62.1581841  46.9793625  29.1565380
  26.2104340  63.0968246  24.9746742  25.9798355  63.7763786  24.3412170
  25.5698795  63.1983337  25.6786747  73.0989075  61.1971054  89.1150436
  72.3014908  60.9110451  88.6694794  73.6889877  61.4560814  88.4072495
  15.1549358  42.1559792  16.6195869  14.4787588  42.3441963  17.2704239
  14.7269545  41.5749588  15.9907150  74.0527954  25.4527264  80.8683853
  73.4261932  25.8392849  81.4800873  73.7186508  24.5699921  80.7091446
  25.9801159  64.9604263  39.6759758  25.4066963  65.7249298  39.7303581
  25.8163071  64.4799576  40.4874840  82.7754059  51.4465828  32.3033600
  82.2645874  50.6399879  32.2347984  83.6868439  51.1542358  32.2958794
   9.1598301  62.5651474   0.7031099  10.0399017  62.8852768   0.9011513
   8.6646366  62.7117653   1.5090364  35.7204170  61.4594727   2.8620796
  36.6537743  61.5562515   2.6731198  35.6527214  60.6156120   3.3087916
  67.0690384  54.9855347  83.2314682  67.1098022  54.1677017  82.7357712
  66.1419525  55.2236443  83.2248917  68.5983505  11.9219875  80.6908112
  68.5728226  12.2061443  79.7771225  68.9686737  11.0399685  80.6570740
  76.9785156  65.4034042  10.1039419  77.5206604  65.2828140  10.8835335
  77.2751465  64.7239609   9.4984741  43.6566620  23.8390789  26.1688194
  44.1636086  23.1379414  26.5782642  44.3100967  24.4920158  25.9179573
  82.5990829   8.7684069  43.3615875  83.1207123   8.8937874  42.5688629
  81.7118073   9.0216999  43.1070061  73.4721298  27.5667839  70.4128418
  74.1711121  27.0993671  69.9554749  73.8168411  27.7103424  71.2942047
  30.0350056   6.0755730  75.7651749  29.1193256   5.9333725  75.5252991
  30.4715939   5.2536006  75.5416031  43.4451485  53.1763306  38.5008202
  43.1529045  53.9410286  38.0047684  44.1789474  53.4970741  39.0251274
  67.1406631  61.9211121   9.6575441  67.5829315  61.2702179   9.1125965
  66.2081604  61.7486572   9.5274248  71.0677261  15.1213655  56.6712227
  71.3723831  14.3379679  57.1291580  70.3488464  15.4500141  57.2110710
  31.8912010  49.0622711  40.5690231  31.5951786  48.5882034  41.3461075
  32.5834465  48.5123062  40.2021866  77.6777267  24.0362625  61.1933022
  78.2524414  23.2740078  61.1233406  78.1595840  24.6493931  61.7483826
  65.5913239  49.9852829  33.8037071  66.2038193  50.1182785  34.5271645
  64.8647766  50.5791054  33.9927559   9.9457264  65.0127487  12.5916243
   9.9745579  64.9871368  11.6352015  10.8444757  64.8266907  12.8634052
  60.1299515  14.6005449   4.8433037  60.1563339  14.2150040   3.9675786
  59.9744263  15.5325184   4.6901093  27.1973095  19.1641235   3.4054198
  27.7189121  19.0592995   4.2011423  26.6208801  18.4000282   3.3945010
  28.8132858  35.2743950  10.6481066  29.1405525  34.4091301  10.8939686
  28.7054062  35.2286110   9.6981087  47.5620804   6.5284591  16.2085857
  48.3811913   6.8976202  16.5387497  47.4712601   6.8954301  15.3292027
  22.1934853  52.4925652  53.6310577  22.7161293  53.1573448  53.1825676
  21.5662670  52.1959305  52.9716377  77.6567307  30.4559345  71.4358521
  77.5483551  29.5781250  71.8018265  78.0729446  30.3114395  70.5860825
  39.9949036  26.3532448  75.7697220  40.7963371  26.3749084  76.2926636
  39.3665848  25.8785839  76.3139191  31.8982430  71.3787384  63.0299187
  32.1727295  72.2868042  62.9021988  32.4603386  70.8737183  62.4423485
  66.4510880  37.9685783  77.8352356  65.8101425  38.4915619  77.3536682
  66.0907364  37.9028854  78.7195740  10.3233910  59.2527542  73.7393265
  10.7422981  60.0135689  74.1417084  10.1038189  58.6826057  74.4761810
  56.2599525  19.0934391  36.6116562  56.3404083  18.4293652  37.2963219
  55.4342461  19.5375328  36.8045731  74.0697098  45.6809311   1.4983819
  74.4861145  44.9418983   1.0549108  74.7965698  46.2531776   1.7442192
  57.1834259  43.5946960  69.1616745  57.0596046  44.4734955  69.5202942
  57.8864517  43.2171516  69.6903076  85.5882187   7.7276506  53.5821152
  86.0138092   7.2210903  52.8903732  85.3082275   8.5347109  53.1502686
  64.4479904  30.8834038  71.6046524  64.5197678  31.5220776  70.8953094
  65.3224869  30.4999046  71.6710510  71.4735107  69.0773468  42.3686829
  72.2789459  68.8844376  41.8887863  70.8531036  69.3535461  41.6941185
  53.6167717  12.2328100  81.3915100  54.5707970  12.1813917  81.3329849
  53.3354912  11.3268700  81.5195160  45.5603828  57.5603256  19.8665638
  44.6690216  57.5044746  19.5221996  45.8714752  56.6551208  19.8738918
  83.9456100  71.2370377  33.9701729  83.8002243  71.5238876  33.0686111
  83.5472336  70.3676910  34.0121155   9.0674200  32.0228691  29.7646580
   9.0029097  31.9027462  30.7120972   8.3914042  32.6684151  29.5584946
  37.7456894  28.1237907  41.1024818  37.6168709  28.7282200  40.3715210
  36.9096870  28.1300468  41.5686302   0.7487654  69.8185654  76.7224808
   1.2097136  70.5757523  76.3613434   1.1811459  69.0628662  76.3247299
  35.1314163  36.5948372  41.6395302  36.0631981  36.6245422  41.4224319
  34.7278366  36.1388321  40.9010048  38.9917831  26.0422726  10.2675333
  38.2583237  25.4589233  10.0726604  39.5047798  25.5709763  10.9239960
  43.5022163  40.9721718  35.0199890  43.7922821  40.1333313  34.6616058
  43.8297386  41.6236610  34.3998909  83.7667465  64.0171127  20.6233215
  84.4294052  63.8888474  21.3020439  83.0193710  64.3952179  21.0866776
  37.5929146  28.0457802  75.8862762  37.6269608  27.9949150  76.8415146
  38.4598427  27.7581272  75.6000595   2.9446175  20.7531223  33.6758919
   3.0559738  21.2813892  34.4663162   2.0542300  20.9461155  33.3823013
  76.3708801  39.6040764  82.9208832  76.2266006  40.3263702  82.3095703
  75.5297852  39.4939995  83.3643646   3.0058653  12.3595142  82.2845078
   2.3073864  12.9518089  82.5629807   2.5522506  11.6552219  81.8214340
  43.0356140   7.1826205  61.5212555  43.5516701   6.5361609  62.0029259
  42.2929192   7.3716812  62.0947418  11.4982567  30.5846653  79.9225769
  11.3781223  31.5313663  79.8480301  10.6205111  30.2448196  80.0966415
  82.5201721  12.7874947  79.2561417  82.0071487  12.1178093  78.8038559
  81.8672943  13.3942671  79.6051559  17.8686943  19.2353439  78.9953537
  17.7846699  19.9477673  78.3616104  17.5891094  19.6196709  79.8262253
  41.3492546  54.2072067  78.5450363  41.3977585  54.2182121  79.5009460
  41.2060509  55.1218834  78.3019409  24.9258499  54.1398621  42.7594566
  24.5652618  54.9068489  43.2043610  24.2217236  53.8448563  42.1820412
  70.0428848  18.3791847  44.4602928  70.9586868  18.6434021  44.3724213
  69.5972443  19.1630020  44.7816467  22.7385941  23.2343273   4.0435982
  23.4081326  23.6878147   3.5314467  21.9109344  23.6054382   3.7378392
   1.4529064  42.8542595  22.0561523   2.0747299  42.5822639  22.7311230
   1.2758623  42.0562820  21.5580330  43.9984016  49.2467117  58.5163155
  44.5566826  49.7328949  57.9095383  43.1068230  49.4982224  58.2753525
  57.0775375  51.9178238  25.3146172  56.2153358  51.7396812  24.9389801
  56.9609909  51.7851295  26.2553825  51.3892670  49.6620407  58.4727859
  51.9492989  49.6027336  59.2467880  50.7915764  48.9185982  58.5520821
  58.0778656  36.9910469  83.7362061  58.1865807  36.7456512  84.6550064
  57.8492355  37.9201851  83.7618942  64.9954071  18.5481339  70.3013306
  65.4580307  19.1639919  70.8696060  65.2914963  18.7684097  69.4181366
  54.7123947  48.0508041  61.4099426  55.6483269  47.8734283  61.3161469
  54.2884827  47.2197113  61.1959000  57.5715294  50.0535812  47.2135925
  58.4697800  50.2596474  47.4722824  57.2773285  49.4118996  47.8600616
  58.6227188  59.6466255  69.7532120  58.1387215  59.5755424  70.5759659
  59.2303200  60.3725929  69.8947144   9.8132353   1.1091398   8.9848299
  10.0087309   0.9270213   9.9039850  10.2184229   1.9601204   8.8178358
  86.4944077  67.5609131  86.0955963  86.9143982  68.1064987  86.7605591
  86.2373962  68.1758957  85.4085846  26.2636223   2.0396054  12.2509956
  27.1129494   2.4162557  12.4812317  26.4764576   1.1998693  11.8438406
  76.8721237  57.9200592  40.3692207  77.6224213  58.3226776  39.9319763
  77.0614395  56.9818840  40.3545341  67.9420166  32.6884651  50.2335739
  67.1929474  33.1888847  50.5571480  68.7060547  33.1896858  50.5186348
  56.8759232  66.9606400  85.8082809  56.7986679  67.1948242  84.8833923
  56.9510536  67.7999039  86.2623978  39.4202652  66.6121979   0.3418474
  40.2783928  66.8787079   0.6717211  38.8890457  67.4072113   0.3864467
   4.0600586   2.9568996  21.1327877   3.7049308   3.7427118  20.7173176
   3.3338511   2.3333549  21.1259708  50.4386444  16.7549400  53.0417175
  50.7378731  16.0109749  52.5190239  49.6478767  17.0583515  52.5957870
  58.3667870   0.2224947  49.7585144  57.4797363   0.0872425  50.0917969
  58.5931435   1.1109253  50.0336266  75.4543839  39.2459908  75.4837875
  74.5662384  39.0914764  75.1619873  75.9443130  39.5247955  74.7101746
  16.5113735  61.4247208  44.4748535  17.1159115  61.0551720  45.1184349
  15.7034197  60.9246292  44.5904121  39.4427490  59.5343246  68.4800186
  39.6951942  60.4565735  68.4356842  38.5710373  59.5053940  68.0856628
  23.5030727  27.7983952   5.7784972  22.5477352  27.7865524   5.7200003
  23.7984314  27.4187927   4.9509120  68.3522339  70.4821014  25.3527794
  67.8299637  69.6815643  25.3016720  68.6073608  70.5432663  26.2733231
  57.2419662  30.0115871  12.7679901  57.1275635  29.9936028  13.7181587
  57.9059486  29.3444347  12.5940228   0.8197181  21.9937611  82.8901749
   0.2604193  22.1518269  83.6507187   1.2846184  22.8201141  82.7588730
   0.2628628  30.0831261  58.9206352   0.1776966  29.6832428  58.0551453
   1.1126180  29.7810955  59.2414551  64.0022659   0.2280687  66.0339661
  63.8457603  -0.1562831  65.1714020  64.3669205   1.0933386  65.8480301
  61.4355431  65.1530075  82.5417709  61.9089661  64.5754395  81.9430084
  60.7548447  65.5530243  82.0005951  78.3053131  49.6746979  46.9790039
  77.5085754  49.9948921  46.5560150  78.1769638  48.7285500  47.0465469
  52.1970253  68.2606125  33.4985619  51.9888878  69.1909866  33.4131012
  53.0406075  68.1623535  33.0570297  85.1060867  51.8579712  20.1664791
  85.5896530  51.7774582  20.9886208  84.6294250  52.6839485  20.2488689
  27.0790462  50.6357002  30.4297657  26.7793446  50.2880440  29.5897961
  26.8965893  51.5740013  30.3794537  85.6773071  27.1305237  26.5910378
  86.3324585  26.5976315  26.1404381  85.2827454  27.6609821  25.8988171
  85.4103928  35.2503929  37.4493484  85.8753510  35.0553017  38.2629776
  85.6339798  34.5252266  36.8659286  32.2957764  10.1387615  78.9332504
  31.7175350   9.5367136  78.4648361  32.6690674   9.6114998  79.6395645
  80.7679367   8.5962400  69.4073868  81.6781082   8.6600723  69.6967697
  80.7631912   9.0021906  68.5405426  61.7615242  11.3413219  41.8626671
  61.7080040  10.5801754  41.2847176  60.9266586  11.7934999  41.7411461
  73.8962936  41.1549606  63.8900337  73.2335281  41.5020866  64.4870911
  73.7889481  40.2050705  63.9391518  84.8528442  27.2799587  13.7751074
  85.2552338  27.3233738  12.9076786  84.9886017  28.1518688  14.1460199
  63.9005623   6.2382698  53.2365189  64.5186539   5.5196400  53.1032257
  64.4147110   6.9189820  53.6706963  61.3315773   5.9645443  53.1996841
  61.0080757   6.8298349  53.4503860  62.2847252   6.0472541  53.2296600
  69.6401749  28.7662163  82.2888870  69.7720871  29.4412251  82.9546127
  70.5243225  28.4800720  82.0594559  48.5246887  27.6861858  86.6964493
  48.3655090  28.6187305  86.8422394  47.6507149  27.3020191  86.6270065
  71.8167877  34.3837585  73.9663467  72.5670090  34.2171211  73.3957062
  71.2298203  33.6434517  73.8125992  77.4469147   6.4798799  67.8130722
  76.7781448   5.8322301  68.0356216  78.2658539   6.0958576  68.1262817
  31.3191986   8.1880436  80.9564438  30.7714367   8.2825937  81.7357101
  30.7718582   8.5068874  80.2388153  35.7045021  51.8327179  50.4551163
  36.1510582  51.5867195  51.2652435  35.8959541  51.1168556  49.8492165
  19.6883297  20.9754906  25.1968613  20.5830212  21.2565269  25.0050869
  19.2803192  21.7382698  25.6066494  83.8582764  43.3540382   5.9828339
  84.2668686  42.6214218   6.4438729  84.2211380  44.1337776   6.4030366
   5.9504013  47.4825020  86.7472076   6.7398605  46.9798813  86.9481125
   5.9491677  48.1930504  87.3885727  33.6833763  38.7084846  42.6130219
  34.4410172  39.0008240  43.1197281  34.0127258  37.9778290  42.0896645
   9.9402704  54.6131744  70.8681641   9.2490549  54.1489067  71.3403015
   9.8244467  55.5306625  71.1152115  50.5652771  38.1662636  25.1861286
  50.9741325  38.3450241  26.0329552  51.0955963  38.6544418  24.5563068
   2.9880393  70.5442276  45.8678474   3.4426262  69.9270325  46.4411354
   2.4800997  71.0949478  46.4636154  72.9284363  52.7270241  85.1939163
  72.2034073  52.3725433  84.6792145  72.7052307  52.5144844  86.1001358
  45.7169952  61.8251419  67.0175095  44.7642021  61.8589973  67.1028137
  45.8674049  61.5992775  66.0995789  83.5559082  33.5421486  40.2898140
  83.7885513  33.1576958  39.4446487  83.7246399  32.8456421  40.9243546
  32.9512787   4.7033591   2.8552802  33.6400070   5.3344660   2.6464927
  33.0868607   3.9869590   2.2351027  26.9061527  23.7742043  70.7120667
  27.5833759  23.4014111  71.2765350  27.3334084  24.5154686  70.2828674
  31.1933537  36.9335976  60.9745255  30.5585327  37.3313217  61.5703850
  30.7902164  36.1058273  60.7127914  19.9924164  36.7879601  25.3546753
  19.1195393  36.4421196  25.5409813  20.2550488  37.2245407  26.1650162
  41.4016075  66.5188446  18.4792557  41.6411247  67.4440918  18.4264240
  40.4822655  66.4939041  18.2138863  57.5981598  29.5040436   5.2921195
  57.6593056  30.1485958   4.5871043  58.4422760  29.5583553   5.7401681
   9.3915977  36.6360130  88.6581497   9.8503819  37.3630486  89.0790634
   8.6669445  36.4350853  89.2503815  38.5466881  57.8057098  51.4045639
  38.3367500  58.5451775  51.9749565  38.7985840  57.1040649  52.0049629
  13.1546516  62.3404427  33.8136940  13.1788120  62.4296532  32.8609657
  13.9704571  61.8902702  34.0328636  49.4699402  43.3094864  75.9826889
  49.5035248  42.5141525  75.4511337  48.5623970  43.3587227  76.2829742
  72.8572922  55.6496124   6.8866844  72.1560516  55.1464539   7.3006005
  72.8733292  56.4776688   7.3665733  32.8381042  24.1727009   2.5804641
  33.6625633  23.8095531   2.2570078  32.5388107  24.7500954   1.8781328
  69.8396683  49.4175835  47.6681786  70.3051682  48.6165009  47.9086151
  70.4404831  49.8767624  47.0813217  72.1081696  27.6501865  30.0971317
  71.3678513  28.2568588  30.0868111  72.6912842  27.9721699  29.4097233
   1.8058316  58.9414558  20.2548332   2.4793806  58.4361343  20.7100372
   0.9846668  58.5051460  20.4818859  75.0250473  33.7547913  69.9167709
  75.3789825  34.2867241  69.2040253  74.6125336  33.0106583  69.4782257
  21.8006897  42.3594818  73.2764435  21.4444504  41.5049324  73.0334091
  21.3665295  42.9763412  72.6871872  21.1459637   3.8931067   5.4694071
  22.0114079   3.5965950   5.7510490  20.9125309   3.3037317   4.7522054
  23.1683006  67.4831161  22.6339340  23.0203590  68.0509262  21.8776722
  23.0192337  66.5979156  22.3016205  17.2572708  55.2244263  15.5217543
  17.6240273  56.0971870  15.6632137  17.1398373  54.8683434  16.4024620
  62.5108032  61.1954346  58.4906235  62.6611710  61.4421387  57.5780678
  63.3761024  61.2425117  58.8971596  70.0276871  68.0391464  26.8552990
  69.6426315  67.8684692  25.9957428  69.9612274  68.9878922  26.9634075
  55.7684860   6.0839009  75.5270538  55.1833038   6.7642827  75.1940765
  55.2565231   5.2773352  75.4672241  18.8408718   5.4906654  56.6826057
  18.1662846   4.9046159  57.0256958  18.8713989   6.2135820  57.3092575
  71.0256042  41.8606567  83.1189880  70.7770462  40.9966965  82.7903137
  70.1995468  42.2597923  83.3920441  39.5964775   1.8889861  68.8261261
  40.3339653   1.9491867  69.4333496  39.7745209   1.1025670  68.3102951
  46.8881340  56.8016434  12.1717720  46.2536011  57.5173836  12.1354733
  47.4576874  56.9479561  11.4165039  51.1256371  66.5188904  38.6186523
  51.4868889  67.2025909  39.1828270  50.4042511  66.9459686  38.1566582
  15.2322540  28.8332481  80.8534393  14.8613052  29.3506546  80.1386566
  14.5943089  28.9125366  81.5626450  57.8022003  64.2576218  59.3457756
  58.7383003  64.1025085  59.2197495  57.7131729  65.2105560  59.3307571
  58.4784584  15.4635792  75.2331467  58.9147339  15.4486437  74.3812790
  58.1024857  16.3417206  75.2943268   4.2275739  49.7938423   9.8390102
   4.4892955  50.4753418  10.4581127   5.0203409  49.2743073   9.7054605
  10.2424250  71.2335739   1.8849454   9.2899103  71.3165894   1.9302853
  10.5340500  71.3224487   2.7922981  70.7641602  34.8673096  19.7263050
  70.0956192  35.5307236  19.5555534  70.5687180  34.1650925  19.1058788
  76.7599030  33.8083954  51.6568680  76.9153976  33.2329750  50.9079018
  77.1949921  34.6283836  51.4233131  31.3215599   1.8391105  88.1793900
  31.2211781   1.7524171  87.2314301  31.4316578   2.7789543  88.3236313
  55.6122627  35.8953209  45.3515167  56.4958763  35.7097244  45.0336876
  55.1978607  36.3800507  44.6376991   6.4796567  48.3245659   9.7705593
   6.5044012  48.0454712   8.8552847   7.3981628  48.4557228  10.0058813
  14.7419767  44.5245972  86.4034195  14.8594780  43.8473778  87.0696030
  13.8032389  44.5163879  86.2165070  45.2725143  10.7627735  53.9783020
  45.9263763  10.2650795  53.4873886  45.2072182  10.3088741  54.8185081
   8.3124237  58.4150391   0.2550603   9.2491627  58.3626671   0.0652996
   7.9446425  57.6211739  -0.1332026  65.6514282  33.6503448  57.3278885
  65.4040222  33.4252586  56.4310265  66.3775635  33.0607414  57.5311737
  57.7646446   8.9829473   7.9738169  56.8199959   9.1264858   7.9166031
  57.9207611   8.7808867   8.8963299  28.0192871  19.6901913  10.9614620
  27.3979549  19.9751053  11.6315374  28.4138184  20.5010452  10.6403809
  25.9845905  23.5027332  14.8845377  25.0823956  23.5814209  15.1945152
  25.9395981  23.7309933  13.9560423  10.0052996  49.7028389  75.0423126
   9.8158970  49.2559586  74.2172928   9.2313814  49.5454025  75.5831451
  15.0635185  28.7251015   9.9602194  14.2967720  28.3039341  10.3487425
  15.8099022  28.2663517  10.3458242  19.9826298  33.4409332  73.5434036
  19.5700207  32.5821152  73.4516754  20.5165787  33.5356026  72.7546234
  19.2126217  35.1020699  77.6357193  19.2687531  34.3958054  78.2793579
  19.6625843  34.7588921  76.8637161  33.6442604   4.7505064  22.9597912
  33.0141487   5.0007496  23.6354885  33.4359283   3.8368759  22.7645779
  45.2011375  20.3065128  83.4802628  45.7333336  21.0556068  83.2122040
  45.5123138  20.0942783  84.3602448  63.4988174  43.3099747  60.0412216
  63.4614601  42.6478882  60.7314987  62.7139320  43.1531944  59.5162392
  73.1922379  44.3913307  30.5362740  73.6681213  45.1503677  30.8733711
  73.8772507  43.7773705  30.2716026  81.1952591  33.8643112  41.9594154
  80.8391418  33.8384857  42.8475304  82.1365891  33.9868774  42.0822906
  38.7607193   4.0248947  46.9498367  38.0627365   3.4780500  46.5892677
  39.1391563   4.4635363  46.1878586  76.0233688  69.4188995  24.4854355
  75.3742523  69.8712845  23.9467068  76.8648224  69.6534042  24.0940323
  66.4276352  21.4624557  22.3495979  66.5994034  22.1855793  21.7464256
  66.9845581  21.6444874  23.1065216  70.5878830  39.4360046  46.1164856
  70.9240875  39.9208412  45.3627434  69.7422409  39.0956192  45.8244972
  61.7692070   9.6830082  16.7370968  61.1030464   9.0420237  16.9852924
  62.5835876   9.1811514  16.7031116  54.8219986  36.3934860  27.2406082
  54.0821114  35.8201332  27.4407578  55.0956535  36.1331749  26.3610725
  51.6943855  46.7648125  64.1821594  51.1593590  47.2496300  63.5537224
  51.0658455  46.2377129  64.6754456  66.9303207  21.0292854  12.5816879
  66.4607849  20.5147934  11.9251356  66.2685471  21.2370987  13.2413054
  58.7598228  66.3942490  21.6134815  58.7346268  66.2369995  22.5573406
  58.7511024  65.5196228  21.2246418  57.4718475  53.1834602  47.2983894
  58.1747932  53.1485481  46.6496391  57.0264282  52.3403740  47.2145195
  74.6011276  59.2717590  73.9682770  75.1879196  59.1439438  74.7136383
  75.1606979  59.6366463  73.2827301  72.5862045  31.5194912  58.4931679
  73.3218536  31.0389290  58.1135483  71.8700104  31.3915825  57.8711205
  74.1149979   2.5084982  75.2386475  74.6603470   2.5007994  76.0252609
  74.6550522   2.0893116  74.5686798  27.7795086  64.1176453  28.0674114
  28.4395638  64.2130661  28.7540379  26.9433346  64.1618729  28.5311871
  13.7145596  59.7993736  30.6926804  14.5824661  59.4527168  30.4857998
  13.8855934  60.6580048  31.0796337  71.1310654  59.3845520  53.9215775
  70.2350388  59.7150917  53.9857674  71.3598557  59.4904823  52.9981766
  13.4515247  66.8198166  13.4947042  14.1662016  67.4360123  13.6552200
  13.8130217  66.1912689  12.8698168  79.9938660   3.8775387  42.4110680
  80.8880005   3.8004167  42.0781746  79.8687134   3.0932181  42.9453049
  59.9815178   0.5067850  65.3819199  59.1571083   0.0291976  65.4740906
  60.4359474   0.0640575  64.6651764  51.8636360   5.2797537  25.2828465
  51.9753418   5.2884769  24.3322258  51.3907394   4.4668159  25.4609871
  70.0622635  40.8885307  30.4759884  70.9113693  40.7344437  30.8901253
  70.2727203  41.0794678  29.5619411  17.4890709   9.1971569  67.3640747
  16.5725021   8.9661989  67.5150452  17.8083324   8.5274496  66.7592621
  77.7051849  55.6935120  61.7394981  78.1269684  55.7160950  62.5984612
  77.9148560  54.8264389  61.3924332  86.7054901   5.5425048  88.5047455
  86.6041489   6.4275737  88.8549042  86.5779419   4.9696884  89.2609482
  18.8075371  57.8692513  10.1701250  18.1421051  58.2995110   9.6331787
  18.3096313  57.3071632  10.7637396  70.7445145   8.7739086  10.6952000
  70.8520966   9.7237339  10.6452971  71.1447754   8.5310659  11.5300951
  39.6155205  51.3404160  34.5387955  38.8830681  50.7648048  34.3187523
  40.2833519  51.1395569  33.8831367  84.7493668   8.9898500  22.6861172
  84.4840088   9.6263294  22.0222549  85.4161301   9.4445038  23.2008419
  81.0907745  68.6282272  22.4330654  81.4490814  69.4621048  22.7372131
  81.8396301  68.1711349  22.0502892  43.7318954  11.0726347   0.7082543
  42.8259506  11.3720684   0.6318510  44.2353897  11.8709717   0.8675801
  69.1956253   6.5590763  55.6537285  70.0368500   6.8717580  55.9866142
  68.5458755   6.9572654  56.2329521  77.5857925  12.1514521  87.5640259
  77.2951584  12.2431822  86.6566391  76.8297119  11.7838688  88.0216980
  54.5750923  51.1972427  12.0806065  55.0773354  51.6281471  12.7722025
  55.2381058  50.8518333  11.4828329  12.5595999  68.1324310  60.4440880
  12.2146530  68.6056671  61.2012482  11.9067717  68.2702332  59.7577515
  57.9713020  37.1430702  71.2178268  58.4514961  37.5210114  70.4810715
  58.4379692  36.3313599  71.4167709  84.5334320  13.7806072  10.3022490
  84.1982269  13.5873470   9.4267387  84.3232498  14.7041216  10.4407253
  20.0863438  48.0264320  28.9128990  19.2505455  47.6536751  28.6323185
  20.2997704  48.6708717  28.2380848  68.3109436  50.9369392  77.1079407
  69.2285995  50.6681671  77.0642853  68.0443420  51.0282593  76.1931610
   2.8822436  65.5658722   0.1810980   2.8641393  66.5193710   0.0990163
   2.6084442  65.3978500   1.0827829  54.7755394   2.0377464  60.4616776
  55.3879547   1.3359294  60.2411537  55.0908813   2.3762798  61.2996445
   9.8515215  22.1550751  75.0775452  10.4469213  21.4062271  75.1085358
   9.0736113  21.8241405  74.6285782  29.0094376  70.5958252  18.8225441
  28.5817509  70.8075333  19.6522980  29.1418705  71.4435425  18.3982067
  53.3668633  11.9873447  30.2396622  53.8842888  12.4582376  30.8929329
  52.5964508  12.5384016  30.1017113  55.6439590  60.6346359  26.6851749
  56.5647392  60.4781418  26.4756470  55.6636009  61.0836678  27.5302887
  32.4805374  38.1515503  57.2213440  32.3245354  37.2462692  56.9523468
  32.9438477  38.5447197  56.4817543  19.8087845  56.3859520  42.9852715
  20.0440903  55.5292206  42.6290741  18.8708248  56.4676857  42.8126907
  66.4744720  70.7981415  48.2843513  67.2296677  70.3823853  48.7003517
  66.6038437  71.7346268  48.4343224   6.0428128  59.9688148  80.1152191
   6.6527858  60.7053719  80.0746002   6.3248763  59.4661064  80.8793869
  65.7841187  19.0187454  78.0565643  65.2182159  19.7349777  78.3446655
  65.2305679  18.4938736  77.4783554  55.9617958  61.1457329  70.5492477
  55.8618813  61.8243790  69.8816528  56.5416985  61.5363655  71.2029648
  39.6745071  10.8065948  68.1558075  40.4615746  11.2854271  67.8960495
  38.9623604  11.4356489  68.0401764  21.8578510  37.8851013  62.6437416
  22.1843243  37.7336502  61.7567749  20.9119797  37.7546577  62.5763397
  58.7333832  16.5387974  31.6758633  58.0245132  16.2039242  31.1266899
  59.2993546  17.0179367  31.0706062  40.4559517  10.3350821  18.2178516
  40.4770126  10.2639647  19.1721725  40.0484619  11.1847801  18.0499306
  59.6074791  64.7649841  80.3938446  60.1914749  64.3607941  79.7521210
  59.0333710  64.0532837  80.6769028  38.7739639  23.8503113   6.8993230
  38.1525078  23.8937988   6.1725955  38.2269707  23.8794708   7.6842947
  47.7266045  40.5777397  22.2490387  47.4865150  41.0406151  21.4463329
  48.6705322  40.4387321  22.1721592   0.5838195  38.5007362  82.8232193
  -0.2861046  38.4754257  83.2217407   0.5774733  39.2918091  82.2843323
  44.3711929  18.0795269  75.4732208  44.8672638  17.8305035  74.6933899
  44.8324890  18.8448830  75.8162460  46.6119919  57.3116264  44.2341499
  46.2295303  56.4661140  44.4688072  47.0868759  57.1421547  43.4205170
  82.2132263  27.3464909  58.5722923  82.1267166  27.9369488  57.8238907
  82.4630661  27.9165573  59.2995033  18.9939861  37.7411804  69.6700363
  19.7679863  37.3023529  69.3170776  19.3035793  38.6134644  69.9139786
  17.6919689  54.7785683  61.8334351  18.0687408  55.6424789  62.0005836
  16.8705902  54.7763252  62.3249245  36.1809807  54.0502853  37.6202850
  35.5810623  53.7439499  36.9402199  35.6361160  54.1269264  38.4035339
   6.9911904  67.1547470  52.8582649   6.3006039  67.7363358  52.5403404
   7.2201042  67.5033417  53.7198410  51.3754501  43.6543694  51.0350266
  51.2248268  44.1156425  51.8601151  51.8544006  44.2819443  50.4937477
  59.7495079  67.9997253  63.6962242  59.4926109  67.8283386  62.7902107
  60.6814842  67.7834702  63.7259178  60.2680321  50.3587570  47.8599586
  60.6473465  50.4697037  48.7317657  60.6183052  51.0902023  47.3515053
  41.3037720  53.3679390  13.3925219  40.7175636  53.9446754  13.8823814
  40.9324379  53.3420105  12.5106649  26.8184681  23.7373791  81.6544189
  26.5125771  22.9682999  81.1736069  27.0499802  24.3690681  80.9735336
  35.4058609  31.6062984  18.8209496  34.8828201  32.1883926  19.3721542
  35.2758827  30.7369194  19.1997890   2.5717261  29.1313820  63.5120735
   2.5370090  29.8161411  64.1800003   1.9300473  29.4038506  62.8561440
  35.2442245  51.3684464  72.0366898  35.2448006  51.8737183  72.8496628
  34.3868103  51.5413208  71.6478577  18.8402481  54.5777702  86.8653488
  19.4563789  53.9138565  87.1749191  18.5289536  54.2422142  86.0246811
  63.1987114  56.4539490  75.5724564  62.6206779  55.8252335  76.0046921
  64.0636749  56.0452156  75.6042480   7.3501549   5.4958887  64.8012085
   7.2321892   6.0823579  65.5484543   7.0641451   4.6401691  65.1208572
  32.4096527  17.8594437  17.5457287  33.0357018  17.2054844  17.2348690
  32.3311310  18.4794769  16.8207283  84.4254303  52.1639709  14.7884169
  84.4796906  52.3851814  15.7181234  85.0643082  51.4607773  14.6718483
   6.9600344  31.2898045  37.9183197   7.1641884  30.3549309  37.9420586
   7.7979956  31.7132969  37.7320213   4.6606741  35.9264221  14.2286062
   5.0883794  36.6249313  13.7332411   5.0609279  35.1209259  13.9011822
  35.2118187  67.3630676  44.2684288  35.2406311  67.7644119  45.1369476
  34.2782822  67.2723618  44.0773468  64.5151672  18.1733665  42.6653595
  65.4645615  18.1367512  42.5489502  64.3771362  17.9384499  43.5829582
  79.8692932  57.1933365  44.3826904  79.1681824  56.9633522  44.9924316
  80.3747025  57.8646736  44.8410568  40.6178360  51.0221596  78.1105881
  40.0310898  51.3822708  77.4455414  40.6067200  51.6694756  78.8156357
  77.7047806  64.8185272  60.3027534  77.9756851  65.5531693  60.8533363
  77.4793396  65.2189102  59.4630508  86.2923355  25.0183544  45.9916306
  86.8764877  24.3090134  46.2596359  86.4871597  25.1515064  45.0639725
  35.9315262  43.5262375  13.7248287  35.4699631  44.1797180  14.2503328
  35.2970657  43.2635231  13.0579910  52.8676834   9.2891979  31.1018219
  53.2016296  10.1740961  30.9546337  53.6453705   8.7318687  31.0732136
  19.0578022  66.7747421  86.7895508  18.5776577  67.5723495  86.5670166
  18.6667690  66.0978088  86.2372055  57.1130104  43.6884613   0.2806275
  57.7753067  43.8993492  -0.3774905  57.5443077  43.0626373   0.8624836
  12.8427868  15.8545618  11.6018991  13.2122431  15.0311012  11.2830782
  12.9602928  15.8181658  12.5511618  63.0618477  19.4487267  80.2662430
  63.7877007  20.0715561  80.2281265  62.3610191  19.9246521  80.7118530
  61.4540901  13.0003033  18.3520489  61.6134529  12.5587301  17.5178738
  62.1373177  13.6687183  18.4035835  57.4760780  24.3995934  38.6228867
  58.1699982  23.7876148  38.3775558  57.8825760  24.9755802  39.2703667
  12.2743216  25.4977894  28.0940228  12.0674696  24.6786327  27.6441059
  12.1523905  25.2986031  29.0222950  76.1148987  35.1019592  44.1952896
  76.9255142  35.2116470  44.6923828  76.2787628  35.5533524  43.3672676
  18.6222763  65.7511826  15.2669859  18.2812634  65.4385376  14.4290152
  18.8207016  66.6751862  15.1150856  59.3641243  29.7735748  88.3141403
  59.0555077  29.1950645  87.6167831  59.9399796  30.3967381  87.8710938
  60.4375916  57.8564606  15.1601686  60.4225273  57.2044487  14.4595385
  60.5232468  57.3429604  15.9634180  14.8046255  49.3058319  39.0986710
  14.7868834  49.8809738  38.3337364  14.8082008  48.4211769  38.7331429
  83.0791779  49.0064125  12.4713230  83.9723053  48.7837753  12.7339973
  82.5485916  48.2720184  12.7801418   6.2845764  27.2935638   2.2291005
   5.4615512  26.9458427   2.5725410   6.9370327  27.0611362   2.8897893
  56.9761200   6.3629470  40.1350784  56.1324654   6.7744341  39.9475746
  57.2339516   5.9572349  39.3073425   6.4409442  23.2163277  63.2081642
   7.1775246  23.2888603  62.6011887   6.7635922  23.6005592  64.0233307
  74.8524780  24.1824703  20.6498413  74.7326584  24.1533718  21.5990658
  74.4406586  23.3790894  20.3317051  62.9826775  -0.0330647  75.8560867
  62.9326172  -0.0943938  76.8100128  63.7492371   0.5159851  75.6912766
  10.9421015  38.6686859  77.5800858  10.4314947  37.8602943  77.5351791
  11.6423044  38.4753838  78.2034531  38.4301834  28.0186481  15.2091007
  38.2450104  28.4894600  14.3965254  38.9754410  28.6205349  15.7157211
  68.5646896  35.2535744   2.9542556  68.5857315  34.7242775   3.7515228
  68.5994034  34.6151276   2.2419255  78.3841171  24.1693802  29.6713905
  78.4978485  23.2189655  29.6691437  77.7587814  24.3341007  30.3771229
  58.7284508  11.2493420  69.5637665  59.2031097  11.7135878  70.2532578
  58.5969009  11.9058933  68.8797531  66.2720108  12.1954002  88.4227142
  66.3838501  11.4745579  87.8029480  66.2132797  11.7691755  89.2777634
  78.4755173  14.4763212  20.1420307  77.9411926  14.0281391  20.7976685
  77.8705673  15.0814695  19.7130051  37.3873138  18.8103600  86.6920166
  37.1217804  18.1468925  87.3288269  37.3763657  19.6318111  87.1832657
  34.9278870  61.6974678  43.0831032  35.6589279  61.9588394  43.6430168
  34.1477776  61.8807755  43.6066093  57.4616470  38.3669434  40.4718742
  58.4035492  38.1965561  40.4767647  57.0683632  37.5311966  40.2207069
   1.0418127  58.6934433   1.5239758   1.1988982  59.6079750   1.7588923
   1.6474612  58.5240898   0.8023515  55.4184532  48.7585182  40.1701393
  55.0616417  48.1713371  40.8365746  56.2004547  49.1335106  40.5752182
  81.6594162  59.4885025  55.2079811  81.6835251  58.5387535  55.3247261
  80.7381363  59.6857147  55.0388832  70.4434586  33.5533867  12.9363813
  69.7461090  34.2067184  12.9920759  70.1402664  32.9355736  12.2710867
  72.4073792  69.2649307  83.1880112  72.4620438  68.5554047  83.8281784
  72.6133575  70.0548706  83.6878204  11.7014437  69.9719772  72.9083405
  11.4172277  69.0843658  73.1265106  11.7628365  69.9758224  71.9531174
  58.3601990  18.5517941  74.6524658  58.4110107  19.4460583  74.9900208
  59.1799164  18.4296265  74.1735382  64.5619583   2.9554617  65.5497131
  65.4711914   3.2404897  65.4586334  64.2038498   3.5139558  66.2397003
  31.4228992  52.7913017  58.2144814  31.0309906  51.9202232  58.2766342
  32.3265457  52.6686897  58.5053787  43.3028297  41.1938972  31.5104942
  42.6823883  41.5580940  30.8791103  43.4252586  41.8907127  32.1552353
  46.2137756  15.9743156   0.5227486  45.7428055  16.7648869   0.2592751
  46.7350845  15.7390814  -0.2448023  21.3246574  13.2496309  49.5774956
  20.8824615  13.1339159  50.4185104  21.6546440  12.3782063  49.3584976
  72.8594742  29.9690514  85.5020905  73.0107651  30.8641644  85.1985931
  72.6917572  30.0593376  86.4401474  48.1865692  35.0524940  19.3225384
  48.3991623  34.6239624  20.1516304  47.4606857  35.6390533  19.5353184
  65.3026199  69.0597916  87.6593323  64.7825623  68.6850967  86.9484406
  66.1623154  68.6485672  87.5696716  12.0719957  59.5124588  16.9622288
  12.7179470  59.5965691  17.6635895  11.9486284  58.5685310  16.8621731
  80.6960754  63.1991081   8.6951418  81.0642166  64.0536346   8.4704571
  80.6793060  63.1896706   9.6521482  48.9415894  12.7103949  57.6364098
  49.0914078  11.9903145  57.0238190  48.3309898  13.2896261  57.1804581
  64.5654831  14.1903524  14.8413935  64.2461243  14.4950838  13.9920521
  64.0528870  14.6843233  15.4812908  85.4978333  37.2918777   7.6879821
  86.2449493  37.8553162   7.4865055  85.2060394  37.5810547   8.5525417
  41.1279640  57.0692520  77.1409225  40.2075920  56.8418961  77.2730560
  41.1625900  58.0161858  77.2763824  71.4368515  11.9749556  73.3518600
  71.3526306  11.5022421  74.1799164  72.2634430  12.4511185  73.4308929
  16.1806011   3.4994037  17.5552101  15.4878254   2.9062397  17.8458138
  16.8659420   3.4099092  18.2174263  41.6897011   4.2481194  66.1064758
  42.4258957   4.5202112  66.6543884  41.9135246   3.3599842  65.8283539
   5.5640821  39.5607948  10.6631527   5.1941848  39.6191940  11.5440598
   4.8594303  39.8576546  10.0873308  72.6318665   7.7834353  43.7167587
  73.0448608   6.9249892  43.8102493  71.6943436   7.5949211  43.6750374
  58.8895912   1.3838456  83.8856888  58.2964363   1.9860240  84.3348846
  58.7885971   1.5958492  82.9577408  65.6560440  50.8606987   1.4401455
  66.1109390  50.0284462   1.5692437  64.9350357  50.8396835   2.0693774
  79.1824493  55.6103210  23.8915386  78.4504318  56.2216034  23.9735279
  79.7462006  56.0000076  23.2232876  64.0644684   7.0274854  47.1576614
  64.8224945   6.4455528  47.1030731  64.1796036   7.6396108  46.4308319
  43.5946732  26.5842762  54.6736107  44.2782249  25.9605923  54.9185715
  43.6688843  26.6595535  53.7222672  31.6946354  36.9362450   9.1257830
  31.2679119  36.1685486   8.7452745  31.4458103  37.6588478   8.5494490
  63.4343452  15.7986155  16.7207890  63.4489174  16.7406139  16.5515041
  62.7755165  15.6886415  17.4064140   5.4129415  42.5148430  67.6972427
   6.1649280  42.6540031  67.1215820   4.7145019  42.2213821  67.1121826
  10.8504200  56.4600182   3.5847874   9.9342728  56.2831726   3.3711724
  10.8176632  57.2123489   4.1756854  84.1513443  54.6764603  66.8428802
  83.8289108  55.5050507  67.1974335  83.9275131  54.7106285  65.9128494
  37.8175354  56.1103592  16.5614853  37.5596313  55.2294197  16.8328972
  38.5196953  55.9693756  15.9264078  12.8279581  58.5522118  42.4698296
  12.4382496  59.3986511  42.6886787  12.5707607  57.9767036  43.1901588
   3.4150460  27.5944366  58.0497627   3.6416512  28.5025558  57.8492622
   4.1980219  27.0952835  57.8173294  25.5028324  24.2051105  74.1041489
  25.9733295  23.8013000  74.8333969  24.7103558  23.6768398  74.0085373
   9.1345320  10.3886881  15.9727297   8.2341528  10.1159496  16.1492577
   9.2160587  11.2393045  16.4040489  54.8057251  14.2249651  75.3189621
  54.8767204  13.2716961  75.2692795  55.2225418  14.5383415  74.5162811
  68.8797836  60.4412994  73.8749619  69.3283844  60.8618126  74.6085587
  68.1883011  61.0570908  73.6323090  28.9544468  44.6442146  11.1578569
  29.2495079  44.4802628  10.2621508  29.7413902  44.9325294  11.6202717
  69.0636673  62.6461067   3.9309123  69.4422302  63.0625801   3.1566560
  69.4822083  61.7861099   3.9690669  65.6365433  48.0718307  26.8892803
  65.5543671  47.1187019  26.9213142  64.9259262  48.3542786  26.3135357
  60.7655945  12.9442301  82.7893372  59.8786354  12.7148418  82.5120010
  61.2929611  12.8656750  81.9943924  39.2178192  66.8054047  36.0578079
  38.5172844  66.6822891  36.6983757  39.9412689  66.2731323  36.3887787
  31.7832108   0.6615649  74.4691925  32.6553841   0.2673401  74.4577713
  31.2067070  -0.0410331  74.7695770  76.1798935  54.9915886  30.5549316
  76.5668945  54.1186905  30.4877625  76.5808563  55.3718491  31.3365135
  57.9779358  10.7295532  58.5760002  57.3674583  10.0572824  58.2733459
  58.3599701  10.3643684  59.3740768  79.7439117  40.1249466  71.2432861
  78.8671494  40.0816956  70.8616486  79.7968521  39.3550949  71.8096390
  38.3564720  17.3989925  72.6381454  38.0587044  18.3020878  72.5286713
  37.5787735  16.8679276  72.4667206  29.3673534  49.2179642  18.3762226
  28.9346008  48.8582382  19.1505318  30.2266178  49.4988518  18.6908646
  45.4972343  51.3059235  82.7514725  45.5047951  50.3691750  82.9481430
  44.9696960  51.3794289  81.9561539  81.1896439  21.4606075  76.6419220
  80.8165970  20.7312756  77.1370316  80.9120102  21.3042202  75.7393188
  68.1365128  14.8165712  42.5437088  67.7204971  15.6756859  42.4723969
  68.2618942  14.5352001  41.6374321  21.2262974  42.7926598   1.0776141
  21.7877140  43.5005798   1.3936741  20.3842621  43.2137642   0.9047477
  13.3684607  35.9598541  22.1560001  12.9044704  36.7472115  21.8713646
  14.2458668  36.2678146  22.3830490  66.8778992  35.0491638  14.9829655
  67.1438446  35.6290741  15.6965551  66.0403748  34.6850700  15.2697039
   1.3905690  49.2491608  43.5722885   1.3116143  48.9580994  42.6638374
   1.9707932  50.0093193  43.5306740  49.8253746  62.8038254  26.8331356
  50.0439148  63.7352486  26.8028221  50.5384750  62.4066429  27.3331032
  14.2826309  58.1523247  58.1091843  15.0176926  58.2164230  57.4994240
  14.6611042  57.7708549  58.9013176  26.4218102  26.2506504  77.2091980
  26.4287033  25.4114838  76.7487793  26.6343899  26.8956795  76.5346756
  53.4502296  61.5494156  18.1290092  53.0148392  60.9912529  17.4847145
  54.0953789  60.9772682  18.5445366  56.6471977  58.7635384  12.8483906
  56.3967438  58.3152809  13.6562090  57.1197853  59.5420303  13.1430902
  82.0322342   6.7464805  26.5328293  81.4695511   6.0884991  26.1245689
  82.8298035   6.2699571  26.7631283  38.9577141  49.1461563  74.0856400
  39.0613480  50.0941238  74.1683731  39.4171486  48.7878075  74.8450699
   2.0973036   0.6038786  11.8414440   1.1671219   0.3952131  11.9277706
   2.4663181  -0.1396252  11.3647242   5.0627780   5.1909475  84.0336304
   4.3148770   5.6919422  83.7082367   5.2004170   5.5165534  84.9231567
  78.3438873  56.3481178  70.1560059  77.7293396  56.0400810  70.8220978
  79.1441116  56.5470581  70.6421204  74.7900925  35.4768486  35.8152733
  74.9024277  35.2803001  36.7453156  75.6799088  35.4828148  35.4625473
  35.1033401  63.3049583  74.4609985  35.3112984  62.4438133  74.0984955
  34.1510201  63.3708954  74.3904800  77.5354385  64.6638031  26.2331295
  77.7037277  64.4738770  27.1560802  77.7355652  65.5951996  26.1399002
  23.5819244   3.4140344  18.9342251  24.3966198   2.9146187  18.9897766
  23.4034901   3.4776464  17.9959564  66.7221680  12.3202372   4.9460335
  66.7193146  12.1024694   5.8781285  65.7969284  12.4126186   4.7188191
   2.0199337  61.3094864  27.7412853   2.5725033  61.7553825  28.3832169
   1.3181465  60.9171867  28.2607346  15.1511707  57.9511185  35.5246849
  15.1552124  57.9402618  34.5675545  15.7952814  58.6191635  35.7593536
  53.1452942  65.5853729  54.4269333  52.5219002  65.4480209  55.1402016
  52.9646263  64.8753815  53.8108902  80.0702972  31.3760700  65.8441162
  80.4675293  30.5261497  65.6541824  80.3494720  31.5766525  66.7374573
  70.0978928  23.3632793  57.9537773  69.1895065  23.2665482  58.2396317
  70.1166687  24.2035866  57.4957809  23.7004566  65.3440170  32.9737358
  23.2489662  65.0389481  33.7607040  24.2306156  66.0827026  33.2729225
  79.9575119  20.4991512  51.8263512  79.5902481  21.2512341  52.2908058
  80.7971878  20.3384686  52.2568893  67.0180054  31.9478340  53.1984100
  66.5587158  32.6815338  52.7897987  66.9707031  32.1285820  54.1371994
  67.1985779  67.3786850  73.4387665  67.0944138  68.3258514  73.3478699
  66.9533157  67.1967239  74.3459473  31.8885498  56.8920784  34.8016167
  31.4973812  57.6343269  35.2623596  32.6527634  57.2608910  34.3586884
  73.4086990  63.2085037  25.8115940  74.1827240  63.4545403  25.3050499
  73.2687531  63.9442329  26.4077072  43.5039177  22.9714336  46.2814484
  44.0488548  23.7513180  46.1763153  43.6492081  22.6980419  47.1871948
  53.5787392  67.0606995  63.4203415  54.1561775  67.8188324  63.3307343
  53.5145378  66.7025528  62.5349922  81.8805161   2.9077504  31.9919643
  81.0985947   3.0090427  31.4492168  81.6343765   3.2805085  32.8385429
  73.4124756  51.2099228  61.4509926  72.8677444  50.4389610  61.2925186
  72.9145355  51.7293625  62.0822411  55.8827934  42.5129967  83.7143021
  54.9953232  42.2666626  83.9749756  56.1095390  43.2401962  84.2939529
  39.7291183  66.9620514  30.8893204  39.1951103  67.7429657  31.0350780
  39.6465874  66.4606323  31.7004890  71.1920395  41.7233925  74.2784119
  71.2205353  42.5778084  73.8478394  71.2274628  41.0918503  73.5599899
  29.9053535   2.6810772  25.3770466  29.4602013   1.8348948  25.3318043
  30.2776604   2.7090278  26.2584305   7.3388944  46.1051865  83.8206558
   6.4025569  46.1031914  84.0194016   7.5627146  45.1808472  83.7123184
  63.2798615   2.4657254   5.0618706  64.0361938   1.9030296   5.2279034
  63.6088867   3.1400259   4.4674864  82.6853409  20.0349216  53.1210861
  83.3927078  20.5885773  53.4517517  83.1195068  19.4180717  52.5318260
  11.3595362  38.0248413  18.2311211  10.6223879  38.2846718  17.6785526
  11.7336636  37.2629433  17.7886600  61.4039268  70.5135269  22.6226006
  61.5337029  71.1878738  21.9557838  60.9286079  69.8170547  22.1695728
  45.9533005  48.4441643  77.0752640  46.6235275  48.9224510  77.5633926
  45.6006508  47.8158684  77.7054367  15.0465860  11.2158117  18.4012604
  14.8897009  11.5509624  19.2840366  14.2244930  10.7907934  18.1568165
   6.2359762  21.7811699  13.6020145   5.9057741  22.3346863  14.3096981
   6.3422852  22.3777409  12.8610477  15.0283394  53.7860146  80.2517395
  15.7717381  54.3220482  79.9755936  15.3974285  52.9120712  80.3791199
  24.6731606   5.6987796   6.1968918  25.2474899   6.2355561   6.7430134
  24.0485935   5.3142071   6.8119135  58.9086838  35.3922272   8.7093506
  58.0629654  35.2752686   9.1421471  59.3704185  36.0295944   9.2541399
  64.8704529  55.1429214  19.4173679  64.9955826  55.9249878  19.9549065
  65.4160156  55.2931213  18.6453381   6.0517035  43.6088829   2.7595057
   6.1892939  42.9089508   3.3977785   6.8161664  43.5630722   2.1852851
  76.2202148  64.7686768  66.3448868  75.3402710  64.8572235  65.9786987
  76.4365311  63.8436623  66.2274857  77.9260712  14.1987619  57.3005486
  78.7002335  13.6442242  57.3974953  77.2424316  13.6039104  56.9922943
  32.5436058  56.6964188  37.8228798  33.0586281  57.2514153  37.2372513
  31.6397133  56.8136368  37.5305290  24.1847649   6.6394820  15.2457037
  23.5856781   6.6175485  15.9919233  23.6164360   6.7657866  14.4859142
  12.5571394  48.9675179  57.4157219  11.6184225  49.1544838  57.4249802
  12.7474279  48.7417908  56.5051880  57.0473061  41.8382912  50.9787064
  56.2794075  41.5998077  50.4593887  57.5769310  42.3760872  50.3900604
  80.8534470  39.2957458  34.7223816  80.3772812  39.1689911  33.9017525
  80.6754837  40.2045174  34.9646454  77.5909958  52.0027313  30.3016777
  77.9798431  51.6055794  31.0809689  77.1348190  51.2817688  29.8676834
   3.6260731  30.3250732  29.9306393   2.8361425  29.8550339  29.6636086
   3.3003964  31.1146812  30.3627110  69.9352112   5.6508589  15.3441830
  70.8726273   5.5660653  15.1701250  69.6527710   4.7650385  15.5717382
  26.0152245  45.9245033   9.3918657  25.8984032  46.0419083  10.3346281
  26.6157227  46.6245880   9.1359129  50.1232796  54.9179001  15.9925127
  50.3654022  55.7713852  16.3519230  49.3306389  55.0884056  15.4837141
  42.8600922  68.4667587  70.9494781  42.6853027  68.0403824  70.1105042
  43.5128632  67.9076920  71.3708649  35.5731354  46.7926025   2.4464335
  36.3449326  46.2264481   2.4406521  35.7408829  47.4332809   1.7553273
  75.2466660  19.5737095  74.6238861  75.8616486  19.4868298  73.8955460
  75.5896454  20.3022842  75.1413574  19.7767029  19.0949707  88.9070816
  19.2670479  19.0509052  89.7161179  19.4018669  19.8339176  88.4278259
  34.9391212  40.6128044  19.3161545  35.7136192  40.0516129  19.3542328
  34.5476685  40.5401459  20.1866245  84.7926407  39.8341789  12.3912001
  85.3609848  39.3063583  12.9521170  83.9087067  39.6608200  12.7149782
  59.5606232  26.4964523  71.0888443  59.4551659  25.7049313  71.6166763
  59.9010620  27.1489086  71.7009201  67.7016296  62.6378784  82.5816956
  67.7264786  62.0402756  81.8343811  67.6750717  62.0634689  83.3469315
  31.4753628  52.5160751  13.8963966  31.3968258  53.3239059  14.4038172
  31.0303154  52.7075500  13.0708647  86.3025513   3.4105189  20.0009804
  85.4240646   3.3021035  20.3653183  86.1621094   3.4933960  19.0577736
  29.1116276  34.2177658  72.9587936  29.2621880  34.4388351  72.0397186
  29.0356274  35.0641403  73.3993683  26.0514793  56.0003853  45.8545952
  26.6018162  56.2328682  46.6024666  25.2334251  56.4748688  46.0025291
  48.8385353   3.8675923   1.7000952  48.5444794   4.1110497   0.8223186
  48.4238853   3.0208373   1.8653328  46.4050255  40.2907295  48.0285950
  46.3229752  39.4213486  48.4206123  47.2459641  40.2691307  47.5718803
  72.6915359  19.2059059   0.4250923  72.9937210  19.2226391   1.3331872
  73.3584747  18.7008171  -0.0399992  47.3126793  43.7380905   5.5981817
  46.4094925  43.4233246   5.5606623  47.8212280  43.0602913   5.1529808
  16.1902657  44.6031570  67.8980255  15.4906130  45.0348663  68.3882675
  15.8559761  43.7223015  67.7289810  64.7685623  32.1009979  43.6356888
  65.5913696  32.4617691  43.9659538  64.1152725  32.3608513  44.2852364
  75.2518845   7.2175574  71.9861221  76.1457443   6.8782153  72.0319366
  75.1752243   7.5716238  71.1001282  54.4465675  69.2606277  87.5112915
  55.3573608  69.4763336  87.3108902  53.9366302  69.9374161  87.0661469
  74.6464157  25.8751278  33.2292480  73.7851715  26.2588978  33.0642738
  74.6067276  25.5797005  34.1388550  73.8686829   0.9331932  31.6814384
  73.4245453   0.3241518  31.0914898  73.8391495   1.7737720  31.2245064
  83.9528503  12.3507557  57.0261993  83.5104523  12.7785816  57.7593307
  83.7511826  12.9020090  56.2701035  45.4460907  39.3356056  63.6338501
  45.6606293  38.7602730  62.8995514  45.7589073  38.8648109  64.4063339
   8.1276665   4.4373374  11.3367271   7.3686528   5.0003862  11.1847210
   8.1441336   4.3083773  12.2850571  86.0388336  62.7374840  64.6293335
  85.5675430  62.1784172  64.0116272  85.7502441  62.4382133  65.4915314
  46.7356834  22.8922634  19.5433941  45.8452187  23.2329750  19.6283588
  47.1740189  23.1638813  20.3498173  32.3206482  57.6952324  30.4364033
  32.3731499  58.5949554  30.7588596  33.2162971  57.4820137  30.1745167
  25.4215183  32.5766869  86.0997543  26.1638432  32.0360832  85.8296967
  24.7648392  31.9486847  86.4007797  67.7321625  40.9820862   9.0947237
  67.7674942  40.0273514   9.1535501  66.9715958  41.1599731   8.5414362
  80.1300659  35.4036903  22.2429752  79.9313354  35.5025215  23.1740875
  79.8828964  36.2430611  21.8549061   4.2184238  15.3946962  15.1211863
   4.5246749  15.0061626  14.3017454   4.5278878  16.2998619  15.0874405
  78.0023117  67.3348541  27.7920647  78.7892990  67.0034180  28.2245464
  78.2523880  67.4198456  26.8720264  54.4750061  14.3318672  46.0956650
  53.7203979  14.3744984  45.5083160  55.1904907  14.7241516  45.5952377
   4.9201341  46.4640198  53.0384903   5.4827089  45.6935234  52.9605255
   4.0852408  46.1904144  52.6585846  53.9152985  19.0618649  56.5042992
  53.1580276  19.6441269  56.5654755  53.5382347  18.1842613  56.4421043
  71.6128845  56.3748970  20.5676193  71.4519119  57.1506233  21.1048050
  71.2024536  55.6586494  21.0521469  50.0311089  43.2631569  42.8551712
  49.7093239  42.7982025  42.0828323  50.8279114  43.7013206  42.5562515
  43.2991524  70.6984787  63.5353813  42.3613052  70.5351639  63.4353561
  43.7062073  69.8411865  63.4105415  53.1867180  35.4801445  47.6199150
  53.7300415  35.4772377  46.8318672  53.0892563  34.5554085  47.8470535
  35.5387306  58.8075523   4.0526638  35.8812637  58.0406151   3.5936291
  35.7337875  58.6415749   4.9749632  33.9671593   2.1634638  84.4942932
  33.7366867   1.9741080  83.5847549  34.8922806   2.4069488  84.4612427
  22.5122719  44.4357147  79.4109726  21.9125347  43.8235207  78.9846344
  23.0820732  44.7430191  78.7059021   5.3601503   4.5282545  78.7543488
   5.4721146   4.5409660  77.8038101   4.5570674   5.0260539  78.9076004
   8.3222456  64.7776642  27.7772675   8.8927231  65.2200089  27.1486797
   7.5312076  65.3160248  27.8029270   5.3949404  33.3001442  33.0902710
   5.6202435  33.6500626  33.9522591   4.8357024  33.9708023  32.6982231
  24.7144680  37.9158173  33.3509140  25.6516571  37.7224350  33.3734856
  24.3019123  37.0776329  33.1423874  51.5348206  58.5236282  57.2387505
  50.7534103  58.0328484  57.4932442  51.8900108  58.0388908  56.4936981
  79.9628830  60.1172523  16.1125069  80.6952286  60.6939697  16.3300076
  80.3672638  59.2626686  15.9628534  55.8811150   2.6805749  50.2844200
  55.7298088   1.7414880  50.1773987  55.0133286   3.0445592  50.4596138
  47.5831604   1.8086431  14.6371498  48.2308083   2.3035941  14.1353426
  47.8885841   0.9024847  14.5944300  10.9146910   3.9240222  30.8872986
  10.9751463   4.8618922  30.7057037  10.3611746   3.8660445  31.6660728
  44.6467857  22.2852364  -0.2492173  44.5800743  23.0802460   0.2796898
  43.9193802  21.7383900   0.0475520  21.8114471  19.8093662  29.9790306
  22.1371174  20.5504093  29.4681263  20.8593159  19.8604870  29.8949890
  62.9530029  -0.1005854  48.7256737  62.0506668  -0.4099246  48.6461220
  62.8716660   0.7901146  49.0666580  81.0319977  13.5127859  20.1737347
  80.2905579  13.8313599  20.6885242  81.6893311  14.2047338  20.2469196
  77.7550201  62.3995018  64.0432968  77.7838287  63.2789040  63.6663971
  78.4250259  61.9116249  63.5644417  60.3835640  16.1431217  77.1820221
  59.9112091  16.9452076  77.4051056  59.9030342  15.7814121  76.4373779
  51.4168243  39.5452499  37.8622742  50.7635422  39.0493546  37.3687744
  51.1455231  39.4557953  38.7758560  76.8165741  13.3636131  62.4279442
  77.6240463  13.7791548  62.1253853  76.6850281  12.6301069  61.8271980
  24.5066261  56.4237137  58.1772919  23.9103680  55.7726974  57.8073082
  24.8544521  56.0087128  58.9666138  69.5149612  25.1574192  79.2212296
  69.7332764  25.5519657  80.0655670  68.5580521  25.1564732  79.1975708
  56.3171959   0.9199925  86.3004379  55.8392181   1.0150259  87.1242905
  56.5627556   1.8137791  86.0615234   6.2026587  60.4060097   3.5741141
   6.4518132  60.1035080   2.7008173   6.1022048  61.3532486   3.4798646
  16.3228226  71.1538925  13.8167639  15.8717661  71.1422501  12.9725809
  16.0440159  71.9730530  14.2260084  59.8768005   3.0511601  14.1300821
  60.5650291   3.4775963  14.6406946  59.7302589   2.2166858  14.5755148
  43.1367607  53.3831635  24.7109756  42.2560387  53.0095940  24.7427254
  42.9941673  54.3254013  24.6210651  29.8342304  52.9513397   7.3218861
  30.6848450  52.5128860   7.3429565  29.4542599  52.7784653   8.1832619
  43.2453499  70.5713348  57.5938110  43.5435715  69.9058685  58.2138519
  43.4382782  70.2001266  56.7328720  31.9316158  44.1675758  67.6246185
  32.7898140  43.7539635  67.7176208  32.1033630  44.9659348  67.1252594
  27.1652832  12.3707504  76.7193832  26.4926319  11.7440462  76.4529037
  26.8502312  12.7202845  77.5529327  54.2656288  57.3938141  30.7293301
  53.4469032  57.5033569  30.2456818  54.8049011  58.1369286  30.4587822
  25.1220837  70.7304688  78.9577255  25.9107056  70.7772141  79.4982071
  24.4262486  70.4903870  79.5696106  53.5882607  63.4400864  57.2380219
  53.1617737  62.5831528  57.2346992  52.8800011  64.0607758  57.0667229
  53.5246620  39.6327133  57.5057526  53.8002739  38.7648239  57.2107239
  53.0546494  39.4696274  58.3235092  79.9077225   3.5325224  79.0032959
  80.0520096   4.3765702  78.5755157  79.0377960   3.6083169  79.3953552
   1.2990637  60.7805290  52.0640068   1.9698701  60.2328911  51.6561546
   1.2492032  60.4658585  52.9666328  59.9720039  37.4144325  31.7155952
  60.8879166  37.5746613  31.4882927  59.9092712  36.4631004  31.8008194
  67.6425629   8.3013792  56.9807663  67.1255035   8.3314972  57.7857399
  67.2636948   8.9841013  56.4270630   4.2981653  33.3110695  49.5999680
   5.2105222  33.2418709  49.3188133   4.3427768  33.7397537  50.4546471
   2.7219651  19.8781033   8.8163471   3.3687823  20.0570297   8.1338186
   2.2785001  20.7155399   8.9515190  47.5031853  63.9545937  40.7714539
  47.1577988  64.2184525  41.6242828  47.6704941  63.0163612  40.8606644
  12.0894938  57.7301674  79.5479050  11.5095282  57.4318008  78.8473053
  12.2230234  56.9557381  80.0944061  56.1328773   5.5219564  70.9005051
  55.9219513   6.2511530  71.4836121  56.7362862   5.8956671  70.2582703
  48.7640228  19.2633648  66.3173981  49.0088196  18.3558178  66.4981384
  49.2768974  19.7783642  66.9402695  34.2208328  11.8781052  75.2733307
  34.0912209  12.0791922  74.3465118  34.8536606  11.1599483  75.2763824
  37.4612923  20.8552094   3.8562694  38.1111832  21.2760658   3.2934625
  37.8650169  20.8476067   4.7241297  34.1552429  40.0735512  24.3966236
  34.4301910  40.9872475  24.3205109  33.4734573  40.0837593  25.0684090
  80.3472214  14.0826931  30.2010002  80.2060852  13.5534725  29.4159908
  80.9517746  14.7699776  29.9210205  39.3865662  21.6077347  85.9386063
  39.5726471  20.6762543  85.8204880  39.6514893  22.0115738  85.1121902
  65.7593918  57.2353363  38.6598129  66.4153671  57.8969917  38.4404030
  64.9905624  57.7394447  38.9262886  62.9053650   8.2086897  63.6264648
  63.7377815   8.6368523  63.4264908  62.2826843   8.5966997  63.0116882
  31.5898628  55.7228813   5.1641655  31.4847221  55.0587196   4.4829407
  30.8711205  56.3367500   5.0131454  79.9256973  34.7480087  87.9414825
  80.8164749  34.6478958  87.6057510  80.0102615  35.3715630  88.6627808
  64.8714066   2.1501799  75.9714737  64.6439285   2.9211867  76.4911194
  65.6266022   2.4258139  75.4519196  71.8136139   1.7141774  76.8978577
  71.7595367   2.6691780  76.8620605  72.5161362   1.4910036  76.2872162
  24.4866657  41.9214706  78.6728973  24.8307762  42.7637749  78.3756714
  24.5819645  41.3432808  77.9160309   0.2231071  21.4470711  76.3548813
   0.4938828  20.7581730  75.7479782   1.0073761  21.6333809  76.8710632
  58.9188843  57.2151718  87.8112106  59.5568428  56.7516327  88.3537674
  59.4416466  57.8376923  87.3058243  22.7241764  36.4871407  24.2581215
  23.1883526  36.7428856  25.0552216  21.9308567  36.0529785  24.5717754
  56.2381973  38.3130188  60.7911530  55.6809998  37.5498276  60.9438171
  56.3769684  38.3226585  59.8441124  43.6725235  45.2468643  19.0178967
  43.2975616  44.7666664  18.2796230  44.3323174  44.6545715  19.3785763
  57.6198425  24.4167881  34.4991760  58.5401726  24.1586475  34.4483261
  57.1392136  23.6553059  34.1745644  80.1237030  47.2536964   6.3394289
  80.0844116  47.0083466   7.2638159  81.0452042  47.1486740   6.1027064
  55.9858780  45.7486076  78.0931931  56.0916405  45.7440071  77.1418686
  56.6373482  45.1227608  78.4096375  45.0179062   3.1676958  32.8642120
  44.7083817   2.3157778  32.5565414  45.3748131   2.9926608  33.7349663
  44.5201950  66.9248810  85.1199188  43.8513031  66.4304733  85.5935974
  44.1891441  66.9774780  84.2233276  74.3652573  51.4761963  57.9854889
  74.5721741  51.7494545  57.0917664  75.1571426  51.0328598  58.2898026
  63.5478706  61.1913071  72.2167664  64.4552612  60.9261208  72.0665817
  63.3757629  61.8487015  71.5426407  59.1420288  39.5586128  58.7405319
  58.5198135  39.0153275  58.2568855  58.6869240  39.7780876  59.5535164
  35.4030113  16.6773052  87.0788727  34.8632011  16.7727337  87.8635559
  34.8904076  16.1099281  86.5030670   4.6780906  20.7154617   3.0863619
   5.0622296  20.5344582   2.2285116   4.8485131  19.9239407   3.5969331
  62.4949379  62.0109062   6.1362252  61.8851662  61.8729019   5.4114056
  62.7282486  61.1283989   6.4242806  54.3471413  17.6558895  43.4256744
  54.1989822  18.0880642  42.5845413  54.8272972  16.8581181  43.2037659
  11.8131447  11.2561693  22.4943943  12.3651876  11.8477259  23.0058041
  11.3237438  10.7588348  23.1496620  56.4281349  68.4208527  22.6668167
  56.7950974  67.7189865  22.1292667  55.4942818  68.4201736  22.4566975
  56.4751587   8.8513803  67.5293427  55.6569214   8.4904213  67.1881256
  56.3201637   9.7948503  67.5748596  81.4130783  21.8935795  24.9319820
  82.3673477  21.9212379  25.0015659  81.1777191  21.0103073  25.2160034
  77.9345474  13.2148848  69.8194046  77.2550278  13.8887959  69.8375778
  77.5507660  12.4750223  70.2900925   7.8930731  48.1549835  31.7232304
   7.0576420  48.5464134  31.4681435   8.1293659  47.5928001  30.9854317
  47.8324776   8.7917643  83.3348846  48.0818291   9.3835821  84.0446777
  47.7414627   9.3600492  82.5700302  83.4052658  39.1236610  76.8069153
  83.9823227  39.6795921  77.3305283  83.8716202  38.2904587  76.7397385
  77.2363968  46.6713295  75.3867950  77.4861603  47.3248901  74.7335587
  78.0685425  46.3366852  75.7211151  25.9361649  11.1334391   1.4546543
  26.5904675  11.0533171   0.7606072  26.3338928  11.7272654   2.0913765
  18.9642124  41.4794731   4.4651589  19.7224102  41.3521881   3.8949244
  18.7481251  42.4073753   4.3727698   7.4649239   3.3219566  17.8559361
   7.1655216   4.2232318  17.9754906   8.4178905   3.3916888  17.7991562
  37.8199348  70.5161667   2.2996392  38.6322021  70.0776978   2.5530138
  37.6916084  70.2716904   1.3831267  78.3870468  36.5919533  18.6251183
  77.5357361  36.3436050  18.2648106  78.9750214  35.8848572  18.3595562
  72.4637680  11.5935183   1.2468892  73.1695328  12.0375633   1.7169535
  72.2594986  10.8301172   1.7870047  16.6479149  47.6310997  18.8576126
  17.1971798  46.8482933  18.8156681  15.7917032  47.3081512  19.1383972
  11.1163778  31.1015511  76.2407379  10.7940540  30.9521847  77.1295776
  10.6041031  30.5035114  75.6965408  29.5650806  59.3297081   4.8750768
  29.5935745  60.2864838   4.8747869  29.9209995  59.0797462   5.7277622
  25.2382812  23.7140484  12.0918303  25.6753311  23.7692719  11.2420254
  24.3050213  23.7631340  11.8848286  48.4553947  64.4372253   7.6663504
  48.6702385  63.7035103   7.0903807  47.6575012  64.8102493   7.2915845
  81.9913483  17.5958691  22.4627266  81.4275742  17.1789989  23.1143494
  81.6652527  18.4938431  22.4032402  26.1442757  46.9399414  33.3382721
  25.8583221  46.3426132  32.6471405  26.7257805  47.5578957  32.8953094
   3.9278932  17.2762012   8.6815014   3.1940575  16.6626949   8.7179384
   3.5165217  18.1382408   8.6190968  12.1459846  38.8090897  13.6531525
  12.5679779  38.7937355  12.7941313  11.4497499  38.1552811  13.5897007
  60.8189583  68.3013535  84.9436569  60.9240761  67.8066483  84.1309814
  59.9857635  68.7606430  84.8384094  69.6034241   7.9453254  33.1399651
  69.0935440   8.3816853  33.8224907  69.4202499   7.0138707  33.2627335
  45.2213898  35.0883865  47.6735001  44.9550056  34.4459457  48.3311806
  44.4132195  35.3038063  47.2080040  68.6539154  58.7533989  71.8339691
  69.4214401  58.4536781  71.3468399  69.0029602  59.3767052  72.4710617
  14.7206764  52.2437782  48.6076813  14.9952784  51.6148605  47.9403877
  14.1097660  52.8238144  48.1531754  65.5062637  30.8253841  51.0316887
  65.6561127  30.0558701  51.5808907  65.6455688  31.5689754  51.6181183
  80.0323410  29.1402683  83.3201523  79.2192154  29.2145672  83.8196869
  79.8716049  28.4237747  82.7061234  52.2278404  11.9841413  65.7993851
  52.7740860  12.3588619  66.4903488  52.7813377  11.3184786  65.3910141
  33.1957626  54.8390770  70.4149170  33.0842133  55.5867004  69.8276825
  33.4265289  54.1123428  69.8362656  29.6713619  32.4736137  43.0486374
  29.9613972  32.5596924  43.9567680  29.4199181  31.5539494  42.9636574
  31.3025436  49.8232422  51.9629974  31.4223156  50.6947136  51.5856133
  31.5606174  49.9215813  52.8794899  15.0476999  38.9141769  31.1630058
  15.4891872  39.6027222  30.6657867  14.8296299  38.2493401  30.5098057
  33.1045685   9.3210011   7.7208824  32.8215942  10.0326757   8.2950563
  32.4339828   9.2824154   7.0389309  18.5462341  40.2598686  59.3405991
  17.7088356  39.8310089  59.5168877  18.4455414  40.6306915  58.4639130
  65.7509079  15.0985079  40.7815437  64.9639435  14.6328154  41.0644684
  65.4406052  15.7087564  40.1125603  84.1679306  62.5755539  70.3377151
  84.9058762  62.5834274  69.7281189  83.7686386  63.4401703  70.2416077
  72.6948166   7.7174368  79.9395370  72.1513062   6.9496727  80.1166382
  73.2258377   7.8222375  80.7290115  39.9992332  15.2278519  71.9285965
  39.5887680  16.0560989  72.1771088  39.4029312  14.5562172  72.2596054
   4.8025627  62.0394745  49.0533829   5.7327142  62.2640076  49.0785637
   4.5524592  62.1572762  48.1369743  33.1603050  59.4746399  36.5467339
  33.2330551  59.4518814  35.5925713  32.4155235  60.0514641  36.7164612
  69.1124649  14.3886309  49.2179031  69.7847366  13.9067364  49.6996269
  68.4734421  14.6396589  49.8848877  37.4273834  54.9276352  85.5265732
  36.7711754  54.3770828  85.0993500  38.0037575  54.3089523  85.9751816
  32.4029655  10.5484915  13.8653965  32.1069260  10.9939651  14.6592131
  31.8386784  10.8926296  13.1730232  39.7438316   0.5975747  75.0023956
  40.5058479   0.0437454  74.8325882  39.8039322   0.8085452  75.9341202
  31.8608665  11.7580709   5.8318324  31.5532227  12.6643124   5.8141475
  31.4089241  11.3662519   6.5791326  58.7214661   7.2626061  35.0964279
  59.0658875   7.5321774  35.9478607  58.2695274   8.0383177  34.7643852
  83.8808060  12.8622160   7.8494182  84.5006790  12.4931335   7.2203188
  83.3045425  12.1318254   8.0745382  19.5453396  36.6639328  40.5451126
  18.9560356  36.3731194  39.8491364  20.2563801  37.1107521  40.0857582
  32.0901260  55.2298012  20.4510193  32.0443459  55.0103607  19.5204372
  31.2692318  55.6885872  20.6295795  79.4664612  49.9124222  69.4857941
  79.3079987  50.0648994  68.5541992  80.3035431  50.3427849  69.6599350
   9.4685497  43.8920822  54.0369110   8.6579399  44.4011421  54.0368690
  10.0149488  44.3117332  53.3724022  16.7019768  30.4175396  12.3873386
  17.5639133  30.2139435  12.7504444  16.0927544  29.8955078  12.9094133
  37.8677559  61.2328453  79.2194672  36.9179420  61.2307816  79.3381042
  38.0896912  62.1534348  79.0798492  47.7431068  40.0961266  10.3817577
  47.4195290  40.4042473   9.5352392  48.2843857  39.3358841  10.1689692
  54.7966652  24.6209869  39.7118340  54.2224388  24.4377499  38.9682465
  55.6593018  24.3177948  39.4287033   2.4580035  15.8032656  32.9131927
   2.9714804  14.9957609  32.8906212   2.9278064  16.4021416  32.3327942
  70.0045319  70.2192459  40.2658768  70.1122055  70.6348267  39.4103470
  69.0593719  70.2238770  40.4171486  47.6300201   4.5310555  22.7113228
  46.9044724   5.0751300  22.4050636  48.4156189   4.9893279  22.4129066
  57.8338470  54.1905022  30.4862957  58.6995239  53.8774719  30.7486897
  57.3905334  54.3884201  31.3112392  60.9682426  11.5306988  75.0796432
  61.6987648  12.0792542  75.3653870  61.3636551  10.6763411  74.9065704
   3.9103057  50.3806572  70.9384155   3.4858460  51.0182800  70.3643951
   3.2439091  49.7093086  71.0848465  11.9516306   5.4586811  84.9736328
  12.0854034   5.3218746  84.0357513  12.8248568   5.3700986  85.3555450
  82.4111710  66.6264572   6.7398896  82.2734146  66.3351135   7.6412086
  82.9939575  67.3816910   6.8187199  56.2685013  34.5561256  25.7174454
  56.4246712  34.0734901  24.9057140  55.9470634  33.8953781  26.3308983
  17.2745857  36.0618820  12.5404816  17.7683544  36.6343422  13.1276064
  17.5216408  35.1760368  12.8059502  31.4679890  50.2603798  54.8089561
  32.2309799  50.5357819  55.3171234  31.4824677  49.3043594  54.8541794
   3.4881222  31.4842377  41.1769447   3.7510312  31.3103447  42.0807533
   2.6162848  31.0962296  41.1022377  65.9519424  46.2548294  54.9339409
  66.6038513  46.9196892  54.7121086  66.4414368  45.4322853  54.9406815
   0.2989079  52.7736816  76.7022552  -0.3392474  53.4612236  76.5117798
   0.6283134  52.5081139  75.8436508  24.5949345  48.2319679  81.4573364
  25.4139996  47.7710762  81.2758331  24.1768398  48.3235550  80.6011581
   8.3953085  46.2696457  29.5737610   8.0798883  45.3758507  29.7074661
   8.1112499  46.4938278  28.6875973  37.5902328  62.3276901  14.2469339
  37.1564941  62.9064140  13.6198940  37.2027473  62.5564880  15.0917635
  39.6454735  21.9067249  76.0417633  40.2274055  22.5593662  76.4311829
  39.0129623  22.4196167  75.5386658  22.7439213   0.4235085  67.0443802
  22.0798073   0.6575925  67.6927567  22.8472271   1.2121726  66.5118713
  40.8835335  42.9497910  72.7988815  41.2914886  43.4255981  72.0754089
  40.2131424  43.5471077  73.1305847   9.3204174  70.1797256  46.3119888
   9.0100412  69.2766571  46.3780785   8.6194382  70.7029572  46.7006874
  65.1382751  67.1501999  51.2266998  65.9725189  67.0931244  50.7608490
  64.8428268  68.0487137  51.0796776  34.9362183  23.9872265  88.1317978
  34.0266457  23.6893177  88.1191788  35.0131226  24.5544891  87.3646393
  25.1989002  27.2587414  71.1073074  24.6815014  27.4673042  71.8851395
  24.8650017  26.4095440  70.8181610  22.4342003  39.2774887  85.6024475
  23.0170822  38.5742912  85.8888016  22.6245956  40.0033226  86.1967087
  37.5212822  22.5942287  11.2149649  36.9745064  21.8558559  10.9464951
  37.0837097  23.3622761  10.8477230   7.1300278  47.4130096  65.3952713
   6.8823004  46.7853546  66.0741730   6.2976875  47.7623482  65.0768280
  30.8425198  24.5072937  84.1922302  30.0310612  24.9706497  83.9847031
  31.1833916  24.2287731  83.3422546  79.0799179   6.1059523  16.8589058
  80.0152969   6.0493212  17.0540848  78.8365250   6.9971809  17.1093121
  74.4060440  12.5520477  32.2777138  74.7963028  13.1180143  32.9437561
  75.0997620  11.9314775  32.0543594  49.7996025  34.9839745  23.6286297
  49.1512337  35.5200462  24.0852261  49.3451805  34.6738701  22.8453236
  56.8613014   8.9650736  -0.2201213  57.3633156   8.8814287   0.5905678
  56.2937965   9.7218094  -0.0734172  60.7259750  37.6760864  76.6923141
  61.3473778  38.1638489  76.1517868  59.8674965  37.9052277  76.3363113
  80.9018555  40.0782890   3.0240293  81.5805588  39.5865555   2.5616500
  81.0921860  39.9354286   3.9511726  19.3523045  54.6221390  73.3400269
  19.5553360  54.8577995  74.2452774  20.2044506  54.4444237  72.9419098
  45.0373497  44.2204323  67.9818649  45.8408318  44.1451340  67.4671021
  44.3538551  43.8679161  67.4119492  42.5929260   3.2270460  28.5679016
  43.1431847   2.5719728  28.9972363  42.7524033   4.0329456  29.0591507
  20.0408096  64.9111710  32.3893356  19.3352203  65.5238876  32.1820869
  20.1913948  65.0277100  33.3274040  16.6624298  64.7885056  18.5591202
  16.8120155  63.9713593  18.0835857  17.5394630  65.0973434  18.7864189
   4.8718219  51.5289154  79.2426605   4.7484918  52.0900230  80.0082855
   4.0309725  51.5583229  78.7862167  69.7282257  25.8434734  81.7976379
  70.6486206  25.8107395  82.0584793  69.3562088  26.5536976  82.3205338
  54.2069359  50.7359924  28.2200584  55.1364326  50.9406738  28.3218975
  54.0982742  50.5757637  27.2826405  84.4258423   0.2722553   6.1748042
  84.0372162   0.5526893   7.0033946  83.7209854   0.3696792   5.5345554
  28.9817295  49.9200325  68.9555130  29.7579670  50.3999443  69.2442551
  28.2814045  50.5725365  68.9597168  25.7711315  66.7900772   6.2076998
  25.5026054  67.6663589   5.9315658  24.9500465  66.3083725   6.3077788
  -0.2798953  40.7409592  64.2781143   0.0464946  40.2336311  63.5349274
   0.2640167  41.5285492  64.2878265   6.6547713  45.4024811  67.1413345
   6.4495873  44.7179832  66.5044632   7.6101518  45.3964348  67.2000046
  38.4827232  38.1057434  33.3405952  37.8071175  37.7365952  32.7718124
  39.2998085  37.7221298  33.0220909  68.3339996  47.4851265  54.0638275
  68.4096451  48.3952370  54.3505402  68.8734360  47.4370270  53.2745705
  71.2712479  21.7307129  62.6759186  71.9097519  22.1898479  63.2215729
  71.7475357  21.5250149  61.8715096  50.7732162  46.4398117  42.6114426
  49.9917068  46.8013191  42.1933632  50.8886757  45.5821571  42.2023773
  28.8589993  66.6670151  80.1791763  29.3490658  67.3726196  80.6012955
  28.3165207  66.3009720  80.8777237  21.5628529   1.9868792  24.1316090
  22.1982937   2.6699953  23.9175968  21.0204163   2.3715451  24.8201046
  40.8275719  69.4870911  62.8533707  40.4876137  68.6401901  62.5645332
  40.7692032  70.0456009  62.0782013  19.1766338  41.5878525  80.5921631
  19.3455524  41.0799675  81.3857346  19.7906437  41.2362061  79.9475174
  25.9862003  10.7470636   4.6416850  26.4265270  10.0304327   5.0986142
  25.2232933  10.3378496   4.2333350  11.2605753  18.1517944   1.7769307
  12.0024281  17.6910362   1.3850279  11.5190268  18.2905045   2.6880808
  43.7415619  34.8752708  42.7552261  43.3743858  34.4340744  43.5212288
  44.4348755  34.2896385  42.4509544   9.7944126  36.3160057   7.7087364
  10.7292061  36.2721138   7.9098964   9.7331629  36.9466705   6.9912801
  20.0255756  44.0589676  32.6505356  20.4695015  44.8889084  32.8247719
  20.1932011  43.5294075  33.4300880  82.7496338  12.1552286  12.6343689
  82.2906113  12.4007502  11.8310957  83.6776352  12.2369814  12.4144659
  68.4533691  32.9617310  61.1888657  67.5725555  33.3362732  61.1998482
  68.8643875  33.3390312  60.4110909  14.8957853  65.8058548  89.0373459
  14.6068544  65.6903763  88.1321259  14.2148237  66.3453827  89.4391327
  37.6726265  59.2107353  49.0457077  38.0209389  58.6956558  49.7734451
  36.8439369  58.7850189  48.8259926  36.7074547   2.4505482  84.8388977
  36.7696114   3.3002880  85.2751465  37.2287750   1.8622104  85.3850861
  58.2097893  68.4857941  79.9685822  57.6023483  68.9800644  79.4181824
  57.8906364  67.5842896  79.9277725  73.3551178  64.0030594  76.4061966
  73.9731369  63.2724113  76.4271469  73.2391281  64.2450714  77.3250046
  11.6840096  56.6729050  16.4507427  11.6767492  56.6499825  15.4938450
  12.0139694  55.8121223  16.7084484  47.2524338  16.9551449  54.3086052
  47.3625679  17.0426598  53.3617973  46.8073387  17.7601395  54.5733795
  31.8239174  31.2907200   3.2796822  32.5465965  31.9179878   3.3021207
  31.0454845  31.8153744   3.4667900  44.8452606  67.8354950  51.6264725
  44.9859467  67.4357300  50.7681999  45.2665939  68.6926575  51.5634117
   5.2537637   7.7017727  26.3948002   4.4216971   7.5355606  26.8378239
   5.6567020   8.4084740  26.8992271  34.5414314  67.4093781  62.5437584
  34.4020958  66.8255157  63.2893600  33.6843071  67.8052368  62.3860855
  42.6669197  19.4840603  13.7674789  43.3297653  19.9835014  13.2905893
  42.1430511  19.0671139  13.0834122  73.9091339  70.3225632  88.3650970
  73.4308701  71.1373062  88.2111588  74.4940491  70.2421722  87.6116791
   0.7328548  27.8962402  57.3283501   1.4757398  27.7745781  57.9195824
   0.2587891  27.0655003  57.3653030  77.8154068  55.6452675  46.8125496
  78.4466782  54.9495201  46.9960403  77.5993805  55.5345879  45.8866386
  51.4431534  31.5277538  26.4809017  51.7185783  30.6739120  26.8145580
  51.1549950  31.3531971  25.5849514   6.6708703   5.8539324  18.4595890
   6.9554434   6.7475414  18.2679844   5.9104905   5.9620171  19.0308800
  13.2455502  38.5356560  24.9980412  13.7365627  39.0868950  24.3887177
  13.3583860  38.9596252  25.8487759  62.9353943  59.7427406  64.6363068
  62.6247978  59.5146332  65.5125122  62.1914215  60.1832771  64.2256241
  68.6482544  18.4001770  35.8827248  69.0939255  19.2339535  36.0324707
  67.8552475  18.4532814  36.4161606   7.9860783  20.4873638  84.8135681
   8.3603973  21.3484344  84.9997787   7.5134940  20.6047630  83.9894867
  15.0899725  52.6786499  39.9728241  14.3710155  52.7170067  40.6035843
  15.8492613  53.0062561  40.4548874  67.1563797  42.5417480  37.5294304
  66.8752823  41.6701965  37.8080254  66.6973495  42.6884842  36.7023964
   3.8803878   6.1713576  87.8860168   3.2068274   5.5964565  87.5226440
   3.4757049   6.5514269  88.6657639  76.3675537  58.3606453  14.1675539
  76.1753693  59.2966499  14.2240152  76.2480698  58.0373116  15.0605326
   1.0859435   0.8606759  47.4351196   0.7846249   1.2626806  46.6203613
   0.2905353   0.5148304  47.8400269  42.9765511   0.9956766  21.1020985
  42.3063545   1.1293727  20.4318790  42.9170113   0.0650609  21.3180637
  65.9213715  11.8822861  15.5072107  65.3831711  12.5925941  15.1578846
  66.0652313  12.1191149  16.4234257  56.2193680  29.9153633  75.9173584
  56.7495880  29.2015820  76.2717896  56.6703911  30.1722355  75.1131058
   1.5952340  55.2306328  47.3885956   2.1607480  54.6025429  47.8379593
   2.1997235  55.7954445  46.9071274   3.4439993  56.7377319  45.8678322
   3.5015457  56.9358864  44.9331360   4.2111297  57.1634560  46.2505913
  22.6864166   9.6696663  31.9365749  22.6649055   9.1748848  31.1174545
  23.6183147   9.7809076  32.1247940  43.4056091   1.0478845  72.8957901
  43.8513069   1.5272684  73.5942001  42.7857590   0.4796652  73.3531189
  48.0316544  38.2737465  79.2473526  47.6141205  37.4529228  78.9863052
  47.6455650  38.9328880  78.6705475  30.0833263  34.5942268   7.9431157
  29.9190540  33.8732071   8.5508823  30.5759258  34.1953545   7.2258434
  68.5816879  54.4648552   7.6978149  68.9860458  54.7330093   8.5229321
  67.6412125  54.4826126   7.8750858  41.6289558  57.7057457   3.0819435
  42.1916122  57.5732384   3.8448932  41.2442665  56.8451614   2.9156833
  73.4686432  42.5404854  76.5750198  74.1766510  42.8653030  76.0187302
  72.8898239  42.0695686  75.9754868  69.2994766  14.1777554  19.4085808
  68.7220154  14.9192171  19.5902367  70.1826324  14.5273075  19.5272331
  61.9786797   5.7100878  64.6481247  62.1148338   6.6179485  64.3770447
  61.6303215   5.7753005  65.5373001  10.7257490  52.3264885  51.6462784
  11.5549374  51.9901428  51.3063469  10.7307777  52.0845375  52.5723801
  52.1724052  14.4712954  87.1059113  53.0119171  14.0823994  87.3512878
  52.3999062  15.1529694  86.4736176  74.6798096  36.6487198  66.6289597
  75.4651566  37.1528397  66.8418274  75.0081558  35.7794495  66.3991928
  41.9865837  63.3021088  23.4829998  41.4389076  62.8008995  22.8787861
  42.3094521  64.0363846  22.9606762  54.7885933  23.8102398  65.0260086
  54.3851280  24.6427841  64.7804184  54.9968605  23.3896980  64.1917419
  55.9458618  19.4372616  83.2301483  55.7768745  20.3773975  83.1683426
  55.6221733  19.1922092  84.0969925  78.4940643   6.9496298  51.3107185
  77.8327408   6.4801340  51.8191032  79.0283127   6.2595835  50.9174652
   4.0508294  60.7523270  78.2119293   4.5003786  60.9608383  77.3929901
   4.7243123  60.3474617  78.7584915  45.3720856  28.5405235  45.3563118
  46.1435318  28.0312481  45.6047859  45.5749359  29.4336777  45.6344452
   1.9507686  38.9819908  28.1910152   1.4280475  39.7693100  28.0389557
   1.7086407  38.7004356  29.0732460  65.0190887  58.4518394  86.7786713
  65.6116333  57.8077888  86.3909531  65.5980988  59.1228867  87.1401672
   3.8998811  60.9026604  83.1812897   4.2762718  61.5710297  82.6087112
   3.6797926  60.1800003  82.5934525  43.0040245  56.2814980  24.0328903
  42.7355499  55.8203697  23.2382126  43.7296982  56.8392258  23.7525883
  81.9468994   4.2150955  48.2017746  81.9476929   3.3509667  47.7900581
  81.6258621   4.0571074  49.0895844  74.9720230  21.8324165  45.2300301
  75.4152679  21.6231537  44.4078522  74.9167709  22.7880020  45.2358665
   6.2390423  31.1775589  80.7213211   6.8087049  30.6674366  81.2970734
   5.8401732  30.5280437  80.1422958  74.1105881   7.1945019  47.3995590
  74.6342697   7.5235820  46.6690140  74.6490097   7.3593740  48.1736069
  40.7205925  44.7767944  78.2724228  41.1413841  44.2830963  78.9762878
  40.7150040  45.6816101  78.5846939  66.4776306  52.1927032  60.6655350
  67.3161163  52.5786591  60.4121323  66.5874481  51.2553177  60.5059052
  82.5176239  25.9693985   4.0048904  82.8635025  26.8526573   3.8766096
  81.6662903  26.1036930   4.4213371  64.9153137  43.7494659  50.5527725
  65.2052536  44.2120934  49.7665520  64.8256149  44.4350548  51.2147064
  48.3090668  19.4908104  45.5848122  48.3983841  20.0751343  46.3376846
  47.6835556  19.9333019  45.0110779  85.4979630  14.9811811  57.4222794
  86.4452515  14.8914595  57.5263405  85.1513519  14.9082632  58.3115311
  72.4268036  50.8905792  36.3731575  72.3538437  51.7363091  35.9308319
  71.6019287  50.7976227  36.8497849  48.5079689  58.2361641  10.4602013
  48.1158867  59.0457420  10.7874432  48.6168785  58.3853607   9.5209942
  76.0615387   1.1945416  76.6148911  76.4784546   0.7785285  75.8603439
  76.7394180   1.7634847  76.9795990  48.3591347  61.3720970  37.2109680
  48.3430023  60.5748825  36.6814232  49.1165733  61.2624779  37.7858582
   6.6742578  59.4969597  16.9529686   7.3060999  59.6729279  17.6501350
   6.3088136  60.3553047  16.7386703  25.9425354  43.6384468  18.4259739
  25.2508793  44.2161789  18.7485752  25.4979382  43.0501251  17.8156929
  16.0911503   2.3128839  88.5848465  15.8175936   1.9620132  89.4323654
  15.2729311   2.4532683  88.1083603   2.0356421  32.1358795  27.3201542
   2.5126746  31.6363983  26.6574383   1.3812951  31.5235958  27.6565590
  74.1379471  33.5802536  59.8918839  75.0177689  33.2650185  59.6850586
  73.5577316  33.0401688  59.3553352  15.6284876   6.0708184  72.8135529
  15.3258553   6.6739168  73.4924622  16.0619831   6.6319900  72.1705933
   5.5270815  35.4677849  61.1236038   4.6473470  35.6677856  61.4434471
   5.4039612  34.7248650  60.5327225  15.1551743  17.3937912  84.8334503
  14.4534569  17.5272827  85.4706345  15.9004164  17.8745213  85.1936493
  55.1851082  16.6880341  24.6365795  55.1363487  17.3066978  25.3653507
  55.2024155  17.2398949  23.8546696  50.0476837  35.1771317  79.8179779
  49.9172401  34.6897354  79.0045547  50.7472610  34.7055969  80.2701721
  46.3337097  44.9751892  17.9257336  46.3349609  44.6545563  18.8276348
  46.4382324  45.9230690  18.0083694  44.8531532  62.8741455  25.1720562
  44.9418640  62.2675209  24.4369564  45.7184601  63.2742119  25.2582092
  36.9914627  67.6402130  12.3552437  36.0421753  67.5181961  12.3413181
  37.1903419  68.0669937  11.5218534  48.9632607   7.5534511  11.3239918
  49.8042717   7.9225650  11.5935965  48.5118790   8.2775869  10.8902693
  84.7285995  62.2510643  43.0859642  84.9415588  62.4208794  44.0035896
  84.8648453  63.0917015  42.6489334  15.8632231  34.7552757  85.2294312
  15.9768076  35.7012444  85.1373672  16.3545303  34.3826790  84.4972916
  31.1683655  44.2610550  20.9599781  30.9805584  43.8446007  21.8011246
  30.7018375  43.7256432  20.3181705  20.7153435  14.8869333  68.3923569
  20.9992275  15.7423439  68.0699997  19.9458923  15.0765877  68.9292068
  74.5162201  20.8740959  77.2872772  73.8761902  20.1928024  77.4932632
  74.0761948  21.4293842  76.6436462  28.4185295  40.5973053  78.0502319
  28.4399261  40.6331787  77.0939407  27.7098618  39.9860458  78.2511826
  42.2977638  62.8316154   3.1730034  43.0437393  62.2503548   3.0250604
  42.0571289  62.6844025   4.0876904   6.1633630  39.8702316  20.0114555
   6.2344446  40.4562874  19.2579842   5.5505133  39.1910858  19.7296658
  63.0584488  14.6326323  36.6197472  62.1259117  14.4207830  36.6613159
  63.4925308  13.8844681  37.0296898  18.3277016   6.8563094  84.0087967
  17.6717396   7.0305943  84.6837540  18.9608746   6.2778239  84.4338531
   9.7354012  57.4850464  23.4655800  10.3627415  56.8885956  23.0570183
  10.2756720  58.1795731  23.8423729  59.5986023  31.7336369  36.4814911
  59.6670265  30.7967758  36.6654549  58.8825150  32.0357590  37.0402145
  41.8702164  26.9023190  16.6373348  41.2429619  26.9592972  17.3581257
  41.3711586  26.5207310  15.9151402   0.1037674  10.9995127  26.8770084
   0.2736015  10.4566946  27.6469021   0.0940561  11.8956738  27.2132111
  76.3698807  45.6258507  43.8758545  77.2409439  45.6825790  43.4830856
  76.1440201  46.5311775  44.0894051  35.1704636  68.2432251  31.8971691
  35.7420731  68.5028915  32.6197128  35.4189873  68.8210144  31.1756229
  16.7490311  49.9196930  72.1895599  17.2383480  50.7265663  72.0290909
  17.0709324  49.6086121  73.0356369  44.9628601  31.2879696  26.0958195
  44.2400246  30.8610764  25.6359253  45.3557625  31.8651371  25.4410381
  34.3820190   3.3608408  87.0926514  34.7465935   2.6172144  87.5725861
  33.8868675   2.9639030  86.3760605  60.6147690  30.9578514  28.3053379
  59.8914719  31.5720882  28.4309826  60.5017471  30.3093681  29.0002670
  23.2220688  16.4452286  73.7679520  23.1002769  15.8724728  73.0107574
  22.8695259  15.9462862  74.5048447  22.9431076  53.1236229  69.9134750
  22.7155724  52.6807899  70.7310028  23.7484264  53.6000481  70.1152496
  61.4346466   8.1651726  84.2531357  61.5915184   8.2895470  83.3171082
  61.9736328   8.8329735  84.6771317   4.9573383  16.7906475  82.1085892
   5.2435622  16.4516888  81.2604065   4.4344053  17.5630550  81.8937454
  49.2672653  24.2081718  58.0979843  49.4016991  23.3054333  58.3864708
  50.1254311  24.4881783  57.7795868  64.9930801   0.7372684  86.0333023
  65.6092834   0.2026575  85.5325851  65.5119324   1.0846463  86.7587967
   8.1966276  17.1241398   4.4331927   7.9965611  16.5143108   5.1433439
   7.5173182  17.7956123   4.4955955  42.5708733  70.3456573  47.7234001
  42.8082390  70.8780518  46.9641609  41.9244118  70.8728104  48.1929054
  44.3514061  38.3885612  71.9505463  43.4725800  38.2368965  71.6028366
  44.2662964  39.1822281  72.4788284   0.6804128  24.1349621   9.4410906
   0.7102208  24.9527931   9.9375753   1.4357588  23.6371708   9.7539587
   1.7510234  27.2150345  25.4139957   1.7485367  26.4349461  24.8593006
   2.6775901  27.3859215  25.5828247  84.3025665  29.3285809   7.8986878
  84.4466019  28.4027138   7.7030988  84.0098190  29.7059002   7.0691314
  70.8443222  70.6386414   1.2412971  70.0438919  70.5729904   1.7620953
  71.5016403  70.1657486   1.7517271  80.8841095  37.2751656  48.9671707
  80.3324203  37.0204659  49.7067604  81.4043655  36.4946480  48.7764740
  61.4254837  63.0447350  49.4717331  61.7747879  62.3718796  48.8873672
  60.8450546  62.5684853  50.0654716  10.1063366   2.7198081   6.6082435
  10.0329895   3.6741807   6.6132364  11.0118055   2.5505366   6.3480392
  62.8096390  10.9452639  35.3218117  63.3412666  10.1521101  35.2546425
  62.7850723  11.2933321  34.4304810  21.4187317   5.4719529  11.2797594
  21.4118481   4.6009173  11.6765995  20.4937668   5.6995034  11.1854544
  31.9960575  44.9819565  24.3457947  31.0733395  44.7278938  24.3623295
  32.0015068  45.8364868  23.9145412  86.4648209   2.9494584  29.1537476
  86.1501465   3.5394833  28.4688511  86.0869675   3.2971060  29.9615822
  18.9628258  55.8704681  45.4693527  19.5153828  56.1772423  44.7504654
  18.0737972  55.8950882  45.1154366  61.7466660  59.6534309  33.5890198
  61.9561653  59.0223427  34.2775497  62.2927132  59.3898811  32.8483391
  23.1023178  39.3300972  57.2397385  22.3971252  38.7478981  56.9569321
  23.8149586  38.7407112  57.4867249   2.9406979   6.9074764  71.5320892
   3.0444522   6.7988162  70.5867538   2.4805048   7.7412663  71.6282578
  21.7245274  59.6895981  57.6153564  22.4506817  59.8753052  58.2107086
  22.0267620  60.0044212  56.7634315  83.6519547  53.0447388  60.7691193
  83.3064651  52.3116989  60.2596893  82.8941727  53.6097145  60.9201050
   8.8822098  65.3501358  67.7962799   8.1020565  65.0419846  67.3351593
   9.5313921  64.6609039  67.6557312  10.0468159  61.3298531  83.1253281
  10.9092178  61.0006218  83.3785095   9.9535046  61.0757370  82.2072067
   0.9028134  36.7454414   3.1734614   1.7462380  36.6312332   2.7354851
   0.6010287  37.6086807   2.8906589  65.2804794  42.8466721  80.0182495
  65.2385635  41.9229813  79.7707291  66.2155304  43.0513420  80.0223541
  71.5434341  20.5952740  80.6034164  70.8327484  20.6057034  81.2445526
  71.3301239  21.3052063  79.9978333  21.3190346  59.7294807  33.2280235
  21.6605453  59.2456512  32.4760208  21.2707558  60.6368828  32.9271545
  43.3444595  58.1679420  52.8453865  43.4934006  58.6550980  52.0349960
  42.8658791  57.3859634  52.5702553  81.7515259  35.5508575  19.9482231
  81.2794342  35.4118652  20.7692242  81.2513809  35.0577354  19.2979012
  41.4531021  70.2256165  68.3422165  41.1694794  69.3115311  68.3577423
  40.9510307  70.6200943  67.6290894  62.9234772   5.5322251  40.3758125
  62.5396729   5.0244336  41.0907059  62.1705284   5.8762336  39.8952332
  23.1120148  41.6677551  58.8883476  24.0553093  41.8105240  58.9660873
  23.0302162  40.9343452  58.2787132   3.0573940  20.2967243  61.4906235
   2.3042674  20.8146648  61.2064247   3.5368309  20.8761444  62.0827789
  28.4784374   9.6494303  84.9224014  28.5221024   9.0521584  84.1756821
  29.2028332   9.3801451  85.4871750  82.5461731  61.8282852  37.4709129
  82.2080536  60.9567719  37.6767693  83.2967606  61.9380341  38.0546989
  52.3786621  32.8006172  68.4395294  51.8556709  32.0826492  68.0828323
  52.8772621  32.4022980  69.1529465   5.5561695  39.1672096  38.6430473
   4.6329660  39.3953362  38.5340309   6.0245724  39.9897232  38.5005760
  69.3941650   6.0719228  75.2381821  68.4739914   5.9499769  75.4719467
  69.3692169   6.4950824  74.3799667  48.8183556  40.5820961  80.7521286
  48.5857048  40.3668556  81.6553345  48.4721527  39.8543167  80.2356873
  76.9237976  34.8348427  32.0434723  75.9948425  34.6081047  32.0002289
  77.3767395  34.0481300  31.7398968  37.7408752  54.9734116  69.6445312
  37.7265244  54.0759315  69.9770279  37.7956200  55.5187263  70.4292984
  68.9465866   2.9569473   5.7861047  68.4045715   2.1680057   5.7910752
  68.4674454   3.5732265   5.2321596  16.2628994  53.7081985   9.0195074
  16.3527641  53.2805290   8.1678886  17.0927486  53.5341568   9.4636822
  25.9106693  36.5979233  53.6399879  25.2209473  36.0138626  53.3247261
  26.3528786  36.0979271  54.3260536  78.9737167  69.9540024  28.1516991
  78.8744202  70.0563354  29.0982189  78.1706696  69.5140381  27.8728085
  46.5500984  55.9476585  47.7878265  46.2234001  55.1610222  47.3511314
  47.4975204  55.9197845  47.6542473  43.6369820  66.3061829  61.6019783
  43.0101852  65.7005386  61.9976501  43.8919525  65.8846741  60.7812767
   9.2344894  25.8822269  -0.1197236   9.6600647  26.6512718   0.2593398
   8.6762104  25.5472107   0.5819312  17.5491791  38.5675697   5.1998825
  18.1019135  38.3189888   5.9407763  18.1588593  38.6656761   4.4685163
  55.5364151   1.3263862  15.7839260  54.9068146   1.8337801  15.2716856
  56.1575241   1.9765744  16.1121159  43.9899101  43.0613861  33.3602180
  44.8462105  43.2931976  33.7197227  43.4630280  43.8533859  33.4667969
  73.2295685   3.3001838  15.5910959  72.7313156   2.4902792  15.4814243
  73.6069565   3.2323213  16.4681396   6.0355635  17.7672634  60.9907455
   5.1794972  17.3433208  61.0511971   6.3911548  17.7165241  61.8779945
   8.1113205  24.1227665  28.0630322   8.9507952  23.9004021  27.6604557
   8.3446808  24.4956665  28.9131603  82.2119064  45.4963417  81.5046158
  82.8328094  46.0334702  81.0124817  81.9740677  44.7919922  80.9016647
  23.5542736  38.0770302  79.2977753  23.2158489  37.5664291  78.5622559
  22.8483009  38.6873970  79.5105820  28.0332546  44.6704178  51.4383392
  27.1708164  45.0104561  51.6766853  27.9453888  44.4174919  50.5193520
  71.3087616  58.5009918  76.2028961  70.4931412  58.4143715  76.6963425
  71.9862442  58.1904831  76.8035889  42.8415680  12.8249063  69.7728500
  42.7948952  13.2624722  70.6229019  42.5576324  13.4896564  69.1453781
  58.6548157  30.3899422  22.4258614  59.3804626  31.0021420  22.3038597
  58.2122345  30.6976852  23.2168407  62.4357910  63.8513374  45.4659500
  62.2344322  64.7777176  45.5982628  63.2636871  63.7178917  45.9274826
  86.0242767  24.5970097   7.1659498  86.7262878  24.4112759   7.7895770
  85.3641281  23.9265442   7.3417683  20.0752335  69.9926987  77.8814468
  20.0222244  69.3603210  78.5980530  19.3383598  69.7716141  77.3119125
  82.7436523  69.7299728  48.5341873  83.1805420  68.9113388  48.7691269
  82.9833679  69.8752975  47.6189537  28.0065498  13.0964870  37.2996788
  27.2001667  12.8708410  37.7634277  28.4228992  12.2536879  37.1191940
  47.6640701  52.8025894   1.1553438  47.8632507  53.4707565   1.8111718
  48.1343079  52.0247383   1.4554420  28.3506317  34.6363754  88.1986694
  29.2429695  34.7815971  87.8842239  27.8055439  34.7110291  87.4153824
  23.2485485  59.2800674  11.2737350  22.5310402  58.7230568  11.5756474
  22.8254986  59.9367867  10.7205830  75.5650406  66.9155045   3.5204964
  75.3154755  66.1607285   2.9873364  75.1116714  66.7812576   4.3527617
  85.0132599  15.9915600  61.9236908  84.6444626  16.6549702  61.3405037
  85.9590912  16.1312389  61.8775711  18.9160290   7.1779284  20.7182693
  19.7934055   7.2818489  20.3499756  18.9089661   7.7503095  21.4854469
  42.6217308  48.4697647  67.6816406  42.7526588  48.2500687  68.6040421
  43.0773964  47.7770195  67.2034149   0.4188021  50.2769089  10.9220543
  -0.4200758  50.6748047  10.6892557   1.0339479  50.6176949  10.2726765
  37.2331963   2.3403652   9.6286020  38.1302185   2.2574966   9.9521999
  36.7782326   1.5778080   9.9860191  82.5376434   7.0753350  11.7842703
  83.3779449   7.4238777  12.0820122  82.5868912   7.1147494  10.8291512
  26.1091862   5.8994522  24.1535931  26.8078403   5.2467532  24.1077709
  25.7583523   5.9376316  23.2638245  48.3162041  46.8773918  33.9009552
  49.0909042  46.8272858  34.4609222  48.2910614  46.0330429  33.4507637
  64.4022141  59.6846161  62.3559456  63.9563446  59.8693352  63.1825714
  63.7407036  59.2478867  61.8193855  60.7894096  34.7282333  30.7687263
  60.2623596  34.0395508  31.1739025  61.6880493  34.5270615  31.0299015
  49.6802368   3.2382905  13.4964161  49.5639420   3.0097766  12.5741968
  49.6562157   4.1950784  13.5109625  27.9684277  55.1433220  68.2323990
  28.7238312  55.5696220  68.6372070  28.1945496  54.2132568  68.2235413
  47.4340935  68.0687637  63.2587051  47.6599159  67.3022919  62.7316780
  47.4132080  67.7430038  64.1585236   7.8682489  64.2747803  14.1487408
   8.6120567  64.4112015  13.5619097   8.2622795  64.1723938  15.0150490
  76.5903702  21.2418251  58.7999878  76.1816711  22.1071262  58.8212433
  75.9395065  20.6797867  58.3796082   3.7046564  19.0840473  81.6764526
   3.6845343  19.7469196  80.9862137   3.1726005  19.4550304  82.3803864
  50.4179535  46.2986679  47.6387939  49.5428200  46.1754341  47.2711182
  50.9396133  46.6323051  46.9088669  47.0599442  45.8250237  88.5873413
  46.8905373  46.7423286  88.3726578  47.5639534  45.8584595  89.4004135
  67.5343246   6.1045113  66.9002228  68.0883026   6.5573726  66.2644119
  68.1237030   5.8941936  67.6245346  24.0351601  53.7963715   8.9459476
  23.5639591  53.0066528   9.2115479  23.9404678  54.3929176   9.6885099
  86.1037979  25.4599571  17.7476921  85.9444656  25.4165421  16.8048458
  86.1695023  24.5452213  18.0218658  20.4732151   0.8022510   8.8337908
  19.7370090   1.4082649   8.9173374  21.1368084   1.1477841   9.4308529
  29.3510742  47.8112793  50.7615280  28.8521786  47.5062828  51.5193634
  29.6169949  48.7013741  50.9922943  54.3969383  60.8908424  22.9611740
  54.8806839  61.6193504  23.3503952  54.1070061  60.3689308  23.7093601
  34.5731888  64.7836304  36.7876244  34.4720879  65.2060318  37.6406136
  33.6912804  64.7812195  36.4155197  69.8400650  13.5409298  30.3330288
  70.7878647  13.6634483  30.3868217  69.5092239  14.3752031  30.0002155
  74.4872131  61.6714554  18.7040081  74.8839417  61.2539864  17.9394417
  74.9429474  61.2845764  19.4515820  19.8758259  26.0912113  21.6024647
  19.4872246  25.5292816  22.2728786  20.2666168  26.8142738  22.0930729
  62.5032883  69.6690598  11.6259203  62.2401161  70.2053146  10.8779917
  61.6934547  69.2497635  11.9167671  27.2125072  18.5685444  76.2012405
  27.8899345  18.1461449  75.6731262  27.6918964  18.9837055  76.9182205
  78.8276291  50.7961197  32.3440590  78.5985260  50.7128258  33.2696953
  79.3226471  50.0008316  32.1473389  37.2603951  67.5757065  57.5157928
  36.6283035  67.9500504  58.1294365  37.7063522  66.8934860  58.0177269
  18.9884224  55.5546761  76.4963150  19.7028446  55.9324532  77.0092697
  19.1816273  54.6175346  76.4704666  48.1272697  46.8190193  30.3936119
  47.8500557  47.7237244  30.5381565  48.9932861  46.8949738  29.9930172
  75.6580658  50.2863464  49.1467819  75.1707840  50.6932869  49.8631554
  76.4411697  50.8284569  49.0514679  78.9786148  19.8925209  15.1010895
  78.0925522  19.7592049  14.7644119  78.8979645  19.7621212  16.0459290
  68.9695969  64.6668930  68.2387848  68.5403976  63.8122902  68.2796936
  69.6492004  64.6260529  68.9116135  60.1155434   8.9659710  67.0499039
  60.4746971   8.1534777  66.6933975  60.0009232   8.7878876  67.9833755
  44.6700706  64.7918320  59.5656509  44.6854172  64.0836411  60.2094421
  45.5893021  64.9253922  59.3345451  81.6791458  61.9777832  34.8840714
  80.8397141  62.0008698  35.3434868  82.3181686  62.2600250  35.5384560
  69.9569244  56.7997437  47.6256065  69.2042389  57.3759956  47.4928131
  70.0430756  56.7335701  48.5766220  17.2486172   7.6995716  18.5096188
  16.4525528   7.3145046  18.8760014  17.9362450   7.4671001  19.1336021
  59.5525932  43.3345337  46.4224663  58.9534454  42.6938820  46.0392914
  60.4131165  43.0921974  46.0804100  57.2143860  40.7257347  63.6827316
  57.2649345  41.2963066  64.4496231  57.5947838  39.8974113  63.9749870
  68.3778992  17.2718124  78.2266083  68.7533188  17.3896713  79.0991898
  67.8654938  18.0663528  78.0770111  50.1361427  46.8729210  82.5253525
  50.0376854  47.8153801  82.6606674  49.6498756  46.6944351  81.7204208
  67.2792053   5.4950242  15.8802843  68.0379791   6.0357189  16.0996990
  66.7303162   6.0613871  15.3378935  71.5181885  46.7301712  73.7643356
  72.4522018  46.9290733  73.8297958  71.1930237  47.3264656  73.0898438
  47.7478485  57.8750877  18.0147953  48.4302940  57.6237068  18.6371384
  46.9410744  57.8721199  18.5299034  83.7175980  29.3182373  30.5028439
  84.5515671  29.5976067  30.8805733  83.8993759  28.4539566  30.1337795
  57.7343140  49.9348183  41.1441727  58.4026718  50.3678131  41.6752472
  58.2270050  49.4932899  40.4524078  28.3860741  47.4411659   9.2301054
  29.2702522  47.4450188   9.5967741  28.1773224  48.3660126   9.0985212
  54.9753647  63.9725876  40.2689552  54.1453781  63.5054321  40.3644638
  54.9767151  64.2752914  39.3608818  24.3646221   6.1330180  25.9896450
  24.8886032   5.9836330  25.2026501  24.0387325   5.2653270  26.2286816
  56.0057983  69.4351578  47.1632004  55.4476471  68.6664734  47.0456543
  56.8982811  69.0951767  47.0990067  79.1979828  13.6252432  50.6271896
  78.4292679  13.2526693  50.1953392  79.0693436  14.5720463  50.5702095
  51.9744186   5.0695453  12.1731024  51.4575615   4.4516320  11.6561155
  51.5026932   5.1408539  13.0029345  67.2476120   5.2494926  43.1005020
  67.8338165   5.2283077  42.3440933  66.4055328   5.5312576  42.7431030
  11.4176655  20.2691689   8.7008810  11.9376383  19.8619099   9.3937025
  11.1481676  19.5393543   8.1432314  42.3278084  30.9919167  66.2576141
  41.6351395  30.5253029  65.7899475  42.0300713  31.0137177  67.1670685
  14.8148632  33.3542061  18.4436588  14.8005447  32.4151154  18.6284275
  15.0531702  33.7588158  19.2777653  39.3160934  21.2189903  18.8764133
  40.2099266  21.3840370  18.5763226  38.7918282  21.2130527  18.0755749
  36.2050781  57.9177055  62.8506508  36.0748978  56.9803009  62.9940109
  35.5427132  58.3381310  63.3990517  11.2690783  58.5518341   0.3876724
  11.2035389  59.3299637   0.9412527  12.2093163  58.4302444   0.2557617
   2.6791270  33.0923920  15.7748013   2.4034007  32.6512794  16.5783119
   2.5684724  32.4332047  15.0896273  66.2901459  10.8055286  71.6459732
  65.4749985  10.5065928  72.0489655  66.5503769  10.0865564  71.0701294
  74.8514404   1.3882145  11.4168491  75.1345139   2.2988064  11.3336315
  75.2152939   1.0998336  12.2539167  33.9041061  18.5811691  83.2765808
  34.3697968  18.7690811  82.4616852  33.1187439  19.1267891  83.2349243
   5.3967104  61.1538620  38.8384972   4.9430456  60.9145393  39.6466751
   6.1223001  61.7079201  39.1261978  69.8998108  32.5502167  76.6789932
  69.2499542  32.5327072  77.3815689  70.0886993  31.6282196  76.5044174
  49.9579773  48.2010498  62.4294777  49.9729042  49.1252518  62.1807671
  49.7409401  47.7386436  61.6199646  85.1682358  46.9229660  16.9948425
  85.3312759  47.8573837  16.8663368  85.3913879  46.7648315  17.9121380
  76.7882233  11.2946711  32.5000191  77.1826324  11.3990002  33.3659248
  77.5082474  11.4495993  31.8886280  15.9664993  18.3178082  11.2241011
  16.5352802  18.7973957  11.8263597  16.0993366  18.7449398  10.3778477
  76.1425934  15.1495619  70.2334442  75.8041763  15.4384804  71.0809326
  75.4744720  15.4204578  69.6037903  81.3747482  37.8492012  75.6532135
  81.8262405  37.0591774  75.3561401  82.0067062  38.2857590  76.2244263
  12.6367474  34.8885841  82.3087540  12.5442734  35.2945938  83.1706314
  12.4392290  33.9638214  82.4571991  79.1348801  58.3253555  67.0786209
  79.0599823  59.1925964  66.6804810  78.3876648  58.2699242  67.6742859
  36.2076607  49.6309395  64.3558121  36.1249695  50.3967857  63.7875900
  37.0319824  49.2233963  64.0900345  18.3396893  59.7507515   2.6195879
  18.7125492  58.8790627   2.4877999  19.0917473  60.3415298   2.5793443
   9.8541822  10.2054873   2.9643369   9.9098768  10.4039078   3.8990879
   9.3161287  10.9092340   2.6017470  47.9455032  18.5575275   9.7752171
  47.4100342  18.1239815   9.1107302  47.3376846  18.7379532  10.4923201
  51.7463264  15.9114332  42.0108795  51.2936363  16.5600204  42.5499916
  51.4872437  16.1226635  41.1139450  59.1092415  25.1457253  26.1370811
  59.9462852  25.0570488  25.6813126  58.9698753  24.2934704  26.5499630
  21.3890247  71.2146072  12.1841717  20.7182217  70.8385010  11.6142645
  22.2039337  70.7999878  11.9009027  35.4521408  23.9575367  76.0845718
  34.8271446  24.5684166  75.6941299  35.2020721  23.9163475  77.0076065
  62.6857719  14.4296265  41.6222191  62.5310974  13.4913588  41.7315941
  62.4147644  14.8157377  42.4551086  52.6269760  58.8244743   8.3332729
  53.4324074  59.3412666   8.3541403  51.9914703  59.3517532   8.8173609
  39.1133385  19.5881939  16.1810513  39.6570930  18.8418884  16.4332256
  38.2305412  19.3469887  16.4616184  42.4763069  38.3736839  64.2036591
  42.0145798  38.4936714  65.0335007  41.7840691  38.3713150  63.5425720
  85.8721542  28.2836895  54.7179298  86.2911911  27.9223747  53.9368477
  86.6002274  28.5668049  55.2710876  59.2072601  50.6244392  68.9641953
  59.9920197  50.3750725  68.4761353  59.5132599  51.2799034  69.5910645
   6.5489650  17.3592129  63.5719261   5.7546544  17.4271355  64.1017303
   7.2607641  17.3237171  64.2109222  70.5722351  44.3990707  87.4401855
  71.1854172  44.1097031  88.1158447  70.0480194  43.6225662  87.2440643
  61.0566406   3.2823801  77.4069290  61.3794098   3.5482440  76.5459061
  61.0993004   2.3262196  77.3939514  30.8943291  41.7664528  69.0063477
  30.2823219  42.4964752  69.0998535  31.6926041  42.1658974  68.6607513
  64.4603271  26.7400379  50.9106979  63.6342850  26.3293533  51.1660995
  64.9583054  26.0371227  50.4933815  71.3078308  19.2441521  15.9018078
  71.2956467  18.4418869  15.3798370  70.4116592  19.5766182  15.8509417
  21.2743301   6.8891129  23.7104549  22.2177563   7.0220389  23.6182060
  21.0010853   7.5472383  24.3495464   2.0253582  62.6810951  32.2509117
   2.5503309  61.9829674  32.6423836   1.4028908  62.9254494  32.9357910
  42.6912270  20.2172546  64.8747940  42.5960464  21.0441017  64.4020386
  41.8221626  19.8179092  64.8362579   7.3778639  14.7123642   6.2970710
   6.9358654  14.7446604   7.1454964   6.6771321  14.5392723   5.6683850
  32.9250870  15.8866310   7.8620443  33.7109985  15.4369745   8.1725016
  32.8758698  15.6679592   6.9314575  51.4033928  51.0696945  40.9410477
  51.9941864  51.4657860  41.5815964  50.5268822  51.2999039  41.2492065
  77.9808350   1.4228064  64.4818420  77.5265274   0.7823982  63.9343834
  77.5314407   1.3781270  65.3258133   6.7783284  40.3219147   2.3814754
   6.3712287  40.0779305   1.5502280   7.6605568  40.6056747   2.1419222
  41.1872292  56.6258926  42.7565956  40.7432442  57.2681313  42.2028465
  41.2443581  55.8399277  42.2132454  43.0134659  59.4875946  34.9061928
  42.6959648  58.6632652  34.5375366  43.8589821  59.2656517  35.2961578
  86.0234299  30.9118900  85.3567810  85.3199921  31.5025005  85.6261978
  85.8893585  30.1238441  85.8833237  47.3864441  23.7073040  67.8209991
  47.3852882  23.5733452  66.8732147  46.6182976  23.2280064  68.1315689
  23.1222210  60.5758171  74.6621399  23.5045662  61.4530602  74.6842575
  23.7507763  60.0286484  75.1330490  50.8326721  22.7317505  23.0153351
  50.4761353  23.5632229  23.3280125  50.0649223  22.2294197  22.7424679
  70.8697281  10.0601606  14.4959641  71.4654160   9.6200256  13.8896055
  70.2331772   9.3872175  14.7371788  47.1842728   9.2658148  52.8885574
  47.2317429   8.3299570  52.6932449  47.4862671   9.6933594  52.0871620
  35.5486259   9.2083578  78.5827942  34.7197762   9.6184978  78.3357620
  35.5520706   8.3738956  78.1138687  23.7837715  40.1772461  52.0442238
  23.0946579  39.6772194  52.4816360  24.5986729  39.8300323  52.4070053
  62.8231964   6.4241052  37.5378456  62.0685883   5.9008951  37.2675743
  63.5435829   5.7960205  37.5906487  62.5846596  62.3790627  21.4585609
  63.4069176  62.8641434  21.3891354  62.5091667  61.9150658  20.6247520
  13.7021494  38.7693710  55.7957764  13.8888721  37.8444824  55.6346931
  14.0535259  39.2217560  55.0288925  27.7971611  56.0861626  43.8502655
  27.3494797  56.7718391  43.3546257  27.1729527  55.8368874  44.5317764
  25.0135193  46.6593475  23.5932617  24.7182064  45.8176346  23.2460709
  25.3780384  47.1164513  22.8353615  72.2601013  34.2391663  62.1618843
  73.1885529  34.0072784  62.1827850  72.2084503  34.9649582  61.5399628
  49.6314240  14.0091791  88.1131210  50.5194206  14.1893654  87.8045273
  49.0795860  14.6201220  87.6248016  36.5428200  66.4240723  76.8981705
  36.8086205  65.6480942  76.4047775  37.1241112  67.1173553  76.5856171
   2.3520429  68.3410187  60.1830101   2.5361125  67.7963943  60.9483490
   3.0225317  69.0236969  60.2079964  35.7878799  37.7061462   5.0162392
  36.7231140  37.7070847   4.8123612  35.3565102  37.7287140   4.1620483
  28.7445812  60.3251572   2.3258955  28.2784595  59.4892426   2.3404074
  28.1251507  60.9513321   2.7006538  14.0173492  28.5674534  57.8190804
  14.3079853  28.1257534  57.0211678  13.1837063  28.9718914  57.5788727
  65.7499847  24.9586697  58.5102921  65.7470474  24.1235466  58.0425377
  65.1048050  24.8446140  59.2081184  54.7455025  10.4497910  28.5191612
  54.3728104  11.2658567  28.8528843  54.9905853   9.9598045  29.3040676
  29.0150337  58.5474701  15.8255959  29.9312019  58.7880249  15.9634466
  28.7684517  58.0771713  16.6219921  36.3371735  45.0474739  52.1698265
  36.0725937  45.9672394  52.1535797  37.2602425  45.0682068  52.4223175
  35.4533958  54.1154861  18.7239494  35.3985481  53.1620827  18.7890663
  34.9840126  54.3278542  17.9172192  38.5369797  24.8183556   1.6932528
  38.8704567  25.6953411   1.8827825  38.4555473  24.7939491   0.7398353
  69.8110657  44.5699692  57.9230194  70.4782791  45.1635323  58.2676125
  69.9561691  44.5698929  56.9768829  43.2278290  66.8791580  37.0062981
  43.4261932  67.4236755  37.7681274  42.4799728  66.3479691  37.2797585
   2.7605395  32.3110580  47.4942856   2.0824811  32.9278297  47.2184982
   3.0859892  32.6668663  48.3211555  18.6003513  61.8498268  60.6246376
  18.1831417  61.3696861  61.3399239  18.9820900  61.1694260  60.0700607
  64.4357986  11.2202959   8.0441017  63.6473045  11.3643770   8.5673132
  64.4994125  10.2685881   7.9638634  74.2507935  13.8083019   5.2756324
  74.5738983  13.2021723   5.9422979  75.0348206  14.2582531   4.9608541
   9.6841488  40.9863167  53.3338928  10.1129675  40.3164825  53.8664970
   9.9561367  41.8154831  53.7272606  47.3124504  53.6666183  82.4491043
  48.1347618  53.1859894  82.3541031  46.6511955  52.9867210  82.5783768
  42.9615631   9.1609926  58.3886757  42.9835472  10.0060959  57.9397354
  43.2866898   9.3489704  59.2691231  27.3684807   2.2380264  15.5429878
  26.7440586   1.5842947  15.2284012  28.1177406   2.1570482  14.9528313
  68.7835922  55.0286026  51.4792366  69.2742386  55.8223495  51.2660141
  68.0558014  55.0226326  50.8575249   0.4169389  69.3051758  18.9874840
   0.6759395  69.9375992  19.6576996   0.9031171  68.5105057  19.2073956
  17.7295532  49.1219788  74.6728287  18.2522526  49.5345650  75.3604202
  17.5089264  48.2595406  75.0246201  49.4357185  34.2539864   8.1298428
  50.1303062  33.9899597   8.7332239  48.6997528  34.4831276   8.6973639
  47.6759758  49.3740921  30.4907475  47.0053139  50.0545273  30.5494671
  48.4976349  49.8554039  30.3935394  52.0532990  57.9547691  29.2845745
  52.4020424  58.3319130  28.4768772  51.1036949  57.9690895  29.1650906
  73.0314560  38.0469360  68.7396469  72.1210403  37.8440094  68.5247269
  73.0791855  39.0022125  68.7022324  61.7827835  60.7700043  77.3770370
  61.2221870  61.5458527  77.3726501  62.2673340  60.8292770  78.2004013
  33.6243477  33.8942566  13.8043480  34.5130463  33.5397491  13.8322248
  33.6885414  34.7371864  14.2533197   1.4742996   7.0563211  26.4278831
   2.0581734   7.4812765  27.0561638   0.7551315   7.6771736  26.3113861
  68.1138840   1.5791610  46.3925896  68.6654053   1.6056253  47.1744843
  67.2318039   1.4170059  46.7270546  78.7070694  49.9205894  17.3447895
  78.7669220  49.9309349  16.3895187  78.6841202  48.9913445  17.5732841
  49.6561546  33.3649635  26.4610291  49.7654877  33.5587769  25.5300522
  50.4451141  32.8777504  26.6985130  10.5743866  35.5891113  12.5029783
  11.3088207  35.3660240  11.9310789  10.5714817  34.9011345  13.1684942
  78.8832855  41.6730499  65.9489059  78.0957184  41.1796989  66.1781921
  78.9081268  41.6534805  64.9922256  71.4590378  51.5319023   9.6071463
  70.7134094  51.1248817  10.0482950  71.2041168  51.5627213   8.6850300
  59.2477913   3.8072453  26.6436005  58.5566750   4.4675603  26.5928688
  59.6460114   3.8099656  25.7731705  53.9217834   0.5009554  64.5873032
  53.8274078   1.4379237  64.4157944  54.3704605   0.4560177  65.4316406
  17.4734287  49.1016083  27.2863960  17.4886112  49.7330322  28.0056362
  16.6602325  49.2911530  26.8184052  26.6291809  54.6874352  15.7040253
  27.0564346  54.7089844  14.8477421  26.0857048  55.4752159  15.7204132
   7.8572388  39.4785080  58.0707664   8.7497215  39.3953552  58.4066124
   7.3205614  38.9870949  58.6926346  77.1228561  40.4043274  70.2292709
  76.3937836  41.0232887  70.1896820  76.7206116  39.5500793  70.0721359
  46.4241371  46.9912186  10.6218328  46.0010643  46.1416664  10.4973183
  47.3068314  46.8729248  10.2709951  27.4377880  50.8446198  45.7992668
  27.0496502  51.6605606  45.4833145  28.3800678  51.0129356  45.8019905
  80.3644180  18.2319126   9.9858742  79.6114960  17.8392372  10.4276247
  80.1510544  19.1634293   9.9312601  33.5333366  25.4602699  70.9256973
  34.0774841  24.7363529  70.6157303  34.0964699  26.2309647  70.8539734
  56.3671494  31.6390057  10.3852396  56.4530525  32.3024101  11.0698919
  56.5133286  30.8080101  10.8372450  54.3405571  25.2889347  22.3027115
  54.2721214  25.8388996  21.5222721  54.2567253  25.9001751  23.0345516
  48.1543961  28.4268875   5.3924546  48.3497925  27.5196972   5.6271043
  47.2922821  28.5925884   5.7739387  13.1810808  17.9393787  86.5455246
  13.2375622  18.2968044  87.4316864  12.8193216  18.6541176  86.0215836
  38.2027130  47.5830536   3.1601503  38.3749504  47.0389404   3.9285934
  38.1244354  46.9597054   2.4379728  21.6422844  37.8778458  12.9699955
  22.5108547  37.4804039  12.9078999  21.4067249  38.0813141  12.0648193
  77.8227844  63.8210640  72.5235443  77.3454132  63.1481247  73.0088272
  77.6010666  63.6579132  71.6067810  14.3087149  53.8767395  19.5598145
  14.3579359  53.0387955  20.0198822  14.1183567  54.5160637  20.2462978
  14.7578573  70.7614670  63.0984535  15.7034512  70.7287521  62.9534950
  14.4261656  71.3149185  62.3914146  59.2887497  43.0193939  14.6765337
  59.0272217  43.5719643  13.9399843  60.0763206  42.5695152  14.3706474
  15.8300905  70.5083008  87.3694000  15.0016050  70.0599060  87.5390549
  15.5762625  71.3283615  86.9459686  10.7197313  53.2051697   3.0892406
  10.6767855  53.4371147   2.1615610  10.1245708  53.8203201   3.5177305
  17.8800964   4.9073887   7.6179352  17.4884796   5.7437496   7.8696656
  17.9327908   4.9453812   6.6629424  36.8877106  65.6892929  47.0850525
  36.0882721  65.2573318  47.3859520  37.3413582  65.9408417  47.8895149
  60.7599716  26.3490849  23.4554176  61.2586250  27.0509834  23.8736458
  59.8837013  26.7156029  23.3369083  59.0126152  63.4398041  68.7660522
  59.4842567  62.7841492  69.2797699  58.4365692  63.8701439  69.3978882
  43.9321251   1.3305689  30.2710667  43.7282448   0.5135624  30.7262211
  44.8883476   1.3514775  30.2332287  60.6542130  22.6395264  16.9791088
  61.5449753  22.9879475  16.9420757  60.6604958  22.0452137  17.7294331
  17.5558395  56.6620255  73.1333466  17.1160202  56.6895523  73.9830704
  17.9823971  55.8053894  73.1120758  35.5547371  69.3126907  37.8234024
  36.3531265  69.8190155  37.6735916  35.3786926  69.4142532  38.7587776
  56.5272293  52.7952614  21.6676788  56.6021194  52.7338028  20.7153950
  57.4033852  52.5852089  21.9908867  43.5764771   0.5625413  45.6210480
  44.3109474   0.2512085  45.0920334  43.3736610   1.4271810  45.2639809
  58.6248894  49.2049789  35.1318207  58.8856430  49.6202354  35.9538918
  59.1995125  48.4432678  35.0554390  80.7771683  69.4385681  63.3910408
  80.4658966  69.5785828  62.4967613  79.9922333  69.5180511  63.9330635
  42.1039963  34.9995270  50.0981522  41.3318787  34.4990349  49.8343811
  42.8435059  34.4964676  49.7571373  46.0927620   0.6052105  49.6588211
  46.0560417  -0.1927743  50.1861801  46.1637878   0.2930875  48.7567329
  48.0615692  57.4969597   3.4948955  48.2708244  56.5951767   3.7382846
  47.9692955  57.4727173   2.5424619  81.4992599  52.8315506   4.4964514
  81.9029541  52.9704857   5.3531637  82.0446243  52.1641273   4.0800962
   2.2855597  57.3654099  58.0473595   1.7820004  56.5932007  57.7897644
   1.8512853  57.6811485  58.8397903   1.5466621  48.5520859  67.5987854
   1.7400815  48.0426559  68.3857422   1.4545945  47.8975906  66.9064026
  80.1657715  24.6019001  45.5508842  81.1197891  24.5572910  45.4869118
  79.8538513  24.2872753  44.7023849  72.1790466  41.8223305  65.9456482
  72.3715897  42.7158012  66.2300186  71.2245102  41.7920151  65.8809967
  86.0487823  22.0780907  24.4292488  85.8981094  21.7586288  25.3188972
  85.1940765  22.0126343  24.0032940  61.1276550   8.9959478  55.6259651
  61.7337456   8.2981424  55.8748741  61.3296471   9.1721592  54.7070618
  53.2011490  41.8586960  27.1194649  54.1002464  41.5312576  27.1448078
  53.2632713  42.7549934  27.4496536   4.8833685  15.5777130  79.5662918
   5.1676531  14.7920589  79.0992126   5.2640204  16.3023052  79.0700073
  32.1835785  67.2175674  54.1519814  31.6793823  67.5955658  53.4314728
  31.8066769  67.6096954  54.9396439  15.4136419  67.2636642  82.5451584
  15.0077057  66.5034714  82.9617691  14.7349510  67.9383698  82.5646896
  78.2988281  60.9316216  51.7443924  77.4018631  60.8524742  51.4197006
  78.8425980  60.8937683  50.9575500  70.5488281  55.8677673  44.6877098
  70.6779251  54.9680634  44.9878807  70.4407654  56.3754120  45.4919815
  63.6969528  65.4555130  20.9537163  63.8618126  64.5164337  21.0384655
  63.6671486  65.7757797  21.8552570  51.2757454   7.5000615  41.0807724
  50.9939842   8.2967167  41.5304222  52.0451012   7.2083302  41.5698662
  32.7302094  64.6895142  50.9428215  31.8614597  64.6283875  51.3400192
  33.3174591  64.8675385  51.6774483  28.8882427  19.2144260  78.2454758
  28.4391842  19.1535950  79.0886154  29.6669388  18.6674519  78.3488388
  40.5423851  23.8000717   4.1700358  40.1929207  24.4456558   4.7843070
  40.7199287  23.0287991   4.7084093  73.4757309  41.6965027   0.3399726
  74.1006241  41.6910744  -0.3850868  72.7905655  41.0849342   0.0702304
  45.7144165  26.7486973  77.5643082  45.5198898  25.8114719  77.5634003
  46.0310020  26.9267445  78.4499130   2.5653117  11.6939220  52.8592377
   1.6488426  11.4648504  52.7048302   2.5417221  12.2784109  53.6168976
   4.8313208  23.9254036  57.0464439   5.3783860  24.7082443  56.9823303
   3.9352701  24.2609444  57.0735703  67.7369461  30.0053520  48.9566650
  66.8800888  30.3791599  49.1623268  68.2199097  30.0449371  49.7821388
  69.3527832  67.1843567  21.7437744  70.0646210  67.0260010  21.1237411
  69.1812744  68.1236801  21.6767235  15.3470497  59.5906944  85.0122452
  15.8189087  60.4234924  85.0172577  15.5636997  59.1875954  85.8529663
  80.6964722  49.2637062  45.7140427  81.4200974  49.6228447  46.2274704
  79.9103775  49.6297569  46.1193886  42.5109138   2.5675502  88.5235977
  41.9693832   3.2884467  88.2022171  43.1363564   2.4045939  87.8175507
  20.8382549  42.1832733  30.1205196  21.0399609  43.0585175  30.4514198
  21.3195972  42.1223564  29.2953949  28.1371975  15.3204336  75.2786636
  28.6064091  15.5389843  76.0838394  27.6805000  14.5040674  75.4816513
  46.2843018  10.3161650  58.8443680  46.9321632  10.9533701  59.1451569
  45.8281174  10.0442629  59.6407356  81.2210693  46.3694572  62.4267960
  80.4860229  45.8676453  62.0744820  81.9597015  45.7611046  62.4030037
  81.0095520  68.8543930  16.7887192  81.0984192  69.7942581  16.6306629
  81.5240707  68.6948700  17.5799522  64.9871674  42.4340057  12.8167257
  65.9308090  42.5772591  12.8891697  64.6234894  43.3062401  12.6644831
   5.7993679  50.8546524  84.0688324   5.1865482  50.1270370  83.9627380
   5.9834352  50.8777885  85.0078812  68.8801651  59.5124626  65.7604599
  69.6402512  59.2359085  65.2485809  68.9573135  59.0299988  66.5835648
   2.1484840   5.8856854  45.2242813   3.0803282   5.6669703  45.2321663
   1.9655167   6.1215758  44.3148270  51.8680573  15.7646828  22.2166882
  52.2296486  16.5506783  21.8071804  51.3665466  16.0926170  22.9631310
  43.4337273  45.5006943  30.5094604  43.4866676  45.2977600  29.5755196
  44.2961578  45.2691040  30.8541489  48.3959541   4.5245066  87.6321869
  47.8543129   4.1656213  86.9292908  49.2923584   4.3009920  87.3817139
  79.9928436   3.6657412  38.7241058  80.7732697   3.7327464  39.2742691
  79.7911148   4.5699592  38.4834290  20.9653053  62.7681236  45.1779861
  21.3526096  63.6375198  45.2798691  21.4064674  62.2307892  45.8359222
  49.1148376   9.7064075  24.3789177  49.6444283  10.2661180  23.8110371
  48.7514076  10.3038406  25.0325432  73.9574432  31.9802723  44.5900154
  74.8601685  31.7739296  44.8323898  73.7000046  32.6758308  45.1951218
  43.9347076  17.5320721  78.4722824  44.0078278  17.8117104  77.5597610
  44.8383484  17.3816090  78.7498245   2.6285715  38.8662872  15.7569399
   1.8577729  38.3449326  15.5326881   2.3032353  39.7650528  15.8080053
  22.8666363  69.2990494  83.3785019  23.3872948  69.5494080  84.1416931
  22.0279102  69.0163879  83.7430191  28.7446289  47.9578781  46.4017982
  29.2583828  48.7557068  46.5273132  28.1023731  47.9724655  47.1113968
  43.6460533  26.7955990  64.6574707  44.3128319  27.4823513  64.6609802
  43.1400795  26.9489403  65.4554062  77.6142883   5.0964584  24.0624828
  77.6188431   5.2639432  23.1200600  76.8803101   5.6136928  24.3941193
  71.2941360  58.6157455  44.3019295  70.3853760  58.3538246  44.1543541
  71.2795105  59.5713921  44.2494431  25.2832642  10.7399149   8.1712790
  25.0477657  10.3799353   9.0263729  24.4481525  10.8352976   7.7133245
  45.4494591   6.2029181  22.8233528  45.7097092   7.0954118  23.0512943
  45.3426437   5.7619328  23.6661777  15.9601364  41.1921539  46.8220139
  16.6036587  41.7977219  47.1899834  16.1372814  40.3594475  47.2595634
  40.9880714  50.7127304  21.7283134  41.4385605  50.2971306  20.9930801
  40.4608307  50.0124893  22.1129074   6.2217307  37.1011086  12.1484451
   6.8319020  37.8186111  11.9778261   6.7201481  36.3094864  11.9455919
  28.0232983  23.1824455   2.8306925  27.9664116  23.4089355   3.7589698
  28.9597015  23.0670452   2.6692586   6.3931012  54.8315964  83.5640640
   6.9758406  55.5794601  83.6957779   6.6134515  54.5071182  82.6909180
  42.5264359   3.3964372  76.5534668  42.5318871   2.9995248  77.4244766
  41.6064568   3.6049645  76.3910370  61.8280144  58.3326988   1.2817650
  61.1431885  57.8511543   1.7458316  61.7543678  59.2291183   1.6092358
  76.1663513   4.1210032  89.1956635  76.4232407   3.5270083  88.4903946
  75.2230301   4.2356462  89.0805740  33.0028725   4.9548717  68.3223801
  33.9567833   4.8913755  68.3698578  32.6877098   4.2820530  68.9258881
  56.9530411  33.9967384  69.2316589  57.6376762  33.6625786  68.6521301
  56.5520592  34.7136116  68.7401886  46.7334137  70.5125885  76.3172379
  47.6045570  70.6722260  75.9541245  46.5044327  69.6343307  76.0131454
  14.1448736  69.4382935  26.5785103  14.8585148  68.9844742  26.1301823
  14.4912310  70.3128128  26.7559814   6.8652134  45.3259506   9.8792915
   6.0507035  45.2136421   9.3891983   7.0503550  46.2634773   9.8245430
  46.8574066  20.8700657  88.5223083  46.2919846  21.6290760  88.6652527
  47.2730865  20.7178402  89.3709869  66.1428986  17.2633629   8.1103649
  66.3144684  18.1998463   8.0114021  66.6074982  17.0179844   8.9104700
  52.7891884   8.6870089   3.4974542  51.9262543   8.3789482   3.7743642
  53.1789818   7.9364233   3.0492198  27.5129604  12.8726139   4.1088619
  28.2437553  12.4759550   3.6346958  26.9357796  12.1380138   4.3173232
  46.0066261  27.8578148   1.0211453  46.6283417  28.4604530   0.6130652
  46.5441856  27.1231499   1.3170015  65.1189957  64.3056488  81.4366150
  65.8573456  63.8597908  81.8516769  64.7726669  64.8811722  82.1185684
  56.9311333  13.0871849  58.0965462  57.4065514  12.3059387  58.3791428
  56.3109856  13.2595329  58.8050270  50.9165421  11.3596907   8.9601479
  50.3379860  11.3484192   8.1976652  50.3230209  11.3642015   9.7111092
  74.8256302  64.0588760   1.7491091  74.2672195  63.2844543   1.8174626
  74.9401932  64.1892242   0.8077713  24.1789837  57.1980858  47.7026405
  24.6398354  57.0820351  48.5335312  23.3047390  57.4965706  47.9533043
  42.2889214  24.9201412   9.9175396  41.6714706  24.7873287  10.6368084
  43.1106186  24.5456429  10.2350254  78.4223404  16.5302448  37.3963203
  79.2829132  16.2080803  37.6643600  78.6117096  17.2070827  36.7465057
  71.7551193  13.3409042  27.2302113  71.7720108  13.7970905  28.0715427
  70.9019318  12.9074516  27.2098656  26.4336891  44.7391357  88.1887665
  27.3303661  44.4236374  88.3012924  26.5284595  45.6781235  88.0289154
   8.6730232  18.9661560  81.7238083   8.4117765  18.2781925  81.1116867
   9.1262054  18.5014019  82.4272690  63.3601265  27.3189449  69.9397507
  64.2672043  27.6220818  69.9003372  62.9860497  27.7796345  70.6907883
  68.9853821   0.7782702  67.9239349  68.8708038   1.7268829  67.8670273
  68.0941772   0.4314099  67.9649124  48.5411034  65.9183121  67.7793732
  47.8515701  65.2606125  67.8699799  49.1866875  65.6818008  68.4453430
  83.6290665  18.4357471  51.2907181  84.3249512  17.9749413  50.8220673
  83.1088257  17.7395992  51.6919174  85.8556061   7.9386263  27.3463802
  85.4115067   8.4254198  28.0406704  86.4348526   7.3341990  27.8104668
  10.1239824  17.8901234  11.6533403   9.4594822  17.2205067  11.4912157
  10.9401999  17.4974785  11.3437433  72.9897308  15.0138998   7.3892536
  72.1204605  15.2567310   7.0704556  73.4226227  14.6230268   6.6302743
  38.1954002  32.3430710  25.9266644  37.2965622  32.0522614  25.7725334
  38.6364441  31.5753956  26.2905159  30.7109528  15.7389917  85.7952347
  31.4917450  15.5125904  85.2899246  30.2310486  16.3483791  85.2343674
  36.1002808  53.2080498  55.7566605  36.3502541  52.5404282  55.1178932
  36.8639221  53.2909050  56.3278160   2.9070196  51.3473167  12.7934742
   3.7356400  51.6167564  12.3972158   2.6481245  50.5684052  12.3010254
  84.9359131  46.1962128  64.8901215  84.4925461  45.6985207  65.5771179
  84.2807465  46.8262215  64.5899887  16.0064106  47.2995071  16.0815392
  16.4441605  47.2868004  16.9326839  15.0817766  47.1594086  16.2856388
  31.0839558  62.2000275  81.5516129  31.6469898  62.7144241  82.1300735
  31.5163345  61.3481331  81.4919815   5.1348667  65.0500870  13.1431942
   5.5609026  65.7395172  12.6338692   5.6998701  64.9325790  13.9068661
  -0.2987961  57.9251976  13.2274790   0.1678898  58.0612030  14.0520630
   0.1800125  58.4559975  12.5909081  26.3338032  64.2671814  35.8455772
  27.0641327  63.7338676  35.5318489  25.6976662  63.6322365  36.1748276
  55.2306900  65.9585953  56.2511978  54.6963463  65.7566986  55.4831161
  55.6517181  65.1285934  56.4749489   2.9847550  34.6257515  35.9552956
   2.2241251  34.0995331  35.7087784   2.8622713  34.8014221  36.8882332
  20.8019257  51.2620621  20.1012058  21.4111881  51.5038834  20.7987404
  19.9390221  51.4897690  20.4472961  17.6975746  68.6781387  82.0878448
  17.3163605  69.4716339  82.4636993  17.0295582  68.0055084  82.2203751
  62.7062073  31.4289150  58.4766159  62.9239235  32.3608093  58.4564629
  62.5063210  31.2099152  57.5664978  60.1099205  23.0417500  34.2352257
  60.6806259  22.9270210  33.4753799  60.3541222  22.3307304  34.8277168
  42.3099861  35.7982597  83.9706802  42.5500145  35.8512650  84.8957825
  41.3590584  35.6889915  83.9758530  65.6012268  13.7198648  56.5213699
  65.3542023  13.0196829  55.9172554  65.8384323  13.2659168  57.3300095
  83.2574310  18.0489731  65.0238419  84.2133331  18.0120583  65.0572968
  82.9733429  17.1925392  65.3432846   6.9625807  53.8703880  57.6374435
   7.5743122  54.5744781  57.4223366   6.3145108  53.8927231  56.9333572
  68.4076309  18.8922176  55.9670143  69.0979614  18.8602390  56.6293259
  68.7532272  18.3800850  55.2359123  51.8191185   0.2733552  58.0680161
  51.2842064   1.0018396  57.7527199  51.3670807  -0.0330230  58.8541641
   4.7141776  43.5253143  28.0478401   5.2088180  43.5061760  28.8671055
   5.3608608  43.3196526  27.3727589  78.1973648   5.5104942  28.6327438
  77.7347717   6.3288226  28.4522362  78.4740372   5.1968198  27.7717609
  67.1543198   1.1307303  23.6988621  67.4560776   0.4441038  24.2936039
  66.1993637   1.0873910  23.7478714  14.3385668  23.9134274  13.7234735
  14.3520699  24.8187618  13.4129639  14.5573874  23.9758167  14.6532345
  33.6075859  28.6705742  73.2263260  34.0931358  29.4673347  73.0126724
  34.2602348  27.9720669  73.1777039  80.2659912  55.8040504  68.0326614
  79.8698883  56.5931625  67.6630249  79.9631577  55.7867661  68.9405289
  64.0822983   8.7524977  87.8351898  64.5545959   8.7844687  88.6671371
  63.1718407   8.5911188  88.0826874  22.1984539  51.6984825  56.2757759
  22.5185890  51.8197289  55.3818817  22.8243542  51.0938492  56.6743965
   6.2412314  49.0617065  47.3960571   6.3748231  49.8639908  46.8913574
   5.5862751  48.5720444  46.8985710  37.9864578  17.8445797   0.5540643
  38.1937943  18.5927086   1.1140149  37.8120575  17.1289387   1.1653533
  34.7158737   0.3077402  64.2138824  34.7529449   0.6546341  63.3225250
  35.1244583  -0.5556661  64.1520691  24.9989872  57.4476891  52.7686958
  24.4414520  57.5564537  53.5391235  25.8453083  57.1738586  53.1222305
   9.8332148  34.7840424  64.8817978  10.0415926  33.8797493  65.1164627
  10.6802082  35.2298050  64.8704910  35.3175926  39.3384552  52.9184685
  36.0846748  38.9969482  53.3780251  35.1152534  38.6718788  52.2619896
  69.6981812  20.4787655  77.6675797  70.2956009  19.7380981  77.7711868
  70.0969543  21.1817017  78.1805038  81.9565506   8.7062035  46.2448959
  81.4608536   8.3915691  45.4889069  81.8383026   8.0266132  46.9085274
  74.7480774  55.7756882  34.0620384  75.3331909  56.3677635  33.5894699
  75.1389999  54.9096680  33.9461823  41.9051132  34.3820038  20.3684063
  42.6505318  33.9110107  19.9959164  42.2722702  35.2142982  20.6662445
  38.6170959  30.7252941  10.0921144  39.1738663  29.9473419  10.1241417
  38.9819260  31.3084984  10.7576981  82.3080673   0.6728967  58.5004158
  82.7888184   0.0281258  57.9813957  82.4936142   0.4354724  59.4089508
  60.3827934  52.0929070  70.9205246  60.9620857  52.7626839  70.5571289
  60.9649124  51.3645020  71.1368408  51.3015900  54.0747299  77.9358215
  51.3613167  53.5004349  78.6992722  51.9718513  53.7467041  77.3363419
  42.9249229  70.6937180   4.9350748  42.4020805  71.0157700   5.6693411
  42.7971115  69.7451782   4.9478731  23.8515072  26.2896137   8.5633965
  23.2092381  25.6022453   8.7401676  24.5099030  25.8662663   8.0124683
  23.6008854  50.5945320  43.0506287  23.3429775  50.8680878  42.1703568
  24.4516830  51.0100899  43.1909409  69.5370789  68.0280457  80.6537399
  69.4367599  68.5518341  81.4486084  70.2161407  68.4801941  80.1530685
  57.7529907  42.0696487  66.1724396  58.4077110  42.7632370  66.0917664
  56.9467278  42.5277786  66.4096909  17.9112968  50.0419388  66.8799438
  17.5043240  49.9814224  67.7442017  18.7420540  50.4906197  67.0372925
  20.6072292  29.7284184  20.0705738  19.6644611  29.6952381  20.2328014
  20.9451294  30.3208389  20.7422066  70.4252472  37.3854599  67.8797607
  69.8996429  36.8842087  67.2562866  69.8267288  38.0526962  68.2156143
  85.1348495  56.9661827  18.1451912  85.0958710  57.6643791  17.4915581
  84.6429443  57.3089256  18.8913784  59.3705826  63.8959923  12.6409187
  60.0354652  63.8425446  13.3274364  59.8576431  63.7749748  11.8258381
  71.9715805  46.2861099   3.2636614  72.0870667  45.7560043   4.0522585
  72.7240982  46.0658035   2.7146471  69.3539810  38.5279465   8.4206228
  68.8537979  38.2902603   7.6398864  69.3943253  37.7211075   8.9340582
  56.3423805  27.2431793  44.3565750  55.7160645  27.7566090  43.8463326
  55.8038864  26.7705345  44.9912910  55.2361298  26.6749249  76.3262024
  54.2887497  26.5815582  76.2262802  55.5020981  27.2223530  75.5874100
  18.1058540  32.6049271  19.5488605  18.9972191  32.8033180  19.8358078
  18.0108051  31.6638584  19.6957989  75.6680603  62.9204559   4.4068828
  75.5381699  63.0307503   3.4649723  76.5614319  63.2266731   4.5629449
  54.8486748  39.8983459  53.9030800  55.2068596  39.4425659  54.6647873
  55.5857849  39.9664497  53.2962303  25.5105972  41.2932625  71.2962036
  25.6049862  41.7337227  72.1407852  26.1193733  40.5559731  71.3412247
   8.4042530  39.8636284  32.6025734   7.9446688  39.2319870  32.0493622
   7.7156506  40.4448624  32.9254150  65.0246277  55.9302673   7.5078578
  64.7848511  56.7798576   7.8779087  65.4414368  55.4627724   8.2316999
  29.4617043  66.4894638   9.6949091  28.8621216  65.7467422   9.7662992
  30.3245544  66.0907364   9.5820570  29.9148808  62.2006950   5.2670655
  30.5586071  62.2028809   4.5586562  29.0764294  62.3474884   4.8292503
  26.9343033  28.1308384  68.9105759  26.7768764  27.7705784  69.7833099
  27.6220036  28.7836628  69.0414200   9.6850243  11.1945076  79.7083435
  10.2984390  11.8544016  79.3850861  10.0916166  10.3581152  79.4817123
  27.1735706  45.3167076  69.7333069  27.4577599  46.0731010  70.2464676
  26.4648705  44.9306679  70.2480392  54.5063438  71.5286102   9.2359886
  54.2324562  71.5582123   8.3192883  53.6871910  71.5373688   9.7311087
  11.7434549  46.8799438  64.8046570  11.9508152  47.5935974  65.4079208
  12.3044329  46.1573982  65.0865555  53.4867439  29.8328915  60.3078423
  53.5409698  28.8890686  60.1578827  53.8787041  30.2224941  59.5262985
  73.6997147  53.1395836  76.9721222  74.5341797  52.7279739  77.1967926
  73.3235168  52.5683823  76.3024673  29.1390381  54.3626022  48.3794327
  28.4275570  53.7970390  48.0791550  28.7419777  55.2308235  48.4484596
  58.7571869  45.4704018  81.2901535  59.7049217  45.4347038  81.4195862
  58.4273071  45.9313354  82.0614853  57.4858360  27.7552452  81.6600952
  57.8139229  27.3205757  80.8729172  56.8137856  28.3565769  81.3391953
  81.2698975  41.4665947  21.8650970  82.1461029  41.0864258  21.8020992
  81.2126389  42.0615616  21.1174564  39.9401169  22.2795563  64.1965103
  40.8301506  22.4567871  63.8921089  39.9294815  21.3383789  64.3705902
  44.3350410   4.7718024  66.3408661  44.6699486   3.9172840  66.6126480
  44.5718956   5.3607812  67.0572662  12.8502207  51.2791977  84.4520721
  13.5293980  50.6953735  84.1142883  12.8208714  52.0010490  83.8241348
  44.5991173  45.3618317  70.3443985  44.3348045  46.2693672  70.1935577
  44.7784767  45.0161171  69.4700165  44.8048439  49.9839668  21.4245777
  44.7741318  50.9192848  21.6257420  43.8872871  49.7116928  21.4107780
  30.2989693  32.7601891  80.6695709  30.6475220  31.8710251  80.6053009
  29.6618023  32.7167206  81.3825607  36.0011024  10.8789845  85.4947205
  36.7643318  10.9868069  84.9271927  35.4819527  10.1956673  85.0706940
  19.8546543  10.7060900  61.5548592  19.9802608   9.9140453  61.0322495
  19.3225994  10.4209986  62.2977409  31.4610119  47.4214134  48.5039101
  31.9999771  47.6347542  49.2656403  30.5822372  47.2925415  48.8608131
  54.6145859  64.6671371  51.6278152  54.0434151  63.9685745  51.9472046
  55.0187912  65.0260162  52.4177856  14.8878002  61.3852692  69.5959549
  15.6260777  60.8518829  69.8903656  14.8204584  61.2043877  68.6584167
  35.8013229  51.6092987   6.4350786  36.0829964  50.8370972   5.9445767
  35.5629311  52.2467690   5.7620015  17.1601734  59.2707977  47.9578362
  16.2918892  59.6702461  48.0103149  17.0234127  58.3636780  48.2310867
   8.8237629  56.6892242  19.3742237   8.1136045  56.0531807  19.4599895
   8.8081770  56.9426270  18.4513073  50.9694366  22.7959538  53.9167175
  50.3387337  22.6124477  53.2204666  51.2735786  23.6853886  53.7360649
   1.3111291  24.3906765  12.8726702   0.3986755  24.2663670  13.1338367
   1.7500017  23.5846119  13.1444893  37.3226662  36.9961166  39.7380905
  37.2845535  37.0879631  38.7860680  37.7134476  37.8152542  40.0422859
  51.3983917  29.6676369  37.7508278  50.5055695  29.7500706  37.4157104
  51.5738564  28.7267723  37.7360382  27.1440868  15.5192547  80.2416077
  27.3288460  15.1176462  79.3926086  26.1915951  15.4748230  80.3253784
  23.6637020  34.8650131  10.9983130  23.2519932  35.5712204  10.5003147
  23.1741333  34.0805511  10.7509794  47.6451111  41.1088943  68.7336121
  46.9553604  40.5891991  69.1464005  47.3202019  41.2789841  67.8494492
  66.1301880   4.8218875  62.8280602  65.8471680   4.0214167  62.3860435
  67.0742493   4.7118711  62.9414902  78.3553162  48.6738739   2.0541019
  79.2836609  48.6830940   1.8210374  78.3488388  48.6444817   3.0108287
  54.4113426  15.7166195   8.4232149  55.2163010  15.1987114   8.4163828
  54.5532417  16.3886261   7.7565036  57.0745049   7.8451471  62.7678986
  56.7611389   8.2636862  63.5696831  57.0584488   6.9085164  62.9646187
  28.6376457  69.1481400  21.9336052  29.1294765  68.4612579  22.3836384
  28.0632877  68.6757812  21.3309250  61.1737213  47.6542969  43.5382919
  60.3295212  47.3336067  43.8556404  61.6759720  47.8336372  44.3331604
  77.4307404  38.8720741  63.7225609  77.4021454  38.9127769  64.6784668
  78.3633194  38.9040718  63.5092621  70.1197205  48.0701027  27.4546242
  71.0169601  48.3343887  27.6579762  69.6995010  47.9718475  28.3090191
  75.5499725  35.9871330  49.0778389  75.4746017  35.1459351  48.6273499
  76.3622818  35.9182434  49.5794792  75.4854279   7.2184381  53.3371773
  74.9179840   7.0587177  54.0913162  76.2168350   7.7246680  53.6907310
  72.3393402  52.5029755  48.9070396  73.1597366  52.5164795  49.3999825
  71.7538605  51.9565620  49.4313354   9.0128460  70.1136703   7.3556590
   8.3993206  69.9204865   6.6467876   8.6762619  69.6215515   8.1045008
  75.3206253  27.4825821   0.9911996  74.3979568  27.6015778   1.2165003
  75.7180862  28.3389378   1.1490350   4.8886285  60.9034920  14.0462818
   4.1447840  60.8302498  14.6442471   5.5510235  61.3813438  14.5454006
  58.5907974  33.2148857  34.4903870  58.0368805  32.4342422  34.4912872
  59.2585793  33.0354958  35.1522903  14.4552393   6.5548348  17.0897255
  15.0052004   6.2321510  17.8036232  15.0620165   6.6885791  16.3616009
  23.5176487  44.7729073  84.5711136  23.8749542  45.5225525  85.0471344
  22.8568687  44.4081993  85.1598282  33.9389343  10.1793327   4.8968487
  34.0516548   9.4564199   5.5140381  33.3557892  10.7902069   5.3474083
  37.1247711   9.9810963  10.5407209  36.4147453  10.2322454  11.1315022
  37.2100792   9.0348768  10.6574345  48.9679565  36.9707527  81.4081879
  48.4969902  37.5754356  80.8347931  49.2679329  36.2729187  80.8257141
  46.2470016  57.9903603  39.4946556  46.5064926  57.8368492  38.5861778
  45.6945457  58.7711449  39.4572830  16.7384605  35.3817940  76.7537994
  16.6438389  35.9102669  75.9613419  17.6517696  35.5017166  77.0140228
  54.2786636   0.8736304   6.4629784  54.3683128   0.7156644   5.5231690
  53.3870010   1.2061365   6.5659795  11.0082245   1.0729403  32.5934982
  11.4634771   0.8922855  31.7710991  11.6811600   0.9726949  33.2668037
  41.1671448  60.3808136  50.0125237  41.9918060  60.2973328  50.4912682
  40.4916306  60.1959572  50.6650162  77.8521271  40.3643188  85.0591812
  77.1442795  39.8689003  84.6471786  78.4503632  39.6953964  85.3921890
  22.6285706  62.8460541  84.9913788  22.9881001  63.0220871  85.8608551
  21.6852875  62.7673340  85.1336899  73.5587463  24.8559189  17.1031685
  74.2410278  24.4007320  16.6096745  73.9773941  25.0885963  17.9319172
  39.0205574  29.9090710  62.9135666  38.9280243  30.0575066  61.9724846
  39.3193932  29.0025101  62.9848061  20.8027802  70.7094574  23.7945442
  20.2049465  71.0781326  23.1442299  21.1867924  71.4724197  24.2265873
   0.9750633   1.0733109  71.7975235   1.1108010   0.3778427  72.4410553
   1.5246563   1.7943498  72.1045837  85.6782837  12.2648935  20.6324902
  85.7257919  12.3280878  21.5864201  86.5375519  11.9337311  20.3712997
  17.3351860  19.0454922  69.5956650  18.2915478  19.0399570  69.5559998
  17.0767441  19.7819366  69.0415115  12.6042433  28.1953754  11.2281742
  11.7319775  28.5302200  11.0201721  12.4668503  27.2656822  11.4099064
  64.7042999  46.9873810  57.4600334  65.2211227  47.7911186  57.5159798
  64.8546066  46.6674080  56.5705070  51.9878387  61.3064041  62.3282433
  51.4708328  60.5089340  62.2143326  52.7211037  61.0393333  62.8825264
  79.2315826  57.3192291  86.7833710  80.0018387  57.8620186  86.6150970
  79.5882721  56.4866943  87.0930328  75.5307693  23.5099163  15.6706829
  76.0159607  23.3751202  14.8566504  76.0833206  23.1174927  16.3466434
  78.7912140  17.2967701  71.3062897  78.8827209  18.0164795  70.6818924
  79.0201111  16.5141582  70.8049316  33.3999367   1.0516182  10.5583372
  33.7689857   0.4299650   9.9309750  32.9390564   1.6927983  10.0173120
  53.1283150  44.2776756  12.6669693  53.7014542  44.6223373  11.9821692
  52.6760445  45.0479851  13.0109272  28.6069813  33.3663788   3.2376530
  27.8071957  33.8624687   3.4122043  29.3147316  33.9944344   3.3821001
  14.2564678   3.1332648  79.1935272  15.0865288   2.9624991  79.6385803
  13.7121105   2.3741324  79.4023972  53.6234131  56.9973869  51.5140991
  53.4563103  57.0990868  52.4510956  53.5350723  57.8813667  51.1577225
  16.8972530  52.6421127  65.4524689  17.7198238  52.2380981  65.7288513
  16.3170376  51.9031143  65.2695465  82.5181503  37.3686829   9.0743179
  82.0649338  36.6116028   8.7032938  82.0538254  37.5488739   9.8917313
   0.3864915  17.7033157  54.1191521   0.8157206  17.8543682  53.2770233
   0.4525733  18.5421143  54.5755310  25.0496426   4.3629465  21.6428814
  25.9031696   4.2445378  21.2261028  24.4177036   4.1022234  20.9728775
  58.2173386  49.8109550  83.5354919  58.6041527  50.1342964  82.7218246
  57.3316956  49.5434456  83.2899170  29.4055958  38.8717918  23.5777950
  29.4092464  39.0705223  24.5141315  29.9709568  38.1039848  23.4937038
  18.2037220   7.9536829  61.8696861  18.3186169   7.0047674  61.9205818
  18.6482258   8.2056923  61.0602798  82.6606598  70.5316772  13.5591478
  82.1772385  69.7057190  13.5773401  82.2667694  71.0551529  14.2570391
  54.7397232   3.8343453  37.3260117  55.2636757   3.6918144  36.5377274
  54.2398491   4.6293726  37.1408424  43.6104050  50.2610703  40.5512695
  42.9047127  50.5490608  39.9722290  44.0009117  51.0728188  40.8750076
  38.4212685   3.4434738   4.3624454  39.2103043   3.8305178   4.7417226
  38.6515045   2.5261281   4.2151356  32.3255005  24.2957764  77.1705017
  32.0771980  24.0717278  76.2736282  32.3514938  25.2525768  77.1799088
  46.5522385  65.0388489  73.4641724  46.0949440  64.4734421  74.0866089
  47.4808121  64.8839874  73.6373901  29.5996113   3.4329312   6.0436878
  28.7874088   3.0828969   6.4097986  29.4021931   4.3507681   5.8570514
  63.8752708  28.2275543  86.8407211  63.1365623  28.6494942  87.2794876
  64.4695053  28.9468651  86.6269379  65.7390442  48.2204437  17.0327549
  64.7872391  48.3127098  16.9904213  66.0221024  48.2361488  16.1184998
  27.3842087  39.3023338  15.4402294  27.5653458  39.9084625  14.7218781
  27.5655689  38.4365234  15.0745573  73.7703629  51.4129868  30.8857403
  74.6747589  51.5550156  31.1652699  73.4295731  52.2922440  30.7214317
  17.2606525  55.6448021  25.4438839  17.4849262  56.2610893  24.7466545
  16.8001156  54.9346581  24.9968586   8.5460739  15.4180336  81.2336502
   9.4573011  15.1425552  81.3336945   8.5613556  16.0351315  80.5020828
  62.0235939  27.8510571  77.6841812  62.8568916  27.3833313  77.6286621
  62.2593040  28.7732067  77.5826416  56.8032532  35.6532288  10.7675171
  56.3057518  35.3351593  11.5208788  57.1403084  36.5049477  11.0453768
  42.9210014  69.6967392  20.4299641  42.1619263  69.3712387  20.9137897
  42.8545036  69.2794724  19.5710678  16.7039909  70.1209564  72.2018433
  17.1145115  69.6694031  71.4644089  17.4275398  70.5660400  72.6429825
  15.8105373   0.1724316  20.0615349  15.4638996   0.7939890  20.7016449
  15.8533468  -0.6589994  20.5338917  23.4849358  61.2782021  30.3538780
  23.8548832  61.1392860  29.4820557  22.7955837  60.6184196  30.4294586
  65.6310806  20.5312634  29.0725555  65.8168945  19.9126186  28.3661671
  64.6754684  20.5658951  29.1154099  72.2572937  34.7035904  86.6132278
  72.7289200  34.0185394  87.0870438  72.8619995  34.9776535  85.9236984
   5.9739795  71.0403061  48.3163261   5.1871490  71.5801468  48.3918533
   6.4561477  71.4210892  47.5823288  45.7698975  31.8459377  38.9612617
  45.8293915  31.5649834  38.0481567  45.7360039  31.0303078  39.4610939
  84.0330200  35.4310036   2.5430975  84.8076553  34.9125099   2.7606652
  84.3475876  36.3348198   2.5232790  20.7610970  54.9445114  66.1698608
  21.3031273  54.2067642  66.4494400  20.6057758  55.4447670  66.9710159
  68.6167145  69.5402298  49.5630951  69.1321564  70.1043549  50.1395645
  68.3243256  68.8244095  50.1273193  16.0814247  50.0272903  20.5009117
  16.7316990  49.3878822  20.2101688  15.2502356  49.6944313  20.1624470
   9.3110924  51.1937485   9.9588537   9.4524698  50.2517395   9.8646975
  10.1853476  51.5532951  10.1093082  25.8738632  13.6674423  71.4367065
  25.9620857  14.3198843  72.1315231  26.7496185  13.2911863  71.3488617
  29.6690979   3.5471516  82.3853989  29.1837597   2.8703411  82.8572083
  30.1223259   4.0384917  83.0705338  35.2364731  37.9767227  32.0326385
  35.7915077  37.2094421  31.8931694  35.0133095  38.2743988  31.1506977
  41.6277885   9.3402195  47.1809807  41.2299385   8.6220922  46.6888046
  42.3944893   9.5886412  46.6645622  34.5778885  49.7185783  61.1360130
  33.8526955  49.1657944  61.4271469  34.5984116  49.6058922  60.1856918
  25.8699131  51.0226440  85.1019058  25.3586063  50.2336197  84.9223633
  26.7660351  50.7871819  84.8615875  77.2793961   8.6200619   3.3953643
  77.0275345   9.3813038   2.8725734  77.8923187   8.9668941   4.0436411
  62.5979843  45.6711998  72.7169571  63.2835236  45.6486549  72.0493011
  63.0128250  45.3062897  73.4986115  39.9025879   5.4754386  20.1088486
  40.8530884   5.5272870  20.2093239  39.7351685   5.8215680  19.2322674
   9.7536516  16.1053391   0.4130399   9.9752522  16.9464684   0.8125725
   9.5821381  15.5255022   1.1550673  19.6764469  16.1382751  89.2646103
  20.1088619  16.9411812  88.9737625  20.0904655  15.4440403  88.7519150
  39.0031395   4.2695999   0.3818338  39.5860786   4.3740377  -0.3701691
  38.1303024   4.4560919   0.0359936   4.9512758  11.9323320  78.5825577
   4.5403957  11.0985861  78.3539200   5.4668932  11.7385283  79.3653793
  68.8537445  25.4662399  47.9262619  68.5471344  24.6018047  47.6524582
  69.7972031  25.3586197  48.0468369  44.8725548  61.2728844  53.5984879
  44.1879578  61.9416122  53.5793114  44.5965080  60.6287613  52.9464645
  51.9519958  47.7490425  21.2354126  51.4808960  48.1826401  21.9469528
  51.9901695  46.8295822  21.4987831  54.3992043  69.0978165  51.2699623
  54.5843391  68.2682800  51.7102242  54.5164146  69.7612381  51.9499435
  35.8515434  27.1455383  73.3364563  36.5166512  27.2635765  72.6582718
  36.2316170  27.5480804  74.1173096  20.9169407  58.7147789  54.2113495
  20.5801811  58.2327919  54.9666710  21.3260040  58.0452995  53.6629906
  72.1431503  18.1487770  83.1767502  71.2620468  17.7763214  83.2108536
  72.7227249  17.4104099  83.3642197  49.1173553  33.5421944  51.7094383
  49.0055733  32.7263031  52.1973534  50.0653343  33.6675377  51.6663437
  14.0147142  64.4702530  24.2152119  13.8473892  65.0817108  24.9323940
  13.9452353  63.6044693  24.6174889  10.4822798  42.7370987   4.1301084
  10.1449890  43.5694580   3.7989814  11.4186869  42.8909607   4.2554026
  66.3411865   9.6761160  80.9224625  67.2761154   9.7374792  81.1183472
  66.0715408   8.8393917  81.3011627  52.4855309  60.0655174  74.0966110
  53.3179359  60.5362701  74.1381760  51.9370804  60.4900475  74.7563171
  62.9990845   5.1816173  50.3446617  63.0258369   6.1017570  50.0822525
  62.1966438   5.1029072  50.8605309  12.9902983  55.8717575  49.1167145
  13.5663061  55.5657349  49.8172798  12.9282131  55.1290512  48.5160789
  62.7164803   3.7744739   1.6894531  63.3927536   4.1494641   2.2536063
  63.1591911   3.0647428   1.2241342  25.5441914  34.2394333  31.9357414
  24.9125576  34.6613655  31.3532963  25.2497387  34.4711685  32.8165512
  40.7548294  52.0677223  24.4088345  39.9073868  52.4894943  24.2667809
  40.8183250  51.4164429  23.7102375  79.5628815  51.0279732  53.0471268
  80.3582611  50.6233635  52.7008629  79.6863708  51.0250244  53.9963226
  43.0005875   3.0758512   6.7429657  43.7152061   2.4491003   6.6301165
  43.4288025   3.9318564   6.7320547   4.1289024  69.1648788  14.2661257
   3.6982701  68.6122437  14.9183369   5.0616622  68.9778442  14.3720036
  38.3830452  11.8205442  76.0202332  38.9928246  12.5581188  76.0399170
  38.8128853  11.1691437  75.4660263  21.4273968  59.9479141  78.1334305
  20.9315681  59.4491272  77.4841309  21.0285816  60.8180084  78.1226730
   8.1190042  40.0708809  75.5847244   8.4464607  40.2777596  76.4600525
   8.5246935  39.2310371  75.3695374  27.1028290  43.2084656  21.0604877
  27.0633469  43.2531052  20.1051464  26.3313980  42.6989555  21.3085384
  47.1130409  44.1154137  42.1269035  47.8339882  43.7026367  41.6514206
  47.1108627  43.6832123  42.9809685  82.1815491   2.1989675  53.4495506
  82.0205231   1.9828258  54.3680191  81.5679855   2.9086227  53.2593727
  21.3915176  70.7838364  59.6241951  20.9469070  71.3375320  58.9823456
  22.2022266  71.2520065  59.8236809  49.2629700  48.8399048  73.2515030
  49.8810120  48.7580757  72.5251694  49.7948647  49.1487579  73.9849396
   2.5177984  67.0689316  73.8579712   3.1184695  67.3699112  74.5397644
   3.0617728  66.5366974  73.2774200  61.8897247  23.9251099  39.5625038
  62.2042389  24.2134113  40.4193535  60.9398003  23.8650627  39.6638222
  46.7352219   6.1738687  88.9249573  47.4667320   5.6340137  88.6254883
  47.0518341   6.5799437  89.7318573  51.4122467  57.0112801  72.3147583
  51.0484314  56.6573639  71.5032120  52.3263474  57.2019653  72.1043167
  35.3778687  45.2471962  59.0868607  36.1858253  45.5156937  58.6494293
  35.0157890  46.0595131  59.4407921  76.1292572  41.8160057  32.0469933
  75.8861313  42.0875130  31.1618919  75.5034103  41.1257133  32.2661781
  17.4938030  45.9512901  22.2146473  17.9383602  45.1597595  21.9111919
  17.3249283  46.4520531  21.4165592  77.8104095  56.9468651  74.9672318
  76.9984283  56.6314812  74.5704422  77.7399979  56.6962090  75.8883438
  19.5821362  67.6834412  21.4610481  20.5291538  67.7491379  21.5838203
  19.3196030  68.5513382  21.1543522  58.3778038  26.6899261  65.9662323
  59.0624046  27.3041039  65.7010269  58.5278816  26.5532951  66.9016724
  10.8292274  29.1105766  60.1523514  10.6970968  29.0730534  59.2050591
  10.3091240  29.8619862  60.4371490  44.8871841  38.7967720  77.8747864
  44.5189896  38.6574554  77.0022812  45.1609077  39.7140007  77.8755722
   5.3929577   6.1766915  15.2647400   4.9197288   5.8130736  16.0131168
   5.9838667   5.4751086  14.9911699  57.6646805  54.3362122  51.7414474
  58.2909622  54.2970505  52.4642677  58.1997719  54.2301674  50.9548950
  56.1699829  34.6868477  41.6432228  56.4953613  34.8256416  42.5326576
  55.4750557  35.3366890  41.5382805  52.3600235  38.5423431  34.2546463
  51.6681137  37.8924141  34.1318321  52.5134354  38.8972359  33.3790054
  76.9887314  41.6876526  42.0942917  77.7525940  41.4092903  42.5995331
  76.2393265  41.3775597  42.6026917  28.4331779  50.6567039  57.2181320
  28.0699139  49.9287300  56.7138290  29.3692112  50.4648895  57.2753868
  17.8751888  42.1132088  14.7954664  17.4796391  42.7461739  15.3947392
  17.2001057  41.4459114  14.6721277  30.5834255  38.7070770   7.5778394
  30.2933826  39.5345535   7.9617491  29.8000336  38.3492203   7.1601443
  23.0401649  70.6340485   2.1745834  22.1772633  70.5238800   1.7752167
  23.2961330  69.7505112   2.4393077  33.0422134  57.4571152  72.7085724
  33.5549812  56.6527786  72.6289062  33.6480637  58.0902290  73.0937271
  42.2940674  42.7076836  84.3222427  42.2731934  42.1542244  85.1029282
  42.1834679  42.0975227  83.5930557  72.7298737  13.8252430  38.4599609
  72.2541504  13.1278982  38.0087090  72.3521957  13.8426208  39.3393288
  81.2585602  70.4298172  52.5292931  81.9213943  69.9873199  51.9991188
  80.8671799  71.0716324  51.9367371  66.5517197  41.3313866  15.1171198
  66.6212158  40.4045486  14.8882828  66.9768753  41.7896080  14.3922033
  10.3659019  33.5726204  80.3909683  10.8441057  34.0429878  79.7080994
  10.9265471  33.6375923  81.1640701  55.2633247  68.5604553  65.6499786
  56.0611649  68.0516891  65.5055923  55.1090698  69.0056381  64.8167648
  52.2851677  62.1607399  28.1756382  52.7805748  62.8816605  27.7869530
  52.9355011  61.6629868  28.6711597  12.7642488  44.7936249   8.4327536
  13.2851706  43.9971733   8.5354242  11.8564205  44.4933586   8.4765959
  48.9764748  68.8675003  46.5552521  49.2567978  68.1622696  47.1386108
  48.5527687  69.5021591  47.1331024  77.0751266  47.2557907  27.0595112
  76.9850464  47.8006744  26.2777042  77.6847534  46.5646553  26.8008232
  50.4614792   7.9343867  36.5699272  51.2801743   7.7711053  37.0382271
  49.8192444   7.3764009  37.0085831   5.9907022   8.6149292  13.6128826
   5.3669629   9.0895634  14.1623402   5.9314256   7.7076292  13.9120913
  42.3938828  31.4676056  47.5155792  42.6789131  30.6011906  47.8059464
  42.4939690  31.4461861  46.5638695   2.8943188  30.8144569  80.4795074
   3.6070814  30.5821476  81.0746841   2.3123341  30.0546589  80.4947128
  51.3993454  30.5053234  67.1951981  50.7743607  29.9806519  67.6955490
  51.6179504  29.9607258  66.4389877  46.0495644  64.7994232  34.6885605
  45.4398804  64.1348801  34.3677902  46.1725197  64.5852280  35.6133461
  37.9705238  59.2250786  27.0120735  38.5908356  58.7485008  27.5637283
  37.1281891  58.8017769  27.1779671  59.9164925   6.1330204  81.1344528
  60.7450218   6.5470181  80.8928299  59.2928925   6.8573737  81.1860580
  10.7804012  41.1934471  50.6286469  11.1555567  42.0715408  50.6952591
  10.4191427  41.0207481  51.4980698  20.2074585  12.6477585  66.7411575
  19.9980717  13.4932480  67.1380615  21.0088921  12.8088531  66.2431717
  27.7893791  54.5047226  86.1693497  27.5374050  53.7273941  86.6678467
  28.7191849  54.6228409  86.3636169  50.0988922  49.9368896   3.8380249
  49.5771980  50.3092384   3.1270938  49.5251961  49.2844315   4.2397704
  30.5421734  69.6043015  39.7897873  30.7383690  70.3491058  40.3581238
  30.7706833  69.9069366  38.9109116  81.9264908  37.0654030  56.5069199
  81.4359055  36.9469376  57.3202629  82.8415298  37.1126518  56.7838554
  69.0189819  57.7699776   2.8766062  69.8846970  58.1559296   3.0100398
  69.1874313  56.8331947   2.7751422  69.3548508  11.3342772  45.4350777
  68.8293152  11.8590908  46.0389099  69.9751587  10.8709946  45.9979401
  20.2039070  40.4050941  69.7305679  20.6898594  40.8749428  69.0528336
  19.3813400  40.8875237  69.8134918  85.3815613  68.4371796  88.8394775
  84.4769440  68.1331635  88.7654953  85.7479858  67.9254761  89.5606766
  13.8684626   4.7259827  64.7515869  13.6372232   4.7762880  65.6790695
  14.8074245   4.9105072  64.7284927  49.3723488   3.9328220  30.0470333
  49.9627953   4.3698535  29.4333515  49.3424911   3.0249066  29.7453213
  70.8889542  51.8755112  71.7198181  70.8911819  51.5210495  70.8306732
  70.0137253  52.2479591  71.8269882  77.3875427  23.9619923  22.8941364
  76.8714523  23.3191948  23.3806534  77.0716782  24.8094749  23.2075653
  65.6896973   7.4781318  86.0878220  65.2552567   6.6263204  86.0441055
  65.0373230   8.0599861  86.4777985  42.3443794  71.7107315  43.0351372
  41.8811150  71.9812622  43.8278694  41.8849487  70.9221420  42.7465630
  46.3446312   2.7146459  42.4912148  46.7156372   2.0259075  43.0427818
  46.7686386   2.5953434  41.6413841  58.0093346  27.4188194  31.6976280
  58.2864609  26.5032654  31.6630764  58.5425453  27.8556881  31.0335045
  70.3375244   4.0231910  45.8901405  70.5072479   4.2992396  44.9894600
  69.4113922   4.2201567  46.0305328  75.4164124  47.3148575  84.5797348
  76.0265198  46.7979088  85.1058121  75.1034851  46.7071304  83.9096756
  46.3664017  49.0526390  14.5563889  47.3213654  49.0610390  14.4915304
  46.1858559  49.2959366  15.4643764  80.0913010  28.3905926  60.2935410
  80.4170914  27.9219475  59.5251236  80.1470490  29.3150616  60.0517159
  68.1762695  51.5324287  23.2972088  67.7109451  52.3545570  23.4515266
  67.7398071  51.1493607  22.5362930  79.6993408  30.6967335  31.2037411
  80.5020523  31.2131214  31.2759991  79.9537430  29.8179207  31.4851608
  44.3427277  55.5291595  31.6895866  43.7452431  54.8335228  31.4151154
  44.6114120  55.2791443  32.5736313  71.4679642   7.2760348  25.5364914
  70.8844452   7.2727361  26.2952614  70.9860458   7.7599993  24.8658428
   3.2155013  69.2224579  35.0666847   3.3324924  69.9215164  34.4233627
   3.1979923  68.4189682  34.5467606  54.6063194  38.4476089  74.4135590
  54.8473167  37.7969933  73.7541275  54.6980591  37.9880295  75.2481842
  50.3390961  22.3178158  74.7902603  50.1954269  21.9711132  73.9097061
  51.2127571  22.7072830  74.7547302  50.1842194  47.2799377  18.3908024
  50.3895988  46.6308632  19.0636711  49.6666756  46.7995033  17.7446098
  61.1781349  68.7041016   1.7134514  60.5306168  68.9782028   1.0639745
  61.7130280  68.0535355   1.2586063  55.8390198  30.3381023   7.1921191
  55.8070755  29.6313515   7.8368783  56.3257675  29.9684486   6.4554615
  18.5153065  19.2389717  12.2131929  18.8338547  19.4508896  11.3357821
  18.6483517  20.0420628  12.7167549  84.7492828  18.8001728  25.3453579
  84.5339890  18.8880882  24.4168377  85.5687561  19.2840538  25.4480705
  40.8434715  42.8973656  33.7100029  40.9343872  42.7533379  32.7680817
  40.7396164  43.8447914  33.7985077  61.1922226  68.5424423  36.1211433
  61.9523811  68.4504929  36.6955452  60.5051842  68.0318298  36.5494995
  58.2751846   7.0256763  20.9586754  58.9032021   6.6393886  21.5690899
  58.6989822   7.8284631  20.6550980  75.9736023  55.0826378  71.2213287
  75.7634659  54.2201538  70.8632812  75.3058395  55.2334137  71.8903503
  54.7916985  70.2684402  73.7616501  55.2218018  69.7713623  73.0658417
  53.8566093  70.1758881  73.5792542  24.6013832   3.0216868  61.0712662
  24.6362076   3.9431043  60.8143463  25.5030422   2.8049321  61.3084602
  50.8291855   5.0780134  28.2086411  51.4488754   5.7297769  28.5363865
  50.9901123   5.0474854  27.2655602  69.1467438  56.3525085  82.1362991
  69.9117661  56.0676308  82.6361237  68.4070663  55.9205971  82.5635834
  70.5083618  53.2911987  23.1257935  70.0782242  54.1447639  23.1771603
  69.7923584  52.6697044  22.9941998  44.7373314  65.1722870  30.6877632
  44.9482002  65.6200256  29.8684387  43.8159370  64.9291306  30.5975571
  48.8996239  13.2628841  18.4509773  49.7746506  13.5990744  18.6447163
  48.4853897  13.1650219  19.3083382  81.0692520  18.6896057  27.7714024
  80.4495850  19.4178009  27.8159046  81.9089584  19.0739403  28.0232201
  27.9895935  23.1376362  16.7601910  27.2297421  23.2870216  16.1975708
  27.8232117  23.6745682  17.5349503  44.3635254  56.7558022  87.0142059
  45.0910835  56.5862083  87.6126480  44.1705322  55.9032593  86.6241379
  10.9807205  42.2608604  41.1542091  11.8124380  41.9643669  40.7846603
  11.1354046  43.1759567  41.3885307  47.2116089  30.6743832  84.2176895
  47.4567680  30.0700512  83.5170364  46.9812965  31.4855347  83.7646713
  53.2324257  63.8631592   4.1467252  52.5484047  64.3222351   3.6592846
  53.9306602  64.5102386   4.2466607   9.6717710  44.0618668  27.6852398
  10.1683607  44.3310432  26.9124680   8.8180456  44.4816360  27.5795174
  26.1732292  69.1078262   9.2506466  25.3630638  68.8325500   8.8215933
  26.8257236  69.1118698   8.5503139  30.6205349  42.0017586  53.7794266
  31.3749084  42.4692459  54.1380501  30.7953472  41.0807762  53.9729767
  57.2579422  34.3302422  84.8472519  57.2754898  34.9715919  85.5576019
  57.1766586  34.8562050  84.0516434  58.1743622  62.0022316  79.7422256
  57.5288010  61.3019333  79.8374481  58.1801605  62.1968269  78.8050308
  55.4410019  56.7915916  18.4475269  54.7349052  57.1516190  17.9108353
  55.0807457  56.7698326  19.3340778   7.5081439  38.1623039  62.4949074
   6.6359615  38.5140953  62.3166656   8.0504408  38.9351006  62.6528015
  38.2254868  13.6171207  73.3815231  38.0993919  12.9493265  74.0556030
  38.5123634  13.1279020  72.6104202  81.0906143  33.0851822  24.3953476
  81.8114700  33.7105408  24.4696770  80.4493103  33.3810158  25.0414429
  13.8907986   7.8887930   9.1997652  13.3517246   8.3835602   9.8168850
  13.4836311   8.0446663   8.3476210  84.9942474  12.4045353  67.4550858
  85.5240402  12.1705103  68.2171783  84.2923431  12.9502010  67.8097763
  69.6797256  68.8732758  88.4316177  70.1381302  69.4245682  89.0657959
  69.6053467  68.0223389  88.8636017  47.7714005  20.8546219  16.8914547
  47.7786636  20.9446335  17.8443871  46.9662743  20.3726368  16.7025356
  30.4237270  59.3406372  47.6934013  30.8769894  59.3495255  46.8503685
  30.7955933  58.5905228  48.1573792  38.1502838  64.3770676  44.7696495
  37.3758163  64.5624619  45.3007469  38.8583908  64.8518677  45.2048264
  36.4987755  47.9661522  70.0798416  37.2154999  48.1872749  70.6745224
  36.7080460  48.4305496  69.2694244  73.1384430  43.1206474  25.6786346
  73.4873047  43.9710732  25.4116096  72.1974716  43.2673340  25.7750111
   1.5084956  15.7670765  16.1682644   2.3598821  15.6967850  15.7364874
   1.7103179  15.7300787  17.1032143  66.8589783  31.2255173   7.1142173
  66.9613876  31.0390511   6.1809573  67.1758499  30.4357204   7.5524468
  49.8371696   5.9770818  14.1547298  49.5993500   6.2513347  15.0404272
  49.8062363   6.7823725  13.6382208  86.4425735  18.4743519   2.0878277
  86.2911148  18.7399902   1.1807848  87.3802872  18.6101971   2.2237821
  61.0938797  54.3654633  45.2234535  60.6723366  55.1583710  45.5548668
  60.3701134  53.8210526  44.9135933  38.0499878  42.9417610  41.9893951
  37.5996552  43.2105064  42.7901535  38.9353561  42.7178726  42.2761421
  75.9390030  69.2541428  19.9217587  76.3832779  69.7576447  19.2396030
  76.4678879  69.3958435  20.7068882  42.0017204  49.2136230  19.8904839
  41.2455215  49.1843948  19.3043575  42.7524490  49.0434647  19.3215504
  39.6833229  14.3938017  76.2441635  39.8560066  15.0071545  76.9584579
  40.1514740  14.7612782  75.4944763  64.7107010  14.1269989  72.9341202
  65.0687485  13.3900671  72.4391785  65.4566727  14.7121964  73.0656586
  40.0561028  23.8791237  66.7138748  39.5769501  24.5142784  66.1816864
  40.3240929  23.2008648  66.0938950  30.6943111  50.8080902  80.5947113
  31.1755791  50.3378143  81.2754822  31.1937714  51.6136856  80.4613571
  24.5836487  51.7051773  27.4622879  23.9539795  52.2317429  27.9547081
  24.2286911  50.8167496  27.4928474  68.0491791  28.8101845  20.7979927
  67.5387192  28.2190170  21.3513279  67.4256287  29.1229134  20.1425419
  83.0332794  10.4587498  28.5232487  82.4541016  10.1299515  27.8357315
  83.1717224  11.3791733  28.2999001  27.4973850   3.5308368   8.2155247
  27.5295963   4.4836626   8.1299820  28.0141411   3.3431025   8.9990749
  44.0569000  70.5558624   2.2683215  44.4116058  71.4441071   2.3062794
  43.7063332  70.4002686   3.1453202  82.9636383  16.7135353  69.5796585
  82.1686935  16.9742260  69.1145401  83.0562286  17.3619003  70.2777176
  41.4991302  45.5111885  63.2407761  41.2417336  44.8505554  62.5977020
  40.7187195  45.6368103  63.7805977  10.2037687  55.0907784  21.9363728
  10.5600481  55.1440468  21.0495472   9.4892120  54.4573708  21.8697720
  57.1580772   2.2632451  66.5568085  57.0796890   3.1620343  66.8766022
  57.8325958   2.3081129  65.8791351  72.1076355  21.1322269  35.4507370
  72.6727295  20.4359322  35.7855186  71.3333817  21.1033726  36.0128136
  26.8698578  64.6488342  72.5403748  26.5117569  65.5268936  72.6707687
  27.1095715  64.6230621  71.6140289  58.3999786  43.9614601  86.8249588
  59.0505867  44.4657669  87.3134384  58.8995399  43.5393562  86.1260300
  22.3681297  57.4621964  86.3705902  22.9172325  58.0586815  85.8617477
  22.3949642  57.8126564  87.2609253  43.8985214  56.8235893  40.0942345
  44.8237343  57.0671501  40.1241570  43.7989807  56.1748390  40.7909775
   1.2091693  45.6110916  42.6339340   1.2070888  46.0929642  41.8068733
   1.5585732  44.7490540  42.4080009  69.9158173  25.7501221  87.6026611
  70.5329285  26.4647827  87.7597046  70.4561234  25.0379734  87.2603989
  31.8100605  33.9287300  24.5374317  32.1164894  34.3669128  25.3313656
  31.3938961  33.1262550  24.8521862  16.9540081  49.5827675  41.3908539
  16.3955765  49.3803482  40.6402435  16.3702583  50.0155830  42.0138588
  65.7873840  29.4368992  67.2512589  65.5577164  29.0693684  68.1047287
  66.5948792  29.9256306  67.4104004  51.1598663   1.0426252  70.3107376
  50.6363869   1.5792998  70.9058685  50.7767792   0.1679551  70.3773041
  16.2643852  41.3477440  42.6824112  16.0954418  42.2548218  42.4276543
  17.1071262  41.1387939  42.2794724  62.3439865  54.2197914  81.8159103
  62.3832092  53.5019341  82.4478683  63.1407890  54.1235123  81.2943115
  40.0071297   0.6823853  77.7794495  40.9008293   0.3477078  77.8537903
  39.7451515   0.8681379  78.6811676  41.7376633  27.8021469  61.4314270
  41.3614120  27.6399498  60.5663490  41.0872345  27.4583645  62.0437927
  41.8588142  29.8711758  73.9057388  42.3154640  30.0276222  74.7323151
  42.5176811  29.4675121  73.3407822  79.9813080   5.3968663  22.0215492
  79.7768326   4.6020732  21.5288773  80.8751984   5.6175618  21.7598572
  13.5518064  44.6431465  79.1191864  13.7895098  45.2320137  78.4029770
  12.6003237  44.7216759  79.1880722  56.2027054  30.0527172  46.3003426
  56.0307770  30.5943050  47.0706406  55.8065872  29.2067070  46.5091248
  69.9339142  24.7229137  23.4385567  69.8448105  24.5826855  24.3812275
  70.7708206  25.1773510  23.3420601  30.3918743  58.8359947  11.8641596
  29.9981518  57.9662819  11.7947512  29.6855812  59.3932533  12.1910286
  78.3220978  12.2604504  37.7495880  77.4505005  12.5606318  38.0073395
  78.9229660  12.8488617  38.2067146  54.7390404  11.5901699  56.4526062
  54.9694252  11.1598959  55.6291885  55.5697861  11.6711397  56.9211578
  18.5684757  41.7296181  31.9725418  19.2271099  41.4852486  31.3223763
  18.9363213  42.4980202  32.4089851  81.8184433  63.7044830  51.5920296
  81.8348312  64.2366333  52.3875046  81.3810349  62.8945808  51.8546410
  50.4820328  69.1219330  28.1064796  50.0471840  69.0086670  27.2613125
  49.7684822  69.2872162  28.7227230  73.6421509  42.7362785  82.1061478
  73.3700867  43.6261940  82.3303604  72.8429794  42.2150421  82.1827164
  42.6417809  34.5361671   5.0319667  42.6440887  33.5838280   4.9356403
  42.1815987  34.6923752   5.8566260  27.0093021  40.8860741  23.6708870
  27.6040936  40.2480659  23.2766819  26.3652267  41.0678177  22.9865112
  74.0142212  11.7706060  36.7172241  74.7388992  11.6109266  37.3218460
  73.7540970  10.8988371  36.4195900  27.2644386  40.4264069  33.3255730
  26.4372082  40.7065315  33.7173004  27.4495144  39.5814095  33.7354050
  61.7512360   5.7190161  46.2224007  62.5003548   5.3493390  45.7550735
  62.0399971   6.5932322  46.4843102  14.0819292  33.2232132  13.6923580
  13.8761787  32.8406372  14.5453148  13.2283897  33.3903885  13.2926664
  -0.2647589  55.2354393  12.3732185  -0.2849304  56.1747513  12.5562925
   0.6659080  55.0116310  12.3717756  10.4446983   5.4994292  64.0498581
  10.8025904   6.3514781  64.2991714   9.6328478   5.4246163  64.5513840
  73.9647903  70.7433167  33.8197327  74.0828094  71.4841461  33.2251892
  73.5979156  70.0510101  33.2698669  85.2887650  56.7555122  52.1204453
  85.9610367  56.4788857  51.4977417  84.4608459  56.5638046  51.6799545
  69.5619812  13.7605562  72.5528336  70.3423843  13.2449617  72.7562180
  68.9692154  13.1404753  72.1281433  47.5217781  40.7805176  61.4611549
  47.1136665  40.9372826  60.6096230  47.3392143  39.8597298  61.6483688
  58.6687584  42.2367935  41.6631775  58.2201462  43.0441437  41.4118576
  59.4299049  42.1955414  41.0842285  80.1302948  41.1040802  30.2552166
  80.6479340  40.5174446  29.7037354  80.7284775  41.3641510  30.9557705
  76.2653427  44.0263710  83.6841660  75.9520187  43.6497955  82.8618164
  75.4817505  44.3934097  84.0934296  14.7465649  46.7917824  37.8936882
  14.2256327  45.9890862  37.8703918  15.6543036  46.4889679  37.8703117
  19.7845631   3.5708995  17.7371731  19.1438847   3.7534657  18.4245129
  20.0593052   2.6684446  17.8994198  79.4415741  65.8381271  24.0224838
  78.5295334  65.8536682  23.7323666  79.6896210  66.7606888  24.0823460
  16.8821278  38.1138229  21.6249409  16.3804264  38.8296013  22.0150585
  17.7020054  38.5208054  21.3449402  15.8651896  56.3543892   8.5175257
  15.8828516  55.4623184   8.8641233  15.5100727  56.8822327   9.2327213
  57.4962349  18.0515060  39.0034828  58.2484169  18.6434727  38.9977913
  57.7933922  17.2819672  38.5179520  33.9641724   3.4878373  33.8547554
  34.3538094   4.0056138  33.1502533  34.7131691   3.1344213  34.3346825
  33.7131386  42.1693726  43.8055267  33.5956955  42.0170708  42.8678474
  34.2803154  41.4547310  44.0950661  58.9737167  65.7212753  67.1555328
  58.7607689  65.0879822  67.8409653  59.4044304  66.4397507  67.6186981
   1.4390004  65.3528900  52.1665230   1.2784265  65.4191360  53.1078300
   1.6104891  66.2527466  51.8888931  28.6402798  51.7665253  82.3399963
  28.4916477  51.0297470  82.9327011  29.4042950  51.5086517  81.8242264
  37.8966713  34.1062126  63.8739586  38.0417290  35.0328941  63.6830406
  38.7373276  33.6886024  63.6865311  40.0626984  29.8026981  16.3764858
  39.3748131  30.2532196  16.8664589  40.5699844  29.3417358  17.0446205
  62.7401695   7.6032143   4.5184026  62.3410873   8.3888512   4.8922195
  62.1073799   6.9066715   4.6934476  78.3385849  48.6287193   4.8890176
  77.7213058  47.9160080   5.0540633  79.0596695  48.4667244   5.4973106
  28.3612881   2.6256466  63.9547272  28.7936935   1.9367572  64.4593964
  28.3605976   2.2989047  63.0550232  65.8456802  70.8107758  17.2792053
  66.5392380  71.3355865  17.6789265  65.1948547  71.4517899  16.9932728
  29.1194992  22.4248734  19.4747295  30.0748806  22.4179859  19.4161701
  28.8428955  21.6622028  18.9667377  77.5968552  23.3918152  77.1456223
  77.8194275  24.3196392  77.2220001  78.2651749  23.0324268  76.5621643
  39.4799957  48.8549538  22.9719563  38.6472130  49.2094688  23.2834396
  39.6369324  48.0902443  23.5258694  52.6856766  10.7531452  26.3758926
  52.1246262   9.9829016  26.4663448  53.3236465  10.6693087  27.0845490
  79.6886292  44.9152641  60.6039352  78.9274902  44.3835602  60.3711548
  80.3997498  44.5626907  60.0689278   7.0900021   2.3277955  74.9818268
   6.8455687   3.1313419  75.4409485   8.0251322   2.4285383  74.8040161
   2.8700194  39.9167862  11.6740761   2.7716086  40.2660942  10.7883377
   2.0623610  39.4271469  11.8295498  45.4565811  48.7561378  74.4040222
  45.8388710  47.9489594  74.0597153  45.5567741  48.6827621  75.3531342
  53.1438637  22.1911678  15.4360647  53.4476433  23.0988464  15.4276657
  52.4803810  22.1542664  14.7471094  58.4335747  25.6142788  83.1941376
  58.0347137  26.4419785  82.9257050  58.3709526  25.6168804  84.1492844
   9.2984591  38.9331398  69.5891266  10.0329123  38.3193512  69.5978470
   9.0737619  39.0509033  70.5120926  74.0494537  45.7831039  82.5932541
  73.1627655  45.9787483  82.2903671  73.9322815  45.4673347  83.4892426
   0.2489562  13.6444149  14.7999134   0.4428030  14.3831720  15.3768826
  -0.5791020  13.8786955  14.3807907  29.2170067  56.4539909  11.2128258
  28.4974518  55.8718452  10.9687443  29.7758636  56.4826508  10.4362373
  60.9032402  57.8651657   7.2849879  60.5531273  58.2592010   8.0839806
  61.6974945  58.3659973   7.0990973  46.5383110  49.6663513  40.6555252
  45.6647491  50.0456047  40.5591316  47.0957527  50.2025146  40.0915947
  16.3978653  36.7657318  57.8736916  17.3499832  36.7411194  57.7783165
  16.0782604  37.0434303  57.0152245  80.8834076   2.5344584  36.4216805
  80.4071655   2.9048278  37.1648178  81.7462921   2.9469554  36.4605675
  39.5995026  60.4814720  14.8404417  39.5455475  60.2044525  15.7550907
  38.9034843  61.1317062  14.7456627  33.5174561  31.0945034  11.4760113
  33.5954399  32.0180931  11.2369871  34.3745728  30.8671837  11.8364391
  43.3623886  17.8278084  68.8301926  43.6309738  17.5186596  69.6953659
  42.4315758  18.0293274  68.9261780  31.2066803  58.2917099   2.8602376
  31.8222065  59.0247574   2.8610404  30.4327259  58.6283417   3.3117957
  17.1316872  45.8756447  72.8787155  16.2625713  46.2756653  72.8495483
  17.3677769  45.8831062  73.8063126  35.5468254  15.0614796  74.0347748
  36.3249168  14.7774630  73.5550385  34.8825645  14.4054050  73.8236923
  79.8478394  19.3314838  41.4147797  79.1683731  18.6904411  41.2059212
  80.3791046  18.9066124  42.0881882  42.6320381  38.7118607  85.8701096
  42.6855164  37.9269333  86.4153290  43.4087906  38.6694450  85.3123627
  62.3147812  49.3474808  34.3830299  62.2161636  50.2381668  34.7194672
  62.0137062  49.3993988  33.4758949   3.5275621  53.5353546   9.9886007
   3.2227571  53.8242226  10.8487644   3.8947852  54.3231392   9.5876360
   1.3930922  54.2748604  64.0936508   1.8094929  53.6650543  63.4845695
   0.8434926  53.7213707  64.6484680  39.6503334  15.1245975  19.0971622
  38.7688217  14.9600992  18.7623348  39.5818710  14.9681072  20.0389996
  40.7701302  37.8690910   5.0956550  40.7083168  37.0663223   5.6133184
  40.8502769  38.5674553   5.7453418  31.1276608  38.2647476  42.8332253
  30.7145329  38.8454323  42.1941910  32.0656319  38.3484459  42.6616554
  35.7662849  29.4402847  67.7490311  35.1143913  30.1268291  67.8901901
  35.9855957  29.5056953  66.8195953  21.0460014  43.0804596  54.1242561
  21.5337601  42.8123169  53.3455238  20.7204494  42.2610779  54.4968910
  34.3121490  39.2648926  10.7535677  35.0702019  39.4193840  11.3172379
  33.7271652  38.7222290  11.2822866  32.0516548  65.5721359   9.5099211
  32.4009590  66.0972900   8.7899008  32.5545692  64.7582932   9.4787254
  33.3361435  34.5974884  72.6783218  33.1306534  33.7607880  72.2612610
  33.1473923  34.4554787  73.6059189  27.6459351  51.9416847   6.3635216
  27.0868282  52.5824966   5.9242187  28.4025478  52.4474220   6.6601682
  84.9966736  61.1187897   0.0589149  85.7004929  61.2253189   0.6988505
  85.0710526  60.2091827  -0.2297297   6.5895247   8.4528055   4.9399681
   7.5418668   8.3640289   4.9773211   6.4250183   9.3672905   5.1699386
  16.7016430  47.2159386  65.7981491  16.1629372  46.6875153  65.2092590
  17.2168312  47.7739105  65.2154999  52.4105568  69.3591080  49.2388039
  53.1882782  69.3030472  49.7939987  51.7149696  68.9578323  49.7597313
  41.0655556  43.5090752  58.8308067  41.9514771  43.7317810  58.5448456
  40.5019531  43.8023872  58.1148796  37.3540268  62.0932808  48.7308044
  37.2126007  61.1466179  48.7231712  38.3055382  62.1930656  48.7608261
  59.8421822  43.5180817  73.9739609  60.5429993  43.0566254  74.4345551
  60.0735703  44.4436569  74.0514450  77.6375656  21.2514362  40.6142921
  78.5624466  21.0322952  40.7274284  77.4947205  21.2066784  39.6688690
  65.7532578  53.0122719  87.5593719  66.5575562  52.7708397  87.0999680
  65.0594788  52.5552254  87.0839691  47.5427895  68.9901123  49.3744316
  46.9624634  69.5348434  48.8427124  47.4604416  68.1139526  48.9978790
  20.5164833  42.9079628  35.6645851  21.0246944  43.6178818  35.2721939
  21.1733418  42.3263474  36.0473251  83.5433273   5.2844343  86.3484421
  84.0659561   4.5015974  86.1744995  83.5559769   5.3739982  87.3013611
  71.5512543  18.3129215   8.3076649  71.5689392  19.2594452   8.1662102
  72.3011169  18.1418495   8.8774672  34.0126190  52.1936264  88.5583267
  34.3659210  53.0591888  88.7637863  33.9779053  51.7426834  89.4019394
  74.5301056  65.6198196   5.8681426  73.7896347  65.8134155   6.4429951
  74.2140808  64.9185333   5.2984347   2.4795403  40.1806450  56.6481133
   2.0709591  40.6607285  57.3684006   2.3781374  40.7552567  55.8893166
  57.7742729  10.8133631  37.9296799  58.6344566  10.9975691  37.5523453
  57.8792038  10.9927645  38.8640442  47.7224274  36.2846451  10.3268890
  47.3875656  35.3930817  10.2308741  46.9417114  36.8378410  10.3006945
  72.2422791  13.2630768  58.2348213  72.5158997  12.4840460  58.7190475
  72.8334198  13.9527035  58.5368080  80.9617538  49.5477638   2.1780689
  81.4215393  48.7738686   2.5035081  81.5450592  49.9101448   1.5112369
   1.8775834  62.8493156  40.0825272   1.6658981  63.6303444  39.5712357
   2.4554989  63.1666794  40.7764473  54.9933243  63.9700127  77.0598755
  54.8722496  63.0584450  77.3256149  55.5814400  63.9236565  76.3060837
  16.4854221  37.7409058  15.5002766  16.7351856  38.5964775  15.1512127
  15.8845453  37.3819618  14.8473320  45.4796219  37.3481522  87.8699341
  45.9042702  38.0749855  88.3255844  46.1400909  36.6554565  87.8562164
  30.7807255  67.9484329  75.4911194  31.6344147  67.6046371  75.2279739
  30.5638828  67.4661255  76.2889862  24.7894268   9.7078848  15.0684175
  23.9719715  10.0882149  14.7469406  24.8395214   8.8523598  14.6420374
  11.2151012  45.9923439  82.0146103  10.3094473  46.0622101  81.7127075
  11.5521975  46.8871040  81.9698257  24.8191719  43.8483467  61.6623116
  25.1749401  42.9805107  61.8534088  23.9024715  43.7962914  61.9328346
  23.8128223  55.4891891  11.2765532  24.1223660  55.1465988  12.1150322
  24.4862900  56.1150856  11.0102348  66.8246002  36.2476921  82.2688293
  65.8964005  36.0377197  82.1659241  67.2681503  35.6935425  81.6266327
  46.2496071  61.5880470  11.5874834  45.8333817  61.1241035  10.8610249
  46.4422684  62.4577827  11.2372360  64.3660812  20.4213371  56.6383057
  65.1531677  20.1658649  57.1194191  64.4055328  19.9137650  55.8277245
   2.1967323  63.6296425  55.5191116   1.6969860  64.4287415  55.3520012
   2.3094819  63.2326431  54.6554489  74.3994827  49.6573334  52.8320312
  75.2019043  49.5843925  53.3487854  74.4493790  50.5262146  52.4335442
  25.4399147  62.7501030  53.8115349  24.7004528  62.3962097  54.3056908
  25.6432819  62.0725670  53.1666946  26.0763836  61.4506226  22.5166512
  26.3960514  62.2276726  22.9751644  25.9977798  60.7847977  23.1998291
  33.8819199  54.4567833  82.6119080  34.5827675  53.8067665  82.5617142
  33.3609810  54.1893349  83.3690872  29.6735306   5.4213142  34.3314095
  30.4822140   4.9190397  34.4313354  29.4312611   5.6654091  35.2246933
  61.3331947  18.7014008  25.7595100  61.6768036  18.3350334  26.5743370
  61.5518913  19.6321983  25.8044376  14.5402813  53.3456154  53.1608620
  14.5550470  54.1116753  52.5871353  14.3987846  52.6062660  52.5696144
  16.6916981  55.3991051  21.5687695  17.4458523  54.9381256  21.2013760
  16.4132862  54.8542786  22.3048973  13.4397554  49.9482574  32.5765915
  13.7108593  50.1218262  31.6751423  14.0793781  50.4162064  33.1133766
  72.9235001  66.0896530   7.8603745  73.2737122  65.8583603   8.7206593
  72.1327591  66.5940933   8.0514030  68.7447433  65.1298065  83.2014847
  68.3062592  65.2677307  84.0410919  68.3884964  64.3022308  82.8783188
  72.4174118  38.8898315   5.8439760  71.9509201  38.0904083   5.5999675
  72.7908554  39.2094002   5.0226092  31.5517178  53.3818016   9.5006523
  31.6267624  54.0969658   8.8688765  31.1214256  53.7764511  10.2591600
  46.9407959   5.3685980  49.2041168  47.1860390   4.4623265  49.3905602
  47.3217201   5.5477920  48.3444557  42.4362030  47.5831871  70.5670242
  42.2848244  47.0261192  71.3305664  43.2793617  48.0021553  70.7396011
  77.3006134   6.1330299  60.7857628  78.0968704   5.6057792  60.8506889
  77.4158554   6.8224168  61.4397507  83.9041290  61.0412827  53.8659744
  83.3351517  60.4444427  54.3520584  84.7258301  61.0419235  54.3569412
  37.1132240   7.0674615   4.9741931  37.7039070   7.5434408   4.3904376
  37.2240295   7.4917755   5.8250232  62.7832413  68.2344131  18.1106739
  62.3346558  67.8309326  18.8537788  63.6231308  67.7779312  18.0613098
  60.5642624  44.3561630  20.5882168  60.5480042  43.8801003  21.4184780
  60.3241997  45.2529068  20.8215675  60.7194138  25.9362164  68.6098251
  60.9553566  25.0476494  68.8763046  60.6168747  26.4138622  69.4329758
  58.9076729  58.5396538  32.8610878  58.0666695  58.9937973  32.9130402
  59.5436440  59.1749191  33.1900444  40.9884834  27.7678204  58.4915504
  41.2016373  28.1171284  57.6262283  40.7481689  26.8556366  58.3290749
  19.9100647  38.5271111   3.7104988  20.4170589  38.1208191   4.4134316
  20.5056419  39.1707878   3.3268321  48.5608177  64.4911499  31.8477345
  48.5960693  64.8814240  32.7210464  49.4527245  64.1831665  31.6868496
  53.9380417  38.8129349  36.3989944  53.5305290  38.6385689  35.5506096
  53.2018814  38.9065247  37.0035973  33.9056931  25.2103596  73.8346024
  33.9278679  24.9101028  72.9259796  34.5702057  25.8980751  73.8758774
  85.3303833  50.4556618  40.3322945  86.0150299  51.1118317  40.4624023
  84.5565414  50.8302536  40.7531090  86.2429886  16.9217758   9.7979889
  86.8994446  16.5496426   9.2090769  86.7317352  17.1475163  10.5894423
  74.3106613  15.8939333  52.2007446  73.5205536  16.4303570  52.1358452
  73.9906998  14.9921598  52.1750793  57.9275551  21.7893772  72.7855988
  57.3188057  21.9359531  73.5095978  57.6088333  20.9921932  72.3623428
  81.1653824   0.0788641  18.8839264  80.5518417   0.1422566  19.6159019
  82.0067291  -0.1228548  19.2933998  73.9155273  15.1243324  59.3987465
  74.4882584  15.8571482  59.6250038  74.1073761  14.4578543  60.0584679
  50.7801628  10.1303062  60.6917915  51.4987144   9.5763578  60.3867455
  50.8536339  10.9280005  60.1678467  51.7665215  19.5305424  39.6764832
  50.9919891  19.1129894  40.0532837  52.0571899  18.9250164  38.9945145
  12.3528547  54.4088287  86.3085251  11.8389359  53.9958267  85.6145859
  11.6996984  54.7538605  86.9172668  60.3905602  39.1318321  17.2859821
  59.9099541  39.4585571  18.0465755  59.7635727  39.1867218  16.5647984
  12.8502903   0.4684000  79.7418976  13.4090748  -0.1514817  80.2106628
  12.0322561   0.4766595  80.2388763  52.1406136  13.3149338  83.4133148
  51.4542809  13.9287434  83.1517487  52.5821152  13.0865154  82.5953140
  64.4257965  64.4661255  47.2896042  63.9079514  64.7068024  48.0578156
  65.3125305  64.7613449  47.4964218  42.6590500  48.5560036   3.8042507
  42.9630203  49.4007988   4.1361418  43.4101448  47.9723511   3.9111993
  85.8105164  52.5063591   4.9289584  85.3818207  51.9894257   5.6110349
  85.7771454  53.4061356   5.2537889  78.3835068  59.5913391  74.1417007
  78.4100113  58.6609840  74.3652420  79.1597443  59.9609756  74.5624847
  47.1370506  18.2841530   2.1759367  46.7702446  18.8254280   2.8750136
  46.5159302  17.5620232   2.0812147  78.9617996  66.9830551  54.0875320
  78.5770950  67.8591995  54.0630379  79.0334549  66.7271423  53.1679611
  38.6103287  47.0159607  43.4178505  39.3847084  46.5280914  43.1375771
  38.8951416  47.9296913  43.4322243  37.2602501   1.1069614  54.5033760
  38.0856361   1.5916946  54.5047112  37.3309708   0.5115237  55.2494888
  56.6383934  46.5863762  47.6295280  56.2762833  47.1888809  48.2792206
  57.5783043  46.5758133  47.8103104   3.4025218   2.1839356  17.1596050
   3.0950918   1.5629504  16.4992294   2.7346282   2.1552470  17.8446808
  10.9428787  38.4788399  82.1631775  10.1159239  38.1792526  81.7855148
  11.4126482  37.6736145  82.3803406  76.1953506   8.5636206   9.3518362
  76.6095581   7.9530883   9.9616823  76.8633652   9.2295141   9.1888285
  81.8230743  47.1427803  34.8026619  82.3536682  46.5288506  35.3103943
  80.9824982  46.6984100  34.6922302   5.3322525  33.5564766  73.7239075
   4.4351120  33.6572800  74.0420456   5.2445149  33.0503387  72.9162216
  46.0833855  17.7182541  44.9570351  46.1056252  16.7689018  44.8367691
  46.7495995  17.8910828  45.6222572  86.5112686  21.2292404  88.8541718
  85.7392654  20.7061787  88.6381760  87.2406006  20.7568932  88.4526901
  39.8491440  64.3255692  65.7711639  40.2361565  65.0112534  65.2268372
  39.6089020  63.6357460  65.1525650  42.8246956  71.4478760   8.5407591
  43.0717125  70.5625381   8.2735682  41.8714600  71.4163742   8.6219139
  71.2210007  42.8124542   3.5860569  70.4516449  42.6726913   4.1381383
  71.6249237  43.6070786   3.9348385  27.4592190   3.9506989  20.1094341
  27.6939163   3.3548853  19.3979893  28.2802124   4.0982695  20.5789280
  48.4228897  16.9809055   4.8750396  48.6977386  16.0804310   4.7023096
  49.0395355  17.5189552   4.3785644   4.4506488  59.5065079  23.8023663
   3.8066301  60.0772820  24.2215195   5.2610373  59.6632881  24.2870541
  71.8521194  68.9353333  60.5190430  71.0453873  68.6975555  60.0620117
  72.5313263  68.8883514  59.8462105  28.7107544  37.4787140   6.1888394
  27.8794746  37.3130112   6.6335263  29.0747337  36.6079254   6.0292134
  62.5728760  30.3694439  80.8680573  62.0491753  30.6378174  81.6230011
  62.0890656  29.6352406  80.4897614  80.2029343  38.8605728  62.7733765
  81.0362778  38.6466789  62.3538170  80.3051300  39.7680740  63.0601311
  80.0117111  27.1842079  50.0903549  79.0575104  27.1097832  50.0765419
  80.3122482  26.5281010  49.4615211  54.6791992  32.9965973  48.0349426
  55.3101425  33.7162132  48.0522308  54.3325386  33.0033913  47.1427498
  18.7816181  68.2365723  66.2304306  19.1889324  67.4842682  66.6598053
  19.5009766  68.8532562  66.0945816  36.0166512  37.3231087  69.2424850
  36.0954323  37.9202499  69.9864273  35.1507683  36.9277573  69.3433533
  10.2221718  40.1138878  38.6988335   9.6790609  40.5736732  39.3390350
   9.5950489  39.7048454  38.1024818  85.0219345  50.4637108   1.1902816
  85.1877518  50.5721436   0.2538099  84.1155014  50.7480659   1.3075230
  19.4981575  48.8656883  41.6347885  19.5224571  48.4066010  42.4743614
  18.6128254  49.2260780  41.5844116  67.5903625  21.7566700  78.8024902
  68.2688599  21.1303139  78.5503998  67.0044174  21.2585945  79.3724213
  39.9676743  47.5561066  61.1081734  39.6262627  46.7096939  60.8196335
  39.2921333  47.9002571  61.6925011  69.3257751  24.2820854   4.5773764
  69.3904037  24.1093330   5.5166373  69.6192322  23.4702625   4.1637840
  49.8473701  43.2533569  54.0374107  50.2092705  44.1392593  54.0583000
  49.3583298  43.1750336  54.8565140   8.2137060  25.9642239  75.9305573
   8.7672367  25.4713631  76.5363007   7.6176667  26.4551640  76.4961929
  36.7486572   1.8383071  50.4102745  36.2276230   1.8418813  49.6073151
  36.4355659   2.5973101  50.9023323  60.5619049   2.9872715  37.0393753
  61.0897560   2.2425659  37.3275032  61.0993080   3.4191332  36.3753586
  46.9141121  35.8223114  23.7765789  47.2346306  35.8971100  24.6754131
  46.6387939  36.7095528  23.5458565  21.7653103  68.4820709  72.2803345
  21.6022358  67.8715439  71.5613861  22.5325432  68.9816208  72.0009766
  34.4354324  37.0999489  79.2040024  34.3651352  36.2987099  78.6850510
  33.6944847  37.6351662  78.9197998  20.9998875  58.6673965  74.5923996
  20.3964252  58.4796486  75.3113022  21.4362068  59.4789505  74.8516998
  53.6813087  38.1714439  70.7683945  53.9226875  39.0564270  71.0418396
  54.3327522  37.6063614  71.1837692  38.7794647  36.8985214  29.7825775
  38.8738518  36.0698929  29.3127956  39.1396332  37.5545540  29.1858082
  79.5632172  16.9899178  31.6985359  79.0571442  17.7582188  31.4342766
  80.4718018  17.2254143  31.5107708  60.5063095  40.9588509  24.4229546
  61.0185623  40.1522675  24.4800014  60.8013649  41.4831314  25.1674671
  49.3427887  68.3194656  37.7156982  48.8173637  69.1107864  37.5975113
  48.7765617  67.7277908  38.2112198  41.8951225  10.4424562  14.6026154
  42.6905670   9.9132061  14.5443268  41.3263359   9.9551334  15.1986275
  38.0126419  57.6434441  74.8104935  38.0694580  58.5965385  74.8784256
  37.0928459  57.4452019  74.9862823  46.7101326  11.2561817   3.5757530
  47.6233482  11.4274817   3.8058052  46.2608566  12.0840263   3.7462132
  74.7124481  35.2428131  41.1901283  74.9395905  34.3997917  41.5824928
  73.7864685  35.1593170  40.9624748  61.8014793  54.2898407  69.9867630
  61.4893227  54.8218918  69.2548447  62.7550888  54.3068848  69.9056778
  36.5140305  45.4229660  32.7489357  36.1472931  45.2714996  31.8778496
  36.2267380  46.3064537  32.9794579  76.3332596  27.3577690  23.4698563
  77.1735382  27.5233669  23.0423851  75.7230301  27.2065372  22.7480621
  14.9337206  33.2771225  64.5526352  15.0392542  32.5229187  65.1325302
  14.8786268  32.8987045  63.6751442  19.5870972  54.8877220  21.0744991
  20.4349823  55.2586594  21.3188915  19.4866505  54.1244774  21.6433544
  45.2485733  49.2943382   8.7683964  44.6936646  48.5160904   8.7170315
  45.2489166  49.5274010   9.6967888  53.1541672  46.4220200  70.9917755
  52.7748718  46.5084038  71.8663559  54.0829048  46.6195145  71.1129150
  69.0805283  63.3414536  24.5961399  69.4694366  64.1139908  25.0062160
  69.1819839  62.6477051  25.2477951  75.6679688  28.8346500  41.5493317
  74.9983215  28.7749710  42.2306862  76.4276047  28.3855305  41.9201050
  82.5855408   4.7622566  55.8566551  83.3300629   5.3494468  55.9875374
  82.3321228   4.8966866  54.9434547   3.3980095  63.4796677  79.0653229
   2.5491366  63.5167656  79.5060806   3.4224505  62.6103554  78.6654129
  11.5117760  47.7726288  54.7958984  10.6307220  48.1128731  54.6403008
  12.0043535  48.0158691  54.0120392  39.5907745  31.3782234  74.5922546
  38.9413986  31.3268681  73.8908997  40.3173447  30.8354168  74.2861633
  42.7996216  23.8601227  80.9568100  42.5375862  23.0671577  80.4890747
  42.8679504  23.5870190  81.8716736  26.8384781  30.0637779  66.8074265
  27.6183414  29.8772640  66.2846909  26.5290470  29.2035961  67.0912857
  38.4824600  31.1663723  47.6483536  38.5980606  30.8005733  46.7713928
  37.8172836  31.8458862  47.5386543  63.5649910  48.5821571  64.4293213
  63.5239296  49.4890785  64.1259384  63.5021210  48.0591621  63.6301003
   0.8498523  71.7688980  60.1923943   1.5874913  71.6155777  60.7828255
   0.8712265  71.0291672  59.5852966  60.9625130   2.3722663  61.5906944
  60.2180405   2.5108011  62.1761818  61.7309341   2.5359824  62.1374664
  35.2818451  47.9415512  33.7405663  34.6501999  48.3752670  33.1668510
  35.7106247  48.6575241  34.2093544  50.8867645  34.0000687  19.9658184
  51.0519028  33.2248802  19.4291191  50.0869980  34.3783913  19.6004677
  58.6772385  69.8603821  84.2235031  58.8804054  69.6245956  83.3183136
  58.7472343  70.8148041  84.2438736  64.1296692  64.1271210  31.9568214
  63.4338112  63.5545158  31.6341209  63.7831306  65.0122223  31.8439980
  53.7275505   9.4091253  66.7002792  52.9213905   9.0798655  66.3028793
  53.6873398   9.1082163  67.6080551  56.4719200  69.0108337   0.4709302
  55.6670609  69.0212936  -0.0470695  56.7236824  68.0879135   0.5037000
  53.8874054   1.5302997  78.8896713  54.3234367   2.3699694  79.0347977
  53.4639168   1.3327876  79.7250671  27.0942211  39.4008331  43.0833664
  26.6092014  39.2503395  43.8947487  27.4157524  40.2991829  43.1596375
  66.1912079   1.6464618   2.9692967  65.5806198   1.5113974   2.2446067
  65.8030624   1.1679943   3.7018573  37.2824707  58.4744301  79.2311630
  36.6719284  58.7017136  78.5298691  37.4595604  59.3048630  79.6730423
  46.1574059  38.2465897   3.9004843  45.8528366  37.3462029   4.0135055
  46.9735909  38.1632347   3.4074078  15.4125366   1.8448706  14.9632082
  16.1667042   1.9781154  15.5374107  15.0898619   2.7278128  14.7828588
  78.2334290  29.5499763  10.6941547  77.5110016  29.0335579  10.3368816
  78.9822464  29.3297062  10.1400909  12.9800215  28.4153442  15.5905867
  13.2749796  28.7677822  16.4302406  12.0252495  28.4038754  15.6577559
  11.9839020  19.4040833  59.0939865  11.1890955  19.4659061  58.5641823
  12.4706831  20.2025242  58.8896217  15.3439951  59.8276176  25.1894531
  14.5166035  60.2850723  25.3390846  15.3929167  59.1837959  25.8960896
  41.1803398  40.8445625   6.1424265  40.4979820  40.7719040   6.8097649
  40.9998245  41.6765556   5.7048907  78.0000610   3.6212947  76.0403519
  77.3312607   4.0401492  75.4985962  78.7642288   3.5536947  75.4678955
  23.7767448  26.9924221   0.4699683  23.4051094  27.7755661   0.0640061
  23.1237297  26.3097916   0.3156331   5.8761983  31.2931271  85.5391769
   6.4180431  31.3981075  86.3212357   6.4929032  31.0380955  84.8529739
  57.7403526  38.5329704  73.6219330  57.4954033  38.1755295  72.7684326
  57.3914719  39.4243164  73.6173782  39.5923538  39.2939034  49.3297043
  39.4986649  40.1407585  48.8934822  39.1230507  39.3976593  50.1574860
  32.0286407  39.6739616  26.1120224  31.2525520  39.1560631  25.8982563
  31.9827366  39.7939072  27.0605679  23.3210964  67.8620758  18.6025677
  23.9159927  68.2432938  17.9568100  22.4465179  68.0361023  18.2546329
  78.1522064  38.1666679  32.7480583  77.8256302  38.3546982  31.8681583
  77.9560165  38.9574738  33.2504196  15.6726637   9.8194551  28.1481590
  15.4825869  10.1664610  29.0197620  15.2388554   8.9663916  28.1301479
  47.0879364  39.4430504  12.9240084  46.1525764  39.6448669  12.8994198
  47.3824577  39.5620651  12.0210552  60.2325478  17.8194828  70.0026474
  59.6159325  18.0724449  69.3156052  61.0911827  17.8633270  69.5818710
  61.5516472  51.0970078  66.4157028  62.0330544  51.3384171  65.6243744
  62.0328522  51.5196304  67.1270828  15.9030590  59.5922775  51.1852150
  15.0830297  60.0556412  51.3557281  15.9824886  59.5890961  50.2313194
  62.1296883  18.1888294  33.2285118  62.9949532  18.4356060  32.9019394
  62.2312241  18.1628876  34.1799545  48.7510185  51.0241432  85.6740494
  49.1843338  50.3016014  86.1283646  49.3712387  51.7507935  85.7335281
  41.1071815  71.3118668  71.4546890  40.3863716  71.0442963  72.0248337
  41.1132240  70.6596375  70.7541199   0.3122050  69.0072174  61.9874268
   0.7960387  68.2232132  61.7276573   0.9871142  69.6181335  62.2832489
   3.0353708  61.9024162  11.9595604   3.6349313  61.7115936  12.6809101
   3.5770967  62.3506317  11.3100452  16.2254448  69.0395508  57.7046661
  15.6428185  69.7156143  57.3586693  15.7687798  68.7010269  58.4747887
  85.9050064  22.9715996  19.0177879  86.5624161  22.3455334  19.3212452
  85.1431274  22.4335308  18.8027287  75.4299698  39.5241013  36.2070503
  75.8543396  38.6994324  36.4438286  76.1348648  40.1712875  36.2295151
  22.5431576  11.8682041   9.0333176  21.9146175  12.5901079   9.0283670
  23.0195160  11.9710283   9.8571749  11.6557827   3.5789738  77.6043167
  11.2416611   2.8256040  78.0252304  12.5914011   3.4604523  77.7680283
  45.2478409  35.5101318  21.1789150  45.6731529  35.5123253  22.0364342
  44.7358551  36.3187485  21.1634293   1.1530353  14.9431143  50.0669441
   1.5884281  14.1348095  49.7961884   1.5598719  15.6249609  49.5323372
   2.8156250  10.6252346  56.2436638   2.9345522  11.4725122  55.8144646
   2.2115364  10.1503191  55.6729050  72.2949295   3.8213899  83.2808685
  73.0554886   3.2402508  83.2731628  71.7692032   3.5180342  84.0210190
  60.7667923   3.5156724  47.6574097  61.0251694   4.2365294  47.0830917
  61.1551819   2.7384443  47.2557831   9.4226313  54.7596588  85.6008682
   8.4856558  54.6576614  85.7679138   9.6771955  55.5214958  86.1214752
  10.3883104  43.7543449  65.7435837   9.8236208  43.7060394  64.9722061
  11.2658510  43.5674286  65.4100876  72.7706375  11.7657185  42.0988121
  72.7910156  11.3257103  42.9486389  72.4716568  12.6534290  42.2958298
  55.4541206   8.3133707  23.6835575  55.1797295   7.6577301  23.0424061
  55.4306755   7.8526778  24.5222721  58.3768654  40.3585701  15.6565475
  58.7462616  39.8385162  14.9428797  58.5182762  41.2667351  15.3892021
  42.5450935   7.1562738  65.4983902  42.7360153   6.3413925  65.0339050
  42.7508583   7.8456941  64.8670502  84.7058945   7.7516932  75.3111115
  84.7885590   8.1870861  74.4626846  84.6167068   6.8232126  75.0961685
  21.9789295   1.2917323  85.6351013  21.7494907   0.5253057  86.1606369
  21.4658585   1.1944010  84.8329086   8.9864063  50.1162682  87.8938599
   8.9490976  49.6287766  87.0709457   9.8937254  50.0255966  88.1850357
  50.5621719  41.5579796  87.2724991  51.0810089  41.2038231  86.5502701
  50.1406059  42.3352470  86.9059372  81.6686249  45.1017761  86.1089783
  81.0637207  45.2764587  86.8299561  81.2361755  45.4706230  85.3388062
  46.4785805  36.2926483  82.9014664  45.5683098  36.2906837  82.6054459
  46.9136353  36.9289322  82.3339310  56.6323242  69.8456421   9.5161390
  56.3456306  69.3404388  10.2769337  56.0169792  70.5773163   9.4687796
  66.3113861  14.9226551  59.7156906  66.6762848  14.9647064  60.5996056
  67.0386658  14.6228113  59.1703491  21.5050983  37.2874641   5.5218081
  21.4632645  37.3640480   6.4750218  21.6665783  36.3574257   5.3631034
  64.1399078  60.5687752  25.3569279  64.5523758  61.3160057  25.7902317
  63.7248802  60.9419823  24.5793056  68.5502319  51.1315842  74.2566528
  68.7997513  52.0242424  74.0176392  67.5932693  51.1463623  74.2719955
  21.0689335   6.9725580  68.3445969  21.3214741   6.0513616  68.2825317
  21.8867378   7.4329386  68.5329437  38.6368408  20.0924931  74.2005844
  37.6985741  20.0688725  74.3885574  38.9705811  20.8114853  74.7371445
  40.2544823  -0.2309710   5.8919659  39.9538841   0.5961277   6.2685032
  39.9467659  -0.2074965   4.9858799  61.1667976  46.8393707  32.5979805
  61.8576088  46.1938744  32.7474785  61.5678215  47.4903374  32.0220833
  40.4712181  67.7588272  86.4316788  40.7160606  67.6093216  85.5184784
  40.5550117  66.8999329  86.8458099   4.7456393  64.0572128  37.9246788
   5.4209294  63.3943405  38.0689392   3.9795165  63.5601883  37.6378860
  14.8985796  37.9726334  77.4753952  14.7953682  37.1662674  77.9807129
  14.6353807  38.6682434  78.0779572  42.4569168  67.6694717  46.5879097
  42.5746384  68.3898392  47.2071381  42.3806992  66.8902817  47.1386185
  71.2026749  23.6568775  86.2237930  71.1077652  22.7046032  86.2437363
  72.0079651  23.8070011  85.7286148   7.2413297  46.3904839  36.6058273
   6.6261840  46.2008018  35.8974152   8.0881529  46.0921288  36.2740059
  20.9689980  34.2624245  13.6961803  20.4148998  34.8904266  13.2326918
  20.8197727  34.4496841  14.6229467  72.0345306  41.2993927  19.9211102
  72.8854828  41.5215187  19.5432663  71.8993607  40.3819084  19.6840725
   0.7677352  54.1930275  54.6905060   1.5942020  53.7349434  54.5377159
   0.6949536  54.2443085  55.6435585  23.3623295  59.6495209  84.6698761
  23.9299717  60.1512222  85.2549515  22.5673180  60.1775475  84.5965729
  45.3432579  59.2386208  26.4328308  45.2072067  60.1703415  26.6049347
  44.5529900  58.9629555  25.9683781  49.8605766  27.7779312  28.7919197
  49.2681198  28.1597900  29.4395409  49.2811775  27.3699512  28.1484280
  35.4974365   4.5791283  70.9110641  34.9055252   5.2560205  71.2392197
  35.5590401   3.9470797  71.6272659  14.1716337  41.4591675   1.9220407
  13.9077206  40.7265663   2.4787073  14.5969744  42.0734825   2.5203164
  35.2037010  49.6931915  54.4301643  35.1366615  48.9645119  53.8130989
  34.7333679  49.3925972  55.2077637  67.2668610  23.6706829  20.8006134
  68.1827469  23.6967831  21.0775719  67.1956863  24.3625698  20.1429977
  56.1525154  40.6014977  41.1558189  56.8973770  41.1956406  41.2475166
  56.5465431  39.7527466  40.9543304  74.5041733  55.2282639  15.8829937
  75.3120193  54.8092575  15.5862608  74.1425629  54.6210480  16.5285568
   9.2307043  52.4079628  39.4228287   8.8613176  52.0490150  38.6160164
   8.6272707  53.1080475  39.6717949  31.2403202  40.1497307  88.5640335
  30.8333549  40.7472992  87.9367218  32.0848885  39.9290009  88.1713257
  63.5594292  29.4373150  40.2247200  63.8827820  28.5863495  39.9288597
  63.1553154  29.2580013  41.0737038  40.2122498   1.7908238  82.5952759
  39.7503357   2.6213663  82.4809723  40.0909081   1.3328341  81.7635651
  66.5597763   5.5776486  31.5657253  67.2726440   5.5218024  32.2020683
  66.9907761   5.8087726  30.7428951  36.0457191  67.6270752  72.8785172
  36.4355659  67.6090622  72.0044861  36.3583641  68.4458313  73.2633972
  52.0748749  39.0017052   9.8294306  51.1675415  38.7950592  10.0536509
  52.3085938  38.3586349   9.1600523  78.3918915  12.0178833   2.5364790
  77.7923965  12.7640934   2.5332193  77.8706055  11.2903786   2.1970189
  56.9312096  32.2875671  20.6144123  57.0850372  32.8776398  19.8765907
  57.5051308  31.5400352  20.4469585   3.0161953   3.9300168  76.0064392
   3.7393408   3.3094816  76.0971527   2.6713848   3.7692475  75.1280899
  21.6274643  65.1830826  12.9953146  21.5388355  64.2301559  13.0126076
  21.1347485  65.4554443  12.2211809  33.5098495  60.3091316   5.1312876
  33.1606026  60.9726944   4.5363588  34.0492134  59.7479782   4.5741267
  75.5367737   8.2433043  75.7759094  76.2695541   8.3180332  76.3871994
  74.7763138   8.0766573  76.3328247  82.2762070  46.9151268  26.7401543
  82.4028244  47.4976730  25.9912643  81.5867615  47.3338737  27.2554626
  84.6565552  12.8505764  75.4837952  85.2606430  13.5688934  75.6717529
  84.5458679  12.4047556  76.3235703  76.7794800  71.1586685  17.8017559
  77.4308777  71.8574371  17.8620682  77.2346573  70.4448090  17.3551617
  49.6596794  52.7284622  51.3306580  50.0138054  51.9038429  50.9977417
  48.7728195  52.7700577  50.9729118   1.3863807  26.9168701   9.0996084
   1.7825930  26.9709435   8.2299404   0.7697278  27.6484280   9.1277723
  66.9291840  48.6729088  14.5633240  67.8399429  48.3953743  14.6619873
  66.9743729  49.6274071  14.5074482  51.0341797   3.5767136  38.0431442
  51.4159584   3.2904499  37.2133675  51.1503525   2.8299093  38.6305275
  65.6855087  33.2746201  61.1514206  65.8721695  32.5562286  60.5470161
  64.7341843  33.3749390  61.1176949  83.0391541  67.7504807  18.4065914
  83.7035751  67.0774841  18.2587910  83.5379791  68.5607910  18.5104809
   4.3493447  29.4366665  74.2288208   3.9592187  30.3047523  74.3311005
   5.2897844  29.5832405  74.3304138  81.8433533  43.3571548  80.0094528
  82.6950912  42.9211807  79.9828873  81.7117310  43.6801796  79.1180725
   1.4471506  14.6864529  57.2064171   1.8367755  14.0427046  57.7980385
   1.8245262  15.5224781  57.4800644  46.0813904  14.5170994  19.7817307
  45.1529655  14.6116943  19.5688782  46.4044571  13.8650589  19.1598759
  15.2180166  12.5735159  73.7059860  14.7562361  13.3647718  73.4286728
  14.6878386  11.8541460  73.3629837  20.0714569  28.0038948   2.7820399
  20.6573677  28.6123791   2.3318319  19.6832314  28.5223846   3.4867971
  38.4583664  61.5185738   2.1470499  39.1408997  60.8644524   2.2970731
  38.8391762  62.3385315   2.4615142  77.5756073  35.2043533  34.9481544
  77.8536835  36.0337067  35.3368416  77.3855438  35.4195900  34.0350380
  16.7959003   1.8092536  79.6301575  17.0684109   2.4301231  80.3057938
  17.4447918   1.9126350  78.9341049  42.2497292  47.3035011   7.1550021
  41.3343849  47.3127670   6.8751974  42.2384338  47.7034683   8.0245590
  30.3454781  18.4141560   8.8713093  29.3918686  18.3627014   8.8064203
  30.6390095  18.5632038   7.9725008  38.7653236  48.0454025  71.6921005
  38.9008789  48.1957283  72.6276550  39.0872231  47.1563263  71.5432663
  17.0798931  23.7341080  73.7879410  17.2367382  23.7369518  72.8436813
  16.2045364  24.1086426  73.8864670  61.4774933  42.9225121  79.0230026
  61.5986671  42.8135300  79.9662323  60.8135986  43.6075630  78.9443893
  57.5430984   5.5649467  17.2251244  57.5505333   5.2402811  18.1255512
  56.6483879   5.4102898  16.9221344  66.0197830  36.5331306   3.0554414
  66.8885422  36.1340370   3.1024959  65.4164963  35.7906380   3.0241158
  48.6469688  53.4093246  21.8570576  48.4796524  53.8196716  21.0086155
  49.0960655  52.5915222  21.6431789  69.4049454   3.4174769  73.0862808
  70.1877060   2.9909008  73.4349289  69.2826462   3.0242581  72.2221909
  60.5716515  23.6576843  55.8429375  61.2329712  24.3002567  55.5860481
  60.9675865  22.8109646  55.6366959  84.5446396  34.3619766  15.0595551
  84.6915131  34.5764656  14.1383324  83.9638824  35.0535545  15.3768482
  13.5207844  62.0666046   8.7885809  13.3442202  62.8083000   8.2098341
  12.7181063  61.9656296   9.3001900  58.4761848   2.9487908  75.4032364
  58.1775742   3.5790136  74.7475815  59.1306496   2.4201393  74.9466858
   3.2667716  64.5269318  17.6227627   3.2722242  63.5712433  17.6762218
   2.4420052  64.7851334  18.0342522  42.6137276  54.6599503  61.7278404
  43.1655998  54.8432617  62.4881439  42.2570572  53.7876511  61.8955078
   8.2519531  52.2269974  64.4477081   7.7536101  52.9149323  64.0065384
   7.5976386  51.7426376  64.9511948  75.3193130  56.4548607  60.4353905
  76.1681213  56.1576195  60.7631111  74.8218918  55.6494331  60.2936668
  32.5156593  63.3336334  83.4236145  31.9362164  63.7534218  84.0594254
  32.4791412  62.4029236  83.6442413  86.0565872  34.7375221  78.5005112
  86.3196106  34.0257378  79.0839539  86.5082550  35.5082817  78.8442459
   8.7400856  18.2012615  72.2485123   9.0932760  17.4029579  72.6411972
   8.9787655  18.1391010  71.3236313  -0.1783815   6.1396985  49.4259949
  -0.2660030   6.8669658  48.8098488   0.7658152   6.0437746  49.5505867
  15.3593559  55.3797569  51.6608009  16.0604515  55.2534714  51.0214653
  15.6581011  56.1100121  52.2027512  29.7212105  68.3384628  83.8718643
  29.6234035  68.8953476  83.0995026  30.1051693  68.9129333  84.5342789
  77.3157043  64.4482498   2.3064179  76.3945389  64.5288239   2.0590374
  77.5276108  63.5289192   2.1446824  55.5488167  46.2480545  32.0435524
  56.4537430  46.0629921  32.2947273  55.5913429  47.0967140  31.6028709
   0.3415114  17.9125156  69.0040054  -0.3023672  18.6149845  68.9135132
   0.7201148  17.8205452  68.1296844   9.0396643  24.2083817  70.9981461
   9.2024498  23.4418335  71.5478210   9.4336653  24.9360943  71.4792175
  30.6435032  59.6561623  86.1509628  31.1099529  58.8263779  86.2515335
  30.0693073  59.5183754  85.3976059  18.5544910  49.1017761  22.8117027
  19.3100052  49.6833458  22.8965797  18.9102364  48.2246284  22.9541492
  15.3113928  67.0169754  16.5101414  15.4330463  66.1826706  16.9633179
  14.3990545  67.0016479  16.2209415  65.6780548  15.5935993  70.3902130
  65.4087143  16.4771576  70.6412430  65.2413712  15.4389915  69.5525742
  61.0162315   9.4650774  61.7413406  60.4582825   9.9641590  62.3378677
  60.4028206   8.9952822  61.1763191  52.4078217  11.2757940  12.4994001
  52.7330170  11.7875776  11.7587528  53.1897926  11.0753155  13.0137510
  49.5392380  57.6620560  36.8898201  50.1189003  58.0436974  36.2305984
  50.1278648  57.3683624  37.5851555   6.5836158   9.5810957  27.9797096
   7.3966603   9.8973341  27.5857773   5.9543848  10.2865677  27.8293419
  76.5627289  37.1659126   2.8555048  77.0603485  36.3722191   3.0521173
  76.3860245  37.5560379   3.7115486  57.5165443   9.8282433  71.3129730
  57.8554878  10.3212080  70.5657501  57.4059753  10.4834929  72.0019226
  30.9896030  61.7012749  19.2523289  31.6505508  62.3359604  19.5290165
  30.6781807  61.3088036  20.0679359  75.3382111  29.9636612  58.9914169
  76.1347351  30.4388714  58.7548523  74.9802704  30.4506779  59.7336578
   8.9056540  59.6918716  28.4409351   8.9962273  60.2609062  27.6765900
   9.7302217  59.7956543  28.9158554  58.8615913  60.2084007  27.7817287
  58.5267525  61.0659752  28.0438042  59.0234871  59.7519608  28.6073704
  46.7569695  63.6451797  37.0351028  47.0990372  62.7918205  37.3015556
  46.4032669  64.0234146  37.8401260  13.9646778  32.2063522  22.5110397
  14.8350525  32.4700089  22.2124310  13.3614092  32.6759491  21.9350357
  65.1817322   1.6806805  36.2212029  65.1109009   0.7321430  36.3284035
  65.4664612   1.7987019  35.3149834  51.2486725  44.7446327  59.2834702
  50.5703583  44.5296745  59.9237175  52.0191383  44.9533348  59.8117294
  48.5951767  69.9149628  85.8158875  48.7955322  70.5588989  86.4951859
  47.6406593  69.9298248  85.7458344  21.5801926  49.1638985   6.4967523
  22.0036469  49.8086548   5.9300008  21.3356953  48.4506035   5.9071217
  72.3784714  30.2594776  20.1045589  71.8586121  29.8379993  19.4202099
  71.8393326  30.1892529  20.8923626  36.5777283  69.0961227  62.2235222
  37.0510063  69.2094421  63.0477791  35.8740234  68.4822845  62.4338303
   6.8644733  66.6267242   6.5661077   6.8601441  66.0740891   5.7845674
   7.7040596  66.4405746   6.9864335   3.8838542   9.9750223  84.3270798
   4.7883325  10.2031164  84.5418472   3.3653557  10.7027168  84.6703796
   7.0000896   8.1855373  16.7080193   7.8522768   7.7513914  16.6689529
   6.4243569   7.6308689  16.1816101  31.9733086   3.0603969  63.1974907
  32.7184563   3.6252956  62.9928589  31.8251400   3.1893654  64.1343231
  63.7816467  45.4955101  80.2997284  63.1639366  45.0659332  80.8914490
  64.4634628  44.8408508  80.1487732  35.8475723  35.2752419  16.0839691
  36.7951241  35.1528397  16.0256844  35.6937523  36.1393509  15.7020178
  75.9367599   7.2014475  88.3071976  75.9087143   6.2913957  88.0118179
  76.5861206   7.6174097  87.7401505  58.7483521  16.2538147  37.3717117
  59.2704697  15.8278913  38.0515747  59.2460289  16.1157551  36.5658035
  43.9580193  26.6574707   4.3740549  44.0524635  26.1642742   5.1889596
  43.3600502  26.1310635   3.8434322  50.3099289  53.1869202  86.3508835
  50.7339592  53.2496071  87.2067490  49.6259766  53.8562164  86.3728485
  34.4563980  46.1857491  84.7456360  34.9074554  46.1783600  83.9014053
  33.9831734  45.3541145  84.7716370  14.4033976  57.0393753  46.9673347
  14.0880737  57.1136284  47.8680534  13.6259203  56.8066101  46.4598122
  51.0303116  41.4611168  45.6881981  51.3606758  41.7551804  44.8393059
  50.9056244  42.2672653  46.1890030  71.9841537  56.0642929  15.2590189
  71.7290802  56.1900368  16.1729984  72.9282455  55.9100914  15.2928705
  79.4425888   9.0069437  76.7081375  79.0018768   9.8445969  76.5655136
  79.5135040   8.6218395  75.8346939  37.8814087  53.9804840  73.2707291
  36.9934196  54.1892319  73.5607910  37.8587875  53.0413666  73.0869370
  26.1191196  54.7400017  79.3313065  25.6324577  55.0755577  80.0841675
  26.4815140  53.9067917  79.6324158  75.6556015  30.5964050  74.9966507
  75.9587173  30.0094528  75.6893539  76.3960037  31.1818981  74.8378067
  47.7994804  58.5160789  41.5037193  48.4871902  57.8502846  41.5042877
  47.2406921  58.2826080  40.7624512  63.6762733  20.9896946  74.8581619
  63.0811844  20.2421246  74.9151306  63.1187439  21.7520390  75.0138092
  18.5444374  66.5324936  73.5605774  19.0596771  67.0746384  74.1579285
  18.8175831  65.6359100  73.7549057  13.8898439  21.9053898  86.9696350
  13.1428566  22.0768013  86.3961716  13.6004896  21.1864395  87.5314331
  70.1346207  25.2296047  44.9964485  69.1910934  25.3884792  44.9690018
  70.4394760  25.4447823  44.1149750  77.9710083  48.8364601  86.8065491
  77.1565018  49.2731361  86.5572815  78.6188354  49.5402145  86.8422928
  34.4891052  31.8635044  68.5140152  33.5960388  31.5685043  68.6918793
  34.3798256  32.7085190  68.0778503  46.3294106  41.5851326   8.3144855
  45.5756226  41.9020767   8.8120613  45.9643135  41.3175659   7.4710727
  40.5123749   4.3815694  24.2332401  40.1646004   3.7396200  23.6142216
  40.5250397   5.2039714  23.7436218  74.3839111  42.2106094  18.6811390
  75.0745544  42.0964661  18.0282879  74.6589050  42.9733772  19.1898594
  57.8429756   5.2014627  74.1353455  57.5602455   5.1700239  73.2213898
  57.2236977   5.7970290  74.5572739  25.0215607  63.9358521  15.8677826
  25.4420662  64.7818985  15.7141314  25.5667076  63.5146103  16.5323105
  31.7820911   2.1197674  80.6679916  32.4898567   2.2063289  81.3065872
  31.0937805   2.7000313  80.9931946  10.1558075   2.2319896  75.2988892
   9.8313980   1.4704187  74.8182602  10.6423492   1.8611575  76.0350876
  77.6090317  14.4572353  23.2376671  78.5636368  14.4993639  23.2940578
  77.3035049  15.1420250  23.8326015  81.1914062   6.1985068  66.8959503
  81.9133759   6.8209190  66.8088074  80.8286438   6.1273432  66.0130157
  65.8562012   7.0250998  14.0559273  65.7888412   6.6618381  13.1729012
  66.1891174   7.9129272  13.9249239  39.5707970  18.4852257  81.8590546
  40.1189499  18.4197483  81.0770874  38.7326088  18.8167362  81.5369186
  38.1533661  18.4705849   7.6509523  38.1952858  17.7675838   7.0026746
  37.4707870  18.1927223   8.2617788  44.0324402   8.4887724   2.0611684
  44.1828537   9.4262190   1.9395094  44.8060112   8.1814280   2.5337796
  49.0565643  44.3356514  61.3056221  48.7417183  44.8074455  62.0766678
  49.3300209  43.4822884  61.6421089   5.5107651   0.8090183  50.6552429
   5.8071923  -0.0807297  50.4636383   4.6655521   0.8806099  50.2117081
  27.6221943  66.0038300  57.4606934  28.0918236  65.7526474  58.2560463
  28.1931820  65.7215958  56.7461624   0.3563820  28.7024479  31.1821918
   0.6480054  28.6401539  32.0917549   0.3272531  29.6424370  31.0038548
  53.8225555  37.4721527  15.1913815  54.0801888  38.0331688  15.9229002
  54.6504631  37.1947174  14.7991695  71.1097260  20.7912045  18.7261219
  70.1643448  20.6441517  18.6967926  71.2835617  21.3792744  17.9911480
  54.9839478  27.3816452  37.8630600  55.6499977  28.0178757  37.6026421
  55.2725220  26.5581512  37.4695892  68.0194016   7.3194771  64.1271591
  68.1931076   8.2564850  64.2170105  67.0895309   7.2272878  64.3346710
  11.9542284   7.5835838  25.6989326  11.5447731   7.2224674  26.4851723
  11.8742943   8.5319328  25.8012848  20.0375042  29.4908352  84.2859344
  19.4548264  29.0082970  83.6995239  20.6515865  28.8315697  84.6092072
  53.5238609  53.2989731  71.1273270  53.5361786  53.0694962  70.1981277
  53.4712753  54.2546768  71.1373367  33.5350571  25.1973648  85.3547592
  32.6625328  24.8301640  85.2129974  33.4715424  25.6474075  86.1971741
   9.1224680  69.4257431   0.1973740   9.7183771  70.0220947   0.6506829
   9.6875467  68.7266235  -0.1314847  70.9645233  63.4746094  36.3964882
  71.6174850  64.1676483  36.2986336  71.1612778  63.0782738  37.2452736
  14.6821537  66.4942780  68.6862793  14.5585337  66.8935394  69.5474091
  15.1817513  65.6968231  68.8615112  10.3755713  47.6086082  42.2468681
   9.9650669  48.3344460  42.7168427  11.2014246  47.9689713  41.9238548
  83.1312027   6.7435169  21.6354504  83.6541824   7.5210853  21.8306618
  83.2968140   6.1528177  22.3702145  24.6314621   0.9706671  73.4763489
  24.1709633   0.8773858  74.3102951  25.0574989   0.1241011  73.3419952
  48.6254807  54.6213837  88.5150681  48.2965508  53.8559799  88.9864426
  47.8443413  55.1428719  88.3303909  55.0464287  27.7415867  23.9190083
  55.7460136  27.1013412  24.0490017  54.3322754  27.4324989  24.4763966
  64.5053940  55.9675865  83.3150864  64.1211166  56.3471642  82.5248413
  63.8337479  56.0830116  83.9872513  45.6205559  34.7335320   6.7316008
  46.2453995  34.0657234   7.0141439  44.8507423  34.5893784   7.2819090
  69.7575989  57.4800873  40.1830673  70.4500275  57.4012413  39.5268974
  70.0010757  58.2501297  40.6968613  29.1407452  31.6122456  20.4370499
  29.3800392  31.3352299  21.3214874  29.8639870  32.1737595  20.1580238
  38.1047211  33.4072266  55.7160950  38.8713570  33.9790955  55.6777840
  38.0323944  33.0441551  54.8333855   2.3942783  67.8748932   4.9202561
   1.7249242  68.4593811   5.2760201   2.1707213  67.0129318   5.2713599
  82.2278824  53.4784126  53.2578697  81.7483368  54.2273064  52.9037018
  83.0212555  53.4281616  52.7247047  41.0965996  70.9400635  12.3694973
  41.2888565  71.5749664  13.0595522  40.1682053  70.7365952  12.4831285
  74.4918365  46.1187210   7.2510457  75.2680817  45.5601158   7.2914953
  74.5832138  46.7102089   7.9980574  40.0289803  59.3773346   9.3652210
  40.3276520  59.1016922   8.4985905  39.3683357  60.0472107   9.1890221
  54.6507187  18.3957291  26.8278561  55.1707840  18.9589081  27.4010849
  53.8913078  18.1514626  27.3568764  55.9923477  58.2511711  86.8919220
  55.2645340  58.5953217  87.4096909  56.7578125  58.7333679  87.2046280
  66.8918915  56.7616425  85.5931549  66.6444321  56.1013603  84.9458313
  67.6060486  57.2466202  85.1796188  64.2981186  54.8512459  58.4556618
  64.0559006  55.7717323  58.5569725  63.4669342  54.3785896  58.4998894
  68.5560989  61.3709984  42.5611000  69.0041733  61.1025887  41.7589645
  69.0574570  62.1234818  42.8751717   4.1784277  55.7911911   2.4891284
   4.2293291  56.7470055   2.4968305   5.0040278  55.5105476   2.0943441
  57.9377975  70.3516006  65.4464264  57.5013924  70.3330688  66.2981567
  57.7446098  69.4975891  65.0596848  47.0052109   0.7731520  44.3120995
  47.5732536   0.1886712  44.8140335  46.1925812   0.2797833  44.2005005
  75.2870560   1.0561496  14.1288681  76.1912766   1.1914412  14.4122648
  74.9739151   1.9315369  13.9011154  36.8196602   4.7685142  40.8555794
  37.4023972   5.4232903  41.2401810  37.3088226   4.4211273  40.1097374
  80.0005875  25.2420712  68.5504456  80.9042511  24.9721718  68.7140656
  79.9600830  26.1457081  68.8635483  50.0407333  13.6756907  23.8547535
  50.8942299  13.4241247  24.2075825  50.2052269  14.4981003  23.3934345
  85.2021103  10.4144821  32.4902534  85.8575974  10.9464569  32.0390663
  84.3885956  10.9111176  32.4020653  49.6489944   6.3970304  76.2706604
  50.3118896   5.7767835  76.5741425  50.0820427   7.2496729  76.3119354
   1.1413164  68.1253128  81.5042267   1.7599511  68.6926804  81.0442123
   0.2796968  68.4671402  81.2654877  23.0351086  58.7660255   0.5160253
  22.7648335  58.1197586   1.1683486  22.2273521  59.2240143   0.2836334
  53.4550323  14.6317987  27.6134701  53.4806061  15.4073868  27.0530777
  52.6510925  14.7311621  28.1234112  54.3744774  -0.0308992  39.5983429
  54.3135300  -0.1571487  38.6514664  54.8643112   0.7851488  39.7001305
  83.9999466  33.4680557  44.7552605  84.1522980  34.3959618  44.5763474
  84.8718948  33.0737381  44.7340927  38.7666359  65.6386490  58.7594948
  39.6137924  66.0653000  58.8880386  38.7127800  64.9953156  59.4662170
  83.3863525  33.5537186   0.6877201  83.3199844  34.1933441   1.3967390
  83.1860428  34.0524826  -0.1043286  69.3984833  32.3890343  41.9071655
  69.8430862  32.8287735  42.6318665  70.0054169  32.4670715  41.1711121
  56.6018295   4.4787173   7.8603263  56.4810524   4.3147531   8.7956123
  56.8987312   3.6403065   7.5065613  25.8847656  45.9832649  52.1165619
  25.0393295  45.8560448  51.6861153  25.6674843  46.3880768  52.9562912
   5.1369238  28.1723576  63.3985176   5.1287446  27.2564754  63.6765938
   4.2287464  28.4595413  63.4932327  49.5106888  23.1857605  79.2319489
  48.7080078  22.9947128  79.7171707  50.2084465  22.8007011  79.7621384
  62.1788521  48.1830521  45.9113617  61.5977859  48.9110184  45.6907768
  62.1967049  48.1723480  46.8683319  28.4524403  65.1532974  25.6902657
  28.2413025  64.3879700  25.1555462  27.9758530  65.0127258  26.5083942
  53.7234192  67.6158905  47.6274414  53.2777672  68.3761215  48.0011749
  53.5884018  66.9193192  48.2699356  66.5920868  63.3722191  70.8704834
  67.0027313  64.2362442  70.9030914  66.5736618  63.0812302  71.7821884
  18.0547085  46.6748352   6.4477878  17.2543602  47.0167198   6.8462734
  18.6247444  47.4389648   6.3617673  79.3598938  37.7876968  77.5166168
  79.0263367  36.8919678  77.5680008  80.1590958  37.7160950  76.9947205
  42.7755547  66.0206070   8.1219130  43.6299248  66.2512360   7.7570944
  42.8516235  66.2205658   9.0548973  25.0923176  50.9795189   4.8419671
  24.5692978  51.4078026   5.5196490  25.0415707  50.0473862   5.0535955
  30.7557259  30.9021740  14.8724823  29.8455467  30.8582115  14.5794420
  31.2649078  30.6069927  14.1176090  67.4125748  59.4608383  13.2252321
  68.3351135  59.2938652  13.4182959  67.0570602  59.8130951  14.0411730
   3.1452680  24.1621284  26.7516689   2.8093755  24.7588024  27.4205399
   3.9020414  23.7437630  27.1621532  62.7807770  59.8505745  52.9553070
  62.4262123  59.6269913  52.0947685  62.0498009  59.7147675  53.5581856
   8.2079010  49.4502640  41.2046013   8.6247864  49.9247818  41.9238205
   8.7398863  49.6622658  40.4376068   0.7060151  62.8406830  13.0024738
   0.6996400  63.7978439  13.0085058   1.5788294  62.6089745  12.6850815
  34.1058998  35.6477356  83.7592850  34.5546303  35.5584297  82.9185181
  34.8020363  35.8603401  84.3809204  60.3902740  21.8118286   4.7826791
  60.8688736  22.5543346   5.1512694  59.4940834  22.1319046   4.6795783
  37.7674332  27.8594494   3.1114030  37.2483559  27.6207123   2.3434219
  38.4049759  27.1508923   3.1992762  15.3175774  30.1001797  88.6985397
  15.3587227  29.2995396  88.1755524  15.3941231  30.8082275  88.0589752
  64.0338821   6.6001101  58.7966576  64.6895370   5.9692187  58.4994698
  64.5430145   7.3609848  59.0760994   8.9784851  49.0759430  66.4698486
   8.6230230  48.4627457  65.8265228   8.8403921  48.6449661  67.3133087
  14.9885740  43.8821869  36.6541138  15.0872374  43.8147545  35.7044029
  14.0602903  44.0753098  36.7853661   4.5285282  15.8981199  66.0270844
   4.5339646  14.9419765  65.9824524   4.2245216  16.1764927  65.1631851
  17.0418568  43.6869850  10.4353456  16.5897617  43.7173195   9.5921841
  17.9074955  43.3335762  10.2303886  49.8057938  64.3433151  38.3791504
  50.3121033  65.1282349  38.5883904  48.9046555  64.6549301  38.2950363
  73.0305634  54.2761383  51.2942810  73.1182556  55.1005478  51.7727013
  72.2845001  54.4158363  50.7110977  68.7788696  63.0532532  59.0847282
  69.3423920  63.8095360  59.2481613  68.1795349  63.3451271  58.3978271
  73.3178558  65.3460846  52.1120834  73.9443436  65.1592560  51.4129143
  73.7495880  66.0102921  52.6493568  44.6946716  54.3641853  79.3510742
  44.6392059  55.0750198  79.9897232  44.2933044  53.6149063  79.7912140
  39.9382286  52.8567657   6.8623276  39.5673180  52.8743286   7.7445683
  39.9796867  53.7768288   6.6015768  73.1049805  52.8463707  54.4271355
  72.3572845  53.3179932  54.7942238  72.7440948  52.0045280  54.1491127
  28.4871483  59.3578339  84.1150055  27.9693623  58.6052017  83.8292160
  28.5097313  59.9363594  83.3527527  60.3544655  36.3989639  25.4331226
  59.6869888  37.0470657  25.6582298  60.3329773  35.7719841  26.1560822
  18.1802197  68.8214645  28.5286884  18.1465378  69.2240601  29.3964500
  18.2274075  69.5612411  27.9231014  67.9718552  62.5924835  22.0039597
  68.5222397  62.1760941  21.3406925  68.4972153  62.5637779  22.8035851
  60.8596497  66.2668228  59.5769196  61.0731277  65.3568192  59.3706245
  61.4401550  66.7819443  59.0166588  23.5548210   0.6733481  48.8825951
  23.0615158  -0.0734040  48.5431213  24.4516220   0.3495440  48.9670372
  59.4213791  42.6272850  18.7856827  59.7192383  43.0932884  19.5669327
  59.8445282  43.0838661  18.0585575   8.6337805  59.6059303  12.7799416
   7.8509355  60.1240883  12.5931339   8.8606768  59.2039604  11.9413891
  25.2303638  24.0726280   3.0255218  24.9818420  23.5620499   2.2549515
  26.1815262  23.9791183   3.0782368  76.5600891   0.8563887  67.0381927
  77.0703583   0.0769207  67.2579346  77.0897522   1.5871469  67.3570633
  83.3680344  18.2256584  33.0832100  82.5747299  18.1738529  33.6163330
  84.0443115  18.5288754  33.6889648  79.2055054  54.4787750  84.9899521
  79.9722061  54.9095078  84.6119690  79.4820480  54.2276535  85.8712540
  37.2723083  22.2970791  69.3439865  37.9352684  22.8725643  69.7254715
  37.0411453  21.6957188  70.0519104  54.7370110  52.8550682  37.4320221
  53.9330711  52.3674088  37.2528572  55.4410515  52.2537842  37.1890907
  85.3498306   9.5028381   8.6029854  86.2181091   9.1032667   8.6545382
  85.4846420  10.3043213   8.0973339  79.3901825  18.9797535  69.3158264
  80.1476288  18.9485283  68.7314148  78.7405396  18.4156933  68.8962631
   7.6613059  40.0587997  43.1070290   7.7826147  39.1640549  42.7893066
   6.9664116  39.9883957  43.7615509  65.9101486  22.0901356  44.7607384
  66.4190750  22.5825596  44.1167297  66.1575089  21.1771488  44.6141129
  70.4789810   6.8646441   5.3102808  71.1893997   6.2233615   5.3274670
  69.8835983   6.5444212   4.6326284  32.0263863  53.1927261  29.0404835
  32.8314400  53.3586006  29.5309963  31.4693336  53.9471512  29.2322311
  80.5723953  34.1889000  32.1046295  80.1946487  33.7425003  32.8624344
  81.0032043  33.4936905  31.6073189   1.0826018  58.1434669   9.0882311
   1.5288094  58.7531395   8.5004997   0.9323562  57.3630714   8.5547123
  54.9633141  58.6601067  70.0626984  54.0245781  58.8442841  70.0297089
  55.3562813  59.4744873  70.3767014  20.9803162  25.5030670  82.8006897
  21.5173531  25.2368946  82.0543823  20.0847569  25.5050087  82.4627533
  69.1859589  39.0065994  53.3301506  69.3459091  38.7591820  54.2408791
  68.3395767  38.6120644  53.1198845   7.2402978  30.2731571   5.7140656
   8.1631289  30.0354595   5.6239839   7.1848702  30.6981030   6.5699754
  30.5535774  47.5330048  75.9521790  31.1697807  48.2511482  75.8079681
  30.9463654  47.0183067  76.6571884  52.8863335   8.4171858  88.5957947
  52.8521919   9.2230406  88.0803680  52.0168724   8.3480644  88.9901199
  36.8790054  28.6540966  47.3057709  36.6796646  28.5566673  46.3746414
  36.3836708  29.4268970  47.5771675  51.9426422  70.0337753  36.7401619
  51.4847565  70.1640701  37.5705833  51.3925514  69.4167252  36.2575874
   3.4826021  20.9330158  86.7115707   3.8199961  21.5304203  87.3790283
   3.8965156  20.0931835  86.9105453  78.2289581  14.5320168  76.6341782
  79.0158386  14.0080452  76.4841537  78.2509155  15.1990137  75.9479828
  22.1678677  14.5595531  75.8053589  21.3618298  14.1456032  75.4968414
  22.0094681  14.7297926  76.7338867  55.9067459  27.7546597  78.5851822
  55.8437767  27.5015984  77.6641922  56.7313271  27.3706589  78.8832474
  26.6103268  47.6383896  48.5700607  26.9480858  48.0768814  49.3510056
  25.8629551  47.1300697  48.8851471  54.8919487   6.8653507  45.1079674
  55.5317879   6.3434057  44.6238098  54.2728043   6.2233295  45.4553909
  49.4567070  59.9137192  17.9103184  48.8091354  59.2191734  17.7899418
  49.1159325  60.4356270  18.6367607  19.3103390  65.1346512   6.0416837
  19.2008171  64.4128113   5.4226618  19.0127678  64.7792206   6.8791528
  65.8895416  47.0329971  21.3242435  66.4911652  47.2724152  22.0292034
  65.0478287  46.9036331  21.7612934  80.2599487  59.3918915  20.7504749
  79.6389465  59.7456512  20.1137371  80.9540024  60.0493011  20.7988777
  65.1593094  68.3164291  31.1163006  64.2815399  68.5554810  31.4139881
  65.3936386  67.5557404  31.6479683  55.7792091  14.3320904  23.5935993
  55.2147789  14.8519888  24.1657524  56.0810280  14.9507608  22.9284801
  11.9143915   3.5232754  10.9244747  12.3142519   4.0804429  11.5922384
  11.0447855   3.8993325  10.7880993  18.0657997  38.3883514  79.1816406
  18.3904152  38.2530403  78.2913895  18.8556366  38.4309425  79.7206879
   2.3369112  24.3895416  24.2342453   2.2879295  23.4700241  23.9728661
   2.7564850  24.3720093  25.0944099  13.1986923  62.4834023  21.6960487
  13.2626143  61.8082962  22.3716049  12.8215456  63.2387047  22.1471672
   8.5378170  71.3171997  11.6398668   8.0707531  71.7854919  12.3318090
   9.2785006  70.9068451  12.0862207   8.1961355   1.7759691  78.9206238
   9.0255032   1.3056391  79.0053101   7.6722131   1.2334247  78.3312302
  67.3791199  65.0224533   0.2791195  66.6180496  65.3493042  -0.2006379
  68.0003510  65.7505798   0.2675712  62.0505905  60.9228401   2.1163952
  62.7999611  61.4469070   2.3992927  61.3081436  61.2866364   2.5987391
   1.8865584  21.5590534  53.9904594   2.2038994  22.4574299  54.0823555
   1.9523193  21.3765087  53.0531311  51.6025810   5.6355715  34.0991478
  50.8186951   5.6054592  34.6476440  52.3262177   5.4836478  34.7070160
  51.2577553  18.9928665  71.9350052  51.5315590  18.0758839  71.9148865
  50.3360291  18.9620419  72.1913300  10.0361614  28.8146057  77.6258850
   9.3712635  28.4021225  78.1772461  10.6112871  28.0951557  77.3653946
  28.1605797  40.2601089  55.1671524  27.9016876  40.9948463  54.6109467
  28.9236279  39.8844719  54.7279587  13.5617180  12.8815107  12.9750376
  14.0706444  12.4102964  13.6347227  13.4830904  12.2645264  12.2474537
   3.7742231  12.3371687  18.9618759   4.2619462  12.9707069  19.4881706
   4.2530642  12.2942629  18.1341667  13.5084333  62.5972672  71.5766296
  13.7859163  61.8439445  71.0553436  12.6120424  62.7704430  71.2890091
  42.1636314  21.1282196  78.8921585  42.0087852  21.8912868  78.3353958
  41.5914268  20.4499016  78.5334091  75.9715500  66.6637726  48.5843201
  76.7306519  66.1203003  48.3730545  75.2314987  66.2077026  48.1836319
  50.0207939  55.7327271  59.7833214  50.5246811  56.2780418  60.3874397
  49.8714790  54.9182777  60.2635422  69.9669037  13.8267422  82.1157608
  70.3333359  12.9643478  82.3113098  69.4392853  13.6899843  81.3289032
  61.9337425  27.9417973  57.3910141  62.8754883  27.8364925  57.2559052
  61.8634987  28.5807648  58.1002502  41.8669930  45.5053787  75.8102722
  41.5569801  45.8117523  76.6624832  42.2470741  44.6451988  75.9887543
  22.4372578  41.3433838  80.5320969  23.0102615  40.9266701  81.1757202
  23.0355721  41.7817230  79.9270248  80.2708130  68.0884247  55.9342461
  79.5885544  67.5120316  55.5899734  80.0192032  68.9623566  55.6356239
  86.4976730   2.8362594  16.9566498  86.6206131   2.2725272  16.1928921
  85.9809723   3.5728352  16.6299839  69.1048203  16.1613083  58.2413559
  69.4924545  17.0157909  58.4306450  68.9054413  15.7928038  59.1019859
  46.3339005  31.6542873  64.7569656  46.9345055  31.5273857  65.4914017
  46.7767487  32.2875481  64.1920776  79.0521317  24.3316250  52.9332924
  78.1176300  24.5379086  52.9135666  79.1754150  23.8573627  53.7555504
  65.8913040  18.6045609  85.1846619  66.6850128  19.0250149  84.8538055
  65.5295410  18.1456413  84.4265366  21.8053284  58.3538475  48.2559052
  21.0454426  58.0749702  47.7449913  21.5851250  59.2378540  48.5496216
  68.9918747  32.3835793  63.9491234  69.0240479  32.6111298  63.0199203
  68.0810623  32.1325226  64.1028366  49.6851044  62.8435516  48.4211273
  48.8333702  62.4130478  48.4949417  49.8643227  62.8603210  47.4810028
  23.2907352  36.0460014  20.5348034  23.4051647  35.2813683  21.0991421
  23.1957054  36.7797928  21.1420498  55.3163643  14.5227900   4.0603766
  55.4534073  15.1980190   3.3959103  55.2676010  13.7053804   3.5646999
   1.1715531  39.5611916  67.9842834   1.0138483  39.2364273  67.0977783
   0.7391657  40.4148636  68.0070801  66.1361542  56.2410927  46.0779076
  66.7562408  56.4900970  45.3925476  65.3838806  55.8874512  45.6033020
  67.1175308   3.3586876  39.2786789  67.8652420   3.6690900  39.7893829
  66.4494095   4.0337310  39.3976669  37.1167145  16.6111221  13.5279522
  37.4656563  17.1261425  12.8004742  37.7164764  16.7845020  14.2535248
  62.8311234  43.6996155  30.3838120  63.3980904  43.2726707  31.0260715
  63.0516548  44.6287231  30.4497986  66.3965530   0.0638964  67.6463623
  65.9332123   0.7352061  67.1454697  65.8704910  -0.7273162  67.5302811
  73.7300949  50.5285645  33.7357635  72.9071503  50.8558197  34.0989456
  73.7197342  50.8153687  32.8226013  19.6597900  20.0456600  10.1417265
  19.9563255  20.9238338   9.9027548  20.3806553  19.4710522   9.8840246
  55.7347641  44.4115372  29.1807003  56.5771713  44.5046997  28.7358418
  55.8265877  44.9317970  29.9789028  33.1061897  44.0323715  35.7279892
  33.6479416  43.5889053  36.3807297  33.7322617  44.3764267  35.0908890
  25.7115765  32.5599365   9.6284218  26.0761833  33.4262199   9.8096523
  26.3587112  32.1417313   9.0604839   3.1034498  21.4265251  58.1268692
   3.1262314  21.6638832  59.0538940   3.7570751  21.9939747  57.7182045
  60.6042252  65.7224808  86.2591553  59.6855087  65.5037689  86.1030731
  60.6459465  66.6726303  86.1510162  63.6438942  23.2733288  45.1819687
  64.1068268  23.8474598  45.7921295  64.3024445  22.6355438  44.9067039
  71.9647522  59.3329086  73.8461533  71.5952148  58.9729195  74.6524277
  72.9119339  59.2593765  73.9630966  38.8510246  54.7800713   0.2632218
  38.0181007  54.5631409  -0.1556008  39.4664993  54.1307526  -0.0770804
  23.7698212  63.5465851   2.7521086  23.0998230  64.2078629   2.9254420
  24.4863186  64.0327835   2.3440962  22.5168209  39.1846199  68.9521103
  21.6659622  39.4469566  69.3034668  23.1245613  39.3044701  69.6818466
  30.3802547  60.6324844  50.4444618  30.4236431  60.1398926  49.6248856
  29.5702896  60.3359756  50.8595200  13.2538271  10.2737513  61.9380646
  12.9109011  10.5984592  61.1054802  12.4813271   9.9637966  62.4107208
  16.6436996  63.8993301  51.3864098  16.7217388  63.4340439  52.2192688
  15.7018690  63.9350395  51.2193413  81.7463837   9.9712830   7.4860201
  80.8273010  10.0901670   7.7255812  82.0578537   9.2780771   8.0679865
  17.4788742  40.3958054  54.8988037  17.0085335  40.9456978  55.5254021
  17.3308411  39.5015945  55.2065544  27.0485458  62.1513443  48.4131584
  26.1518955  62.2857552  48.1062660  27.4636955  61.6360130  47.7215576
  21.9987698  69.2797089  65.9387589  21.7747402  69.1002884  65.0256042
  22.3037987  70.1870041  65.9367218   0.4101245  70.8663712  31.2989540
   0.5172968  70.5788879  32.2056503  -0.4513646  70.5366058  31.0433731
  17.3240166  54.9926224  78.8588409  18.1051064  54.7885780  79.3731308
  17.6589909  55.1992683  77.9862976  16.2838554  43.2429123   7.9007664
  15.8993025  43.8830605   7.3019681  16.4111328  42.4600182   7.3649387
  20.3366032  37.7193565  86.1119232  21.0194092  38.3552094  85.8981552
  20.1286011  37.8909378  87.0303650  84.5790863  69.0557404  70.1435013
  85.0264893  68.8464279  69.3235931  83.8551407  68.4310837  70.1875534
   0.7573509  71.0456772  16.9168949   0.6555777  70.3574219  17.5742989
   1.5547339  71.5078201  17.1754284  74.4568405  31.0595970  61.5967636
  74.5601807  30.2356949  62.0729332  73.5403214  31.3006630  61.7313042
  25.1573086  51.0381660  14.8711348  24.8698997  51.4157715  15.7024231
  25.1081390  50.0920906  15.0080919  55.7679176  57.5087700  35.0189972
  55.3037987  56.8098679  35.4798241  56.4936790  57.7376747  35.5996056
   0.0280501  56.0986328  49.6579437   0.2137594  56.9912300  49.3663673
   0.5700792  55.5453110  49.0955658   5.2697330  25.3209801  88.3638077
   4.8861279  26.0820446  88.7995377   4.6994529  25.1630592  87.6114273
   7.1821609  55.5076294  67.3495178   6.5542736  55.1602936  67.9830399
   8.0347004  55.2163887  67.6729202  41.2679443  44.9384995  10.5906858
  41.1654968  44.5451126   9.7240915  41.0639229  44.2299080  11.2010183
   9.9425793   9.7721243  76.2115097  10.8828125   9.7898188  76.3900604
   9.6690722  10.6870699  76.2770920  69.8335571  40.1497078  14.8269129
  68.9813004  40.0699425  14.3985167  70.4437180  39.7186470  14.2284775
  61.0539780  69.5254822  55.8445129  60.3827438  70.1807632  56.0350037
  61.7740479  69.7409058  56.4372368  28.3545170  62.0621796  44.1219254
  28.2325878  61.7088776  45.0031433  28.1749077  61.3232117  43.5406380
  49.6365280  27.0602589  79.7414856  49.8614540  26.3555069  79.1340637
  49.5928268  27.8438911  79.1935425  62.3538513  54.1999092   3.4502738
  62.8096046  54.9670715   3.7966623  63.0261459  53.7201157   2.9664838
  46.9429550  32.9419403  71.5976486  47.8561211  33.0890923  71.3512573
  46.6339645  33.7979851  71.8942108   9.3712311  60.1447220  80.2791061
   9.8697567  60.7438164  79.7234116   9.0258293  59.4882927  79.6741028
  77.5058365  55.9365044   7.2526536  76.7984467  55.4039612   6.8890157
  77.6823273  56.5928192   6.5786142  39.4609070  64.7895279  71.3865662
  40.3610687  64.7801819  71.0612106  39.3481102  65.6661911  71.7539520
  77.5884171  57.8884087  21.3861237  77.3633575  57.9785805  22.3121090
  78.2342148  58.5771103  21.2284336  83.4189224  55.3364334  72.2040787
  83.7337418  56.0858002  72.7096176  83.8781815  54.5848045  72.5787354
  84.5770950  54.6756973  10.2849541  83.7327957  54.7890434  10.7214661
  85.1960831  55.1601791  10.8311815  34.3635445   6.2951488  14.8644094
  33.6782799   5.6356540  14.7562037  33.9589806   7.1113653  14.5705538
  38.4036789  28.5048351  78.3853683  37.9912186  28.4484024  79.2472992
  39.2625160  28.0991154  78.5037994  84.4837189  36.6343994  77.0937347
  84.8764420  35.8030739  77.3600082  85.0963364  36.9941101  76.4522247
  56.4728737   5.7950602  42.8209953  55.9598465   5.0224633  42.5840836
  56.8294640   6.1097450  41.9903030   9.8092537  50.1931419  35.9418221
   9.4624147  49.7091751  35.1923485   9.3578663  51.0366974  35.9118881
  83.6180649  21.4323292  22.8339615  83.8880386  22.0652618  22.1685734
  83.9120636  20.5872402  22.4939289   3.2360272  43.2528534   4.4084420
   2.6958625  44.0143929   4.1974645   3.8836617  43.5836105   5.0308576
  48.2386589  58.6317749  21.4094353  49.0321922  58.0976906  21.4454021
  47.8224144  58.4999504  22.2612514  82.3267059   7.1367383  62.0105019
  83.0042419   7.2495818  62.6771660  82.7583694   7.3695698  61.1884956
  85.3477554   3.1685476  61.2251358  85.3734818   2.7097969  60.3854256
  84.4597931   3.0218885  61.5510788  76.1335983   3.5061200  55.5196152
  75.8484192   4.0447960  56.2576714  75.3204041   3.2201824  55.1034622
  24.2959175  16.3653164  80.5547638  24.3290062  16.8711700  81.3666992
  23.5570030  16.7355232  80.0718689  67.9411163  26.4642658  36.4877815
  68.4863968  26.5206909  35.7031097  68.4650192  26.8779926  37.1737747
  17.4725208  38.5305672  25.4947624  17.1002941  39.0223694  26.2267513
  18.4128990  38.7021828  25.5444527  48.3933525  33.2523499  12.2151937
  48.0225716  33.9301414  12.7803049  48.0942535  33.4836502  11.3358355
  84.5597076   9.9016790  82.2105255  84.3829041   9.0288887  82.5615387
  83.6940460  10.2633829  82.0207138  81.7873306  29.5947437  42.0412674
  81.3168106  29.0328922  42.6570320  81.1502151  30.2647419  41.7934494
  71.3249207  19.6008186  47.6543922  72.0340424  19.5067558  48.2904167
  71.1181183  18.7038574  47.3918533  27.7193241  37.0220757  73.9471359
  26.9253693  36.4930611  73.8696213  28.0665646  37.0648613  73.0561676
  30.4715691  50.1688232  46.3778725  30.6016769  51.0354385  45.9927940
  31.2490482  49.6732521  46.1206436  29.2994690  59.4029999  66.2607880
  28.8507900  59.3141556  67.1016388  28.7074718  58.9946671  65.6290970
  81.4150696  11.1189518  47.6630707  81.6484528  10.2381058  47.3700218
  82.2009583  11.4404421  48.1049423  12.4848022  66.5685043  16.6665077
  11.7856865  66.3364868  17.2777653  12.2507420  67.4430542  16.3556995
  85.6232224  15.5080776  54.7827797  86.1846924  16.2789268  54.7005043
  85.6158676  15.3161068  55.7205048  84.4554672  16.7630768  47.5826111
  84.8499069  17.0110607  46.7464561  83.7644043  16.1440105  47.3471947
  80.2214432   3.5864246  16.4024715  80.1366959   4.4140768  15.9291401
  80.8128281   3.7851479  17.1284256  20.0669594  32.8088608   9.2149410
  19.9870014  31.8590946   9.3031549  20.6482391  33.0677261   9.9300165
  77.1392288  39.7669716   1.4914886  77.2771988  38.9235268   1.9225299
  76.7179031  40.3102341   2.1575069  66.6386566  37.0071220  61.4490280
  67.1887970  37.7612038  61.6610298  66.4786835  37.0842438  60.5084457
   2.5693305   5.9017119  49.2770042   3.3153336   6.1384230  49.8280716
   2.5287287   4.9466391  49.3261871   2.9493651  52.0308037  21.9687004
   3.7136657  51.6781921  22.4244862   2.9524419  52.9638443  22.1823730
  60.7956924  19.8473396  31.3073826  61.1022034  19.7780457  32.2115288
  59.9690666  19.3648281  31.2970657  62.7280769   1.1948487  37.5556335
  62.2751541   0.6552327  36.9076309  63.6214333   1.2720867  37.2206993
  32.5722923  16.1445522  83.5151367  32.0421867  15.9628639  82.7391129
  32.9683266  16.9982338  83.3401642  57.9293976  22.1336880  47.2135353
  58.4561119  22.4653587  46.4863510  58.0757675  21.1877995  47.2034035
   6.6752911  30.5511284  40.6761513   6.7514558  30.8045044  39.7562447
   6.7785988  31.3707390  41.1596794  58.1606483  66.5413513  12.6982126
  57.4383774  66.8533478  13.2433863  58.3728218  65.6779709  13.0528870
  58.8965225  28.6820889  56.4879265  59.5231972  28.2355270  57.0572166
  59.3690987  28.8101063  55.6654205  59.8698349  36.9923782  34.7163048
  60.3137894  36.1682777  34.9163017  59.0729485  36.7295074  34.2557564
  66.4522247  38.1329422  16.5273457  66.4924774  38.9584770  17.0101528
  66.6924820  37.4668388  17.1714077  36.2964516  47.2265015   9.4811440
  35.5311317  47.2614288   8.9073009  36.7452621  46.4183083   9.2329006
  59.7167740  45.5046539   5.8086233  59.9124146  46.0532875   6.5682001
  60.5706978  45.3301277   5.4129119  44.5539436  56.8254623  17.1765804
  44.0090675  56.1813774  17.6287956  45.3437729  56.3424950  16.9333878
  16.3119030  17.4151020  89.0037460  16.5707817  16.5870075  89.4080658
  16.9826756  17.5778542  88.3405685  72.5369568  60.5775070  60.3117638
  73.3128586  60.2477684  60.7650681  72.6157150  60.2344131  59.4216423
  62.1724052   4.0099401  74.6465073  61.9608994   3.0952601  74.4598007
  62.0611839   4.4575129  73.8077316  67.2628708  31.0965080  36.7244644
  66.5399628  30.6534195  36.2802696  67.3813019  30.6055527  37.5375900
  60.4021492  56.6470642  49.1030426  61.3496056  56.6563683  48.9671249
  60.1844330  55.7209663  49.2087440  26.9684753  70.6471634  74.0124359
  27.7993069  70.2771301  74.3108063  26.3423481  70.4134369  74.6976852
  76.2652130  40.5997963  73.2966690  77.1126099  41.0436668  73.2630844
  75.6257706  41.2910728  73.1249542  86.8324356  53.1670456   8.5186911
  86.1627960  53.3015976   9.1892958  87.0784683  52.2462540   8.6072464
  44.6814575  20.3410130  79.3064651  43.8464661  20.8028259  79.3823013
  44.4774551  19.4366245  79.5445709  15.1826401   0.9478745  67.4266129
  14.7144260   1.1541967  66.6176453  14.4960032   0.6900367  68.0416641
  60.3965454  15.2281265  22.4689903  60.3074989  15.9750462  21.8770332
  60.0802116  15.5518990  23.3123989  43.7474403  40.1426048   7.3598638
  44.3291283  39.9581032   6.6224146  43.0347710  40.6564789   6.9800401
  46.0553513  40.1866989  31.8866825  45.9390831  40.4459496  32.8007431
  45.1996536  40.3362198  31.4846134  65.2379379  64.2064438  29.0581055
  65.1134186  63.7572289  29.8941269  66.1706009  64.1048813  28.8682194
  51.7895622  11.4602385  50.3081894  51.0285492  11.2164860  49.7812424
  52.3260117  10.6679411  50.3350220  55.8884964  15.7232399  21.3019142
  56.1493568  16.5848675  20.9766712  55.5631828  15.2634954  20.5279388
  49.5783539  58.9847565  32.5930748  49.2731056  58.2715721  32.0323448
  50.4123878  59.2526054  32.2072334  20.5420513  65.6206055  52.6132355
  20.7744389  66.2847443  53.2621918  20.0293999  64.9769516  53.1022453
  44.8709984  45.9100151  42.0786972  45.6757927  45.3925171  42.0515671
  44.2484741  45.4127083  41.5482445  32.1553383  21.7533207  83.9925995
  33.0366211  22.0652523  83.7870026  31.7486229  22.4792519  84.4657135
  38.5504532   3.2620852  59.4312859  37.7980652   3.4349859  58.8653831
  38.3206291   3.6694455  60.2664337  20.2770233  -0.1510516   1.2097565
  20.7422714   0.5049745   0.6907126  19.4786777  -0.3280068   0.7121986
  46.9564247  35.3976059  75.6536179  47.7619171  35.0506401  75.2701797
  46.4745255  35.7607727  74.9105759  14.4173717  47.5332146   9.3436890
  14.8744135  46.9870987   9.9832993  13.5283298  47.1793785   9.3184147
  38.1099052  32.1293144  58.5419197  37.7501488  33.0074501  58.6671677
  37.7916069  31.8607616  57.6800652  15.7567358  45.4790955  56.3052711
  16.6639614  45.2775612  56.5345268  15.8132439  45.8893967  55.4423180
   4.3005495  54.5018120  75.6722794   3.6140931  53.8435936  75.5638428
   5.0767326  53.9997215  75.9206238  11.4932995  66.7739487   5.4386621
  12.2670021  66.2432404   5.6283026  10.7544832  66.2142105   5.6775775
  60.8758965  46.2164574  64.8760300  60.3373909  46.6854477  64.2386169
  61.7642136  46.2681465  64.5232544  76.2242889  44.4386711  27.4633427
  76.1327820  44.9400558  26.6531143  76.9845886  43.8769569  27.3128338
  78.3535385  57.8064651  59.5747375  78.4065933  57.3310471  60.4038315
  78.0991592  57.1425819  58.9338150  53.5281143  20.8203926  24.6894264
  53.7430763  21.6880283  24.3470364  54.2723122  20.2729549  24.4389992
  31.5193863  12.0764847  15.9307928  30.8521671  11.7660942  16.5429287
  32.1275978  12.5781631  16.4735909  13.9489174  29.2429104  65.4149704
  13.8307371  28.4127865  64.9532776  14.5955057  29.7175617  64.8926086
  28.0256653  39.8669281  75.3696442  28.4228287  40.1008720  74.5307388
  27.9779072  38.9110527  75.3537598  18.0289650  41.2388687  61.9514999
  18.1674709  40.3113213  62.1430702  18.5556908  41.4031448  61.1693230
  60.8446770  66.2865829  44.9883652  60.2353554  65.5488815  45.0159035
  60.3001175  67.0384369  44.7551308  34.0732803  36.2502060  22.5362988
  34.0903168  36.4603119  23.4699993  34.7708817  36.7851906  22.1576462
  25.4870853  59.2668877  78.9597244  25.4075489  59.4987297  79.8850098
  26.2412148  58.6784515  78.9242096  78.1689835   8.0410728  30.8560696
  77.4601746   8.0770082  30.2137852  78.9686813   8.0336838  30.3300781
  55.7977867  23.6834850  28.1002483  55.2835121  24.0951157  27.4057579
  55.6361465  24.2263908  28.8718414  43.0708542  63.5934639   0.6959236
  43.4633598  62.8776054   0.1962092  42.7676468  63.1823845   1.5054365
  17.7665882   5.2903562  70.3501587  18.0565243   5.3311110  69.4388351
  17.2545815   6.0894823  70.4745712  81.4963379  28.6855717  13.0465822
  81.7034836  28.4341965  12.1465073  81.4058914  27.8543892  13.5126152
  37.2886391  14.3489141  85.1210327  36.6086159  14.9466982  84.8104630
  36.8222275  13.7221537  85.6740799  10.2593231  34.1262856  67.7762299
   9.4491673  34.4890938  68.1343536  10.0196762  33.2464218  67.4852982
  52.5962372  67.9241867  40.4139786  52.1648102  67.7677612  41.2540016
  52.0462837  68.5764999  39.9800797   3.7504709  69.5718994  37.6699524
   3.4710507  69.5531616  36.7546387   4.3334541  70.3289413  37.7269592
  19.2755032   9.1601162   1.3250927  19.4870300   9.0225906   2.2484424
  20.1238613   9.2934303   0.9023083   4.2673697  70.4380798  57.2538795
   4.6846390  71.2818985  57.0804253   4.5432272  69.8804398  56.5264359
  82.4646530  46.8407669  88.9003067  82.1909485  47.6849136  89.2591019
  81.7052078  46.5332870  88.4054108  20.9578362  57.6289635  25.6889801
  20.9621887  56.7484550  25.3135853  20.1666241  58.0359192  25.3359909
  81.5001831  31.4080505  14.5001707  82.4520721  31.3857441  14.5983582
  81.3089371  30.7198219  13.8629923  86.3524780  14.5805082  38.2048531
  86.4010086  14.2338495  39.0957565  86.1659241  13.8158407  37.6601410
  28.9682255  17.2473183  12.0337877  28.4831600  17.7313061  11.3654327
  29.6546440  17.8516827  12.3162832  67.0472183  27.6782951  83.1316452
  67.7635040  28.1383953  82.6940613  67.4825287  27.0781403  83.7370834
  43.2164841  58.9145775   1.1897213  42.6588058  58.7220650   1.9434880
  43.7282906  58.1161194   1.0603032  59.0446815  45.3028641  24.6896839
  58.8021774  44.8769684  25.5118980  58.4794350  44.8956909  24.0332260
  62.4207840  31.0608654  38.0705338  61.8279228  30.3093967  38.0769463
  63.0962334  30.8385296  38.7112885  43.3725739  65.8753433  15.4757214
  43.7585793  66.4227295  16.1595345  43.8390083  66.1243668  14.6778135
  59.8014946  59.5309143  56.7173538  59.2130623  58.7773438  56.6713676
  59.6912422  59.9726181  55.8753510  24.3517914  33.7447777  69.5106583
  24.6102829  34.3529701  68.8181839  25.1061916  33.1647301  69.6138916
  78.6669159  65.5193405  41.7490425  78.0095215  65.5202866  42.4447899
  78.6513672  64.6258392  41.4060516  80.8372879  31.6997566  36.8004227
  80.2312317  32.4396324  36.8392448  81.7029037  32.1025467  36.7318764
  72.8540726  52.5014954  22.1861725  72.0701523  52.8072701  22.6424656
  73.4708786  52.2881813  22.8863697  57.5645294  39.2989273   8.3039846
  56.8666000  39.9267197   8.1168890  57.3046913  38.5053978   7.8359776
   6.2763109  14.0574703  52.4238129   7.0356002  14.2773771  51.8840408
   5.5626621  14.5796680  52.0574188  11.1144838  45.7439156  32.0492210
  11.7970514  46.1142311  32.6088638  11.0459957  46.3570633  31.3173790
  24.8856850  53.1337280  47.4533844  25.5452862  53.1789246  46.7612038
  25.1886578  52.4301834  48.0273705  75.4420090  52.0172539  85.3676453
  75.1016693  51.1836014  85.6923447  74.6628647  52.5099907  85.1100006
  28.5445004  56.2736664  14.1543932  29.0765858  57.0010529  14.4769220
  28.7011642  56.2625580  13.2101669   5.4932032  34.6933136  51.7901306
   4.8967214  34.4761505  52.5065689   5.7523375  35.5989075  51.9603767
   3.1424198  56.2101364   8.7346325   3.3815660  55.5848274   8.0505037
   2.1893315  56.2765160   8.6759081  69.6524887  14.0283728  11.2957792
  69.2232971  14.0431805  12.1512375  69.4345627  14.8740072  10.9038086
  59.7670364  11.4633608  44.6124229  59.0343132  11.8640146  44.1446381
  60.1495628  12.1806936  45.1177330  26.6493320  61.0810394  72.7620163
  25.9935989  61.6092758  72.3068161  26.3194084  60.1845932  72.7006531
  33.9840164   5.3210826  11.0141602  34.8639221   5.6103311  11.2556801
  33.6274567   6.0440860  10.4980545  79.1262054  67.0474548  60.8096466
  79.8155899  66.7310638  61.3934898  79.5804977  67.6180954  60.1897888
  68.6771164  17.2662525  52.4701500  68.8932648  16.9883804  53.3602600
  69.4004898  17.8391953  52.2157860  65.6535492  69.6614227  75.1185074
  65.4967194  70.5048523  75.5430908  66.3621216  69.8335190  74.4983978
  48.1969070  14.1436138  50.1149979  48.3478661  13.6448002  50.9178848
  47.8692436  13.4973354  49.4895439  24.6336937   9.9668531  10.7717848
  25.0243645   9.3944149  11.4320307  24.2577095  10.6898756  11.2738857
  13.1050482  19.9243736  -0.3160370  13.3680677  19.4370403   0.4647062
  12.2240334  20.2404060  -0.1156169  84.9245758  30.4924755  52.6897469
  85.1764908  29.8647041  52.0124931  85.3810806  30.1927605  53.4758835
  49.4679184  30.0928288  15.4830017  49.8377266  29.9508057  14.6116209
  48.6188583  30.5031872  15.3188839  86.3957214  46.4882317  53.3784866
  85.6274567  47.0377617  53.2234917  86.1524734  45.9417267  54.1257439
  50.3416901  15.2172689  68.6890335  50.5139008  15.8694782  68.0099182
  49.6725693  14.6474915  68.3097458  38.6040993  32.5858421  83.0623474
  39.5138130  32.7674294  82.8263779  38.3898277  33.2491722  83.7183228
  24.8755035  51.7748032  18.8900833  24.2276077  52.2305794  18.3527470
  25.7198067  52.0651588  18.5450020  84.9841843   0.5508437  71.9966354
  85.8603973   0.9179997  72.1135941  84.9748383   0.2367376  71.0924911
  50.5737267  13.3433867  41.2537003  49.8552017  13.5758781  40.6655655
  51.1084442  14.1357431  41.3034668  58.1548195  58.8440704  78.4414062
  57.6120033  59.2757263  79.1011429  58.6043282  59.5613022  77.9944687
  17.1088181  66.8317871   3.9108291  17.2658691  67.7327576   3.6283145
  17.9268227  66.3739929   3.7171075  81.5537949  31.2138500  78.3631973
  80.7903748  31.3063984  77.7932281  82.1206284  31.9475803  78.1253510
  12.8730040  21.0410843  70.6073151  13.4776316  20.5993633  71.2035828
  12.0705404  21.1504307  71.1175385  20.6235104  48.4955368   1.5551670
  19.8182907  47.9836960   1.4785320  20.7682152  48.8473167   0.6767918
  81.7918167  68.3478165  43.0029068  80.9906082  68.4837265  43.5086899
  82.1033936  69.2311707  42.8058205   6.3236456  34.4645157   1.6190408
   6.8229537  34.2072411   2.3941102   6.5134487  35.3963852   1.5102975
   0.2705829  63.7971840   5.2785602  -0.1103553  63.2333145   5.9517384
  -0.1530359  64.6455841   5.4089189  17.4628277  57.4337196  23.3960648
  17.1708088  58.3443108  23.4382591  17.2064266  57.1402321  22.5217896
  49.0856705  50.6821709  36.6232414  49.6088905  50.2553062  37.3016663
  49.5899200  50.5591125  35.8189888  33.1087723  31.7167072  16.2166843
  33.1236916  32.6569557  16.3954086  32.1936378  31.5266533  16.0101738
   6.1200790  68.2925720  36.7167473   6.4169564  68.5453186  35.8425522
   5.1653552  68.2759705  36.6499748  60.3506851  31.4355183  14.8527126
  61.2205620  31.3141975  14.4721546  59.7933731  31.6633911  14.1085968
  14.9565830   7.8522706  59.0621033  15.1498756   8.6686516  58.6012421
  15.7893867   7.3805223  59.0731888  73.8104095  22.1995277  56.6808357
  74.5165329  22.4358807  57.2823029  73.5873337  23.0190945  56.2394981
   4.1731267  67.4418182   7.6521435   3.5388212  66.8309174   7.2770581
   4.6312342  67.8063889   6.8948765  68.3976974  34.5637360  89.1707535
  69.1750717  35.1176109  89.0989761  67.6728058  35.1340523  88.9148331
  75.8955994  13.3668995  21.5856361  76.4627914  13.7617741  22.2479057
  75.1589813  13.0109510  22.0825596   3.6555302  54.4216728   6.7294726
   4.1561742  53.6688385   7.0438437   2.9782338  54.0420303   6.1696754
  29.0778255   1.5204301  73.5030670  29.9070415   1.4550308  73.9767303
  28.5966625   0.7314315  73.7524643  46.0625610  51.6324043  19.0856972
  46.9683533  51.4067421  18.8739223  45.6618881  50.8011971  19.3402328
  23.3688126  21.7794704  76.4434967  23.5488834  22.0902443  77.3307571
  24.1719666  21.3307323  76.1792831  18.9258614  30.6079197  73.7583923
  18.3223515  30.7506714  74.4875183  19.3950386  29.8061733  73.9892731
  63.3129692  37.0296516   2.6011624  64.2367706  37.0320091   2.8517983
  62.8906479  36.4648285   3.2483509   3.2691178  65.3731537  33.9301453
   3.6731617  64.6081009  33.5206642   3.9723499  66.0210953  33.9733315
  77.1504288  49.6717186  81.4549255  77.1400833  50.1302948  82.2950592
  77.3572540  48.7645721  81.6797333  68.2200241  37.7402687  84.0495682
  67.8286438  37.0307770  83.5399857  68.9450073  37.3268242  84.5182877
   3.3577623  31.1244583  14.0569057   2.7035663  30.7377987  13.4748802
   4.1228781  31.2631283  13.4986944  71.6908035  26.4873772  15.8893042
  71.7366333  26.4525471  14.9338369  72.2860870  25.7977047  16.1829433
  59.7179222   0.8262624  16.0070457  59.4140549  -0.0381468  16.2839813
  60.6692467   0.7887973  16.1060982  52.8841438  46.0698967   9.4523172
  52.1382141  45.4782257   9.3535900  53.4972878  45.5912857  10.0101843
   6.4173574  23.4134312  86.5671616   7.0301366  22.9214764  87.1137085
   6.1355004  24.1423664  87.1198273  70.1062546  16.4029160  83.1084518
  69.9265137  15.5381126  82.7396164  70.3816833  16.2270546  84.0081406
  50.6285744  34.0360909  65.9199524  49.9545288  34.4064903  65.3501282
  50.7759438  33.1552887  65.5754242   8.2532959   1.1482631  58.3938560
   7.9967213   0.2287847  58.3234215   8.1541185   1.4932491  57.5065117
  80.5926666   8.2491693  32.5045471  80.9281540   8.9516802  31.9476280
  79.7008820   8.0997429  32.1905098  72.5828781  27.1566219  46.0437927
  71.9524460  26.4778423  45.8028793  72.2180939  27.9627628  45.6786880
  55.2623863  39.6728935  16.5691738  55.3852692  40.5721169  16.2649937
  56.1406403  39.2925568  16.5533028  55.2501106  17.5933437  50.4082794
  54.8752632  18.4228935  50.7042007  54.5294533  16.9670467  50.4763718
  55.7768173  31.9386292  50.9608154  55.1907463  31.7675476  51.6980247
  55.5144043  32.8020287  50.6415787  83.9220886  56.6081810  85.7871933
  83.5899124  56.1748199  86.5733795  84.7343140  57.0281754  86.0702667
  71.8394318  16.8820362  76.1190414  70.9910202  16.9959793  75.6907425
  72.1400375  16.0205612  75.8296814  48.6794853  26.8741970  83.6590118
  49.2215233  27.2955952  82.9920349  48.7668991  27.4362392  84.4288788
   2.0432811  34.1431923  10.5327082   2.0731082  34.9629440  10.0394077
   2.5178084  34.3332520  11.3419876   2.6572835  38.8274078   1.5545851
   2.8347907  38.8625908   0.6146463   3.2580154  39.4676743   1.9359108
  74.4358673  22.6574688  70.8923798  74.9875107  22.2613754  70.2178192
  74.2062531  23.5171776  70.5396652  12.5554419  25.4798775   2.5840838
  12.5847883  25.1742687   1.6774554  12.4375868  24.6833363   3.1016395
  18.3594875  35.3733482  18.3294811  17.4936104  35.7812996  18.3373299
  18.2896957  34.6512184  18.9538918  64.7719193  41.4413567   4.4622855
  65.5679474  41.1889992   3.9944303  64.2874146  40.6228218   4.5694780
   5.3670230  41.6009407  41.1645164   5.9818139  41.9361076  41.8171463
   5.0687227  42.3795357  40.6943703  71.1727829  42.3517952  78.1365204
  72.0211334  42.5701180  77.7506943  71.0216293  41.4412079  77.8831253
  59.5410194  19.1032658  51.1891479  58.8071556  19.1890430  50.5806084
  59.3778076  19.7696419  51.8566360  46.4682922   7.5168633  76.3423004
  45.9694099   7.7296433  77.1310196  46.6761513   6.5870109  76.4339600
  78.0617828  40.7920151  33.7225838  77.3514786  41.2379646  33.2612457
  78.1372452  41.2589874  34.5547333  66.4585037  63.6397095  57.1280975
  66.3812332  63.1598206  56.3034935  66.5334015  64.5570602  56.8652382
  74.0121002  62.3395615  39.2403526  73.7866974  61.9290466  38.4055443
  74.0938950  61.6082611  39.8525124   0.4896384  29.9153347   5.6253095
  -0.2984435  29.6403866   5.1567345   1.2105349  29.6743526   5.0435300
  58.6869850   5.4049873   4.1256046  59.1879692   4.9517608   3.4474957
  58.7916031   4.8597898   4.9053779  53.7892570  55.8252525  79.2371445
  52.8892555  55.8935547  78.9184570  54.1071625  54.9956284  78.8809357
  78.6187744  37.4135780  73.2565536  78.4303284  37.0578537  74.1249924
  79.4364319  36.9894295  72.9962540  83.4607086  53.7656860  47.9870872
  82.7118530  54.1050339  47.4968948  84.2251740  54.1106033  47.5257149
  57.0305443  19.2774544  55.5118141  56.7082291  18.4095669  55.7549438
  56.9252586  19.8029022  56.3049393  25.3436584  50.7181396  32.6438255
  26.2292442  50.6304665  32.2912903  24.7775707  50.3560638  31.9621525
  13.7710457  42.4712486  39.8414803  13.2044773  42.8938103  39.1959763
  13.4298506  41.5797501  39.9125252  84.6518936  69.4694901  83.3873291
  84.1934128  68.6299667  83.4223862  83.9546585  70.1198120  83.3025970
  43.0989380  62.4681129  40.1891251  43.5704041  62.9427147  39.5045052
  43.3206711  62.9306030  40.9973106  60.0468712  18.3768520  72.5423889
  60.1240044  18.2656975  71.5948029  60.9490776  18.3494453  72.8609848
  86.0778122  38.0534630  13.8135567  87.0223312  38.0758400  13.6598825
  85.9851303  37.6512909  14.6772108   5.0959115  68.0863724  45.3743401
   5.5305824  67.3655472  44.9185905   5.6988935  68.8244095  45.2851791
   7.6028838   7.5505023  66.4854813   8.1705704   8.0747261  67.0504150
   6.7693706   8.0211020  66.4805450  79.0574951  70.0666504  35.0919991
  79.9143753  70.3899231  34.8136482  78.6127319  70.8383026  35.4426575
   1.9703053  22.3104401  78.1815186   2.3526855  23.1813564  78.0741730
   1.2814846  22.4302082  78.8352890  64.3938217  49.5038605  58.6812706
  63.4730148  49.2534866  58.6060295  64.6431732  49.2366104  59.5659370
  57.7507896   9.3388557  52.3942299  58.3197899   8.8704472  53.0050201
  58.2457085  10.1239500  52.1598969  72.7646408  46.7300987  24.0458946
  71.9563904  46.5746002  24.5345459  73.3438950  47.1634331  24.6727276
  37.0374451  43.0503654  64.8599854  36.6133957  43.6228447  64.2207031
  36.3849983  42.3753891  65.0469437  41.9193268  41.9635162   9.9044933
  42.1559525  41.0674133   9.6652546  41.5274467  42.3277817   9.1107836
  35.3641472  36.2969666  72.4150467  34.5460587  35.8078270  72.5028152
  35.1024895  37.2152824  72.4818420  75.6384125  30.6257744  18.0366802
  75.4836273  31.0452061  18.8830566  74.8285828  30.7687836  17.5468349
  23.2527466  71.0199509   7.9860911  22.3019962  71.1014709   8.0613050
  23.3833351  70.3479385   7.3170719  46.5895958  54.5604668   6.9666553
  46.8641205  53.7038422   6.6394429  45.6571007  54.6096268   6.7562566
  68.8216934  50.1314735   7.5270810  68.3811722  50.3627510   6.7093492
  68.4358597  50.7150803   8.1803551  70.3803864  28.4056740  19.1417027
  71.0372543  27.8530788  19.5652561  69.5430145  28.0720081  19.4637375
   6.1403794  23.5025997   1.5582185   6.5576582  23.3483047   2.4057465
   5.7043056  24.3490105   1.6565042  33.7116203  54.3153496  30.7816010
  32.9755173  54.8804779  31.0161572  34.4880371  54.8232651  31.0170460
  83.0152435  10.1235161   9.9355345  83.6810760   9.7566395   9.3538952
  82.5167999   9.3643532  10.2379599  40.5056877  70.4086227  50.6109238
  41.0416222  69.7252502  51.0134315  39.7584267  70.5057297  51.2011795
  86.3460159  11.9656324  37.1430511  87.2183151  11.6043730  37.3005524
  85.9050522  11.3034439  36.6108017  57.6624603  56.6663589  41.2556915
  57.6863022  57.4633255  41.7853203  56.8919296  56.7724953  40.6977959
  28.5387707   9.4727859  80.7810440  28.6146984   8.6678858  81.2934952
  28.3786621   9.1728430  79.8862686  46.5588608   6.3611946  36.0514603
  46.3353767   6.8891187  35.2849197  45.7391014   5.9297061  36.2923775
   1.3311179  23.0657272  30.1758900   0.8371137  23.8773727  30.0600224
   0.6681690  22.4111023  30.3954258  60.6064529  71.3245010  39.2693596
  60.0227928  70.9201126  38.6274605  60.0383186  71.5352707  40.0103264
  26.8410892  54.6079521  11.5528107  26.9940033  54.0489731  10.7909765
  26.9018059  54.0144844  12.3013716  18.7234077  44.3535385  81.1493607
  18.4513474  44.8339005  80.3673935  18.9493580  43.4807472  80.8277817
  14.7694101  54.2726402  76.2250595  15.4689016  54.9254074  76.1961136
  15.2220888  53.4430962  76.3772888  16.9701271  20.8683987  67.5239258
  17.8290081  21.2909470  67.5263748  17.0644360  20.1376743  66.9128799
   6.6241741  29.5789680  24.2273388   6.8759623  29.5131817  23.3061943
   6.2261858  30.4459896  24.3055172  35.0572968   9.8392544  72.2710724
  34.9481468   9.3387070  71.4625092  35.4022446  10.6849127  71.9845352
  55.1161041  30.2900314  24.9679756  55.0021629  29.5438480  24.3793678
  54.6781578  31.0153999  24.5226917  14.9316778  37.1149864  29.2295628
  14.4962025  36.3736343  28.8088570  15.7329998  37.2417984  28.7215939
  10.4840584  21.6096306  24.9162693  10.7222128  22.3280602  24.3302879
   9.5395565  21.7041912  25.0395832  10.8779268  47.7726936  21.3551693
  10.8497858  47.9392891  20.4129982  11.0233898  46.8293686  21.4273586
  77.2124252  43.3273888  20.8679047  78.0744705  43.7120819  21.0263958
  77.3670197  42.6607399  20.1986427  54.0628128   1.9888684  43.6107635
  53.8485909   1.8961453  44.5390625  53.9454575   1.1104785  43.2489738
  45.1112671  13.1230516  67.0848923  44.4913406  13.6905937  66.6268311
  45.6657829  12.7652187  66.3915634  46.7969055   9.8573055  15.0627642
  47.6457901  10.2622309  15.2406960  46.1581802  10.5402317  15.2673950
  81.0209961  31.7391090  88.0160370  80.5043640  32.2775574  87.4165421
  80.6607437  31.9315147  88.8817291  82.7791977  55.4100304  28.7515030
  83.6089630  55.5094986  28.2847824  82.1115417  55.4678040  28.0680332
  79.2496643  54.1997833  77.6446228  78.4261017  54.0886192  77.1696396
  79.4181976  53.3425331  78.0357132  33.8696098   0.4363677  82.1250534
  34.0348053  -0.4280533  82.5015106  34.6122475   0.5890390  81.5407486
   6.7786813  51.4522514  15.0149279   7.0383959  51.1074371  14.1605968
   7.6051655  51.6034012  15.4735241  73.1837616  35.1089668  45.2431335
  73.9961243  35.1807938  44.7419968  72.5087357  35.4473839  44.6548729
  61.5486488  21.7089653  86.7862015  62.1171227  21.0585728  86.3738098
  60.8077850  21.2026596  87.1193771  31.1728630   3.1000872  75.8159027
  31.3237667   2.2513411  75.3998642  30.3638363   2.9823308  76.3137436
  19.6696987  13.1228323  76.3353882  18.7202148  13.1663609  76.4486084
  20.0242977  13.5140457  77.1337814  43.2019348   6.3863602  13.1122341
  44.0217438   6.7637963  13.4311161  43.3404732   5.4402924  13.1569109
  69.8561020  62.8582878  55.1363831  69.2442551  62.9104729  54.4021149
  69.3865738  62.3586998  55.8043556  64.1096725  38.6722107  52.5280800
  63.2790947  38.9577332  52.1474876  64.5696030  39.4853287  52.7367363
  86.2914352   9.3275251  14.3180914  86.9487839   9.9177580  14.6865406
  85.9275894   8.8708467  15.0765696  54.5210915  21.1992874  48.3726120
  54.7072411  20.3371716  48.0006714  53.8027306  21.5400467  47.8396301
  82.4419174  29.6029205  34.1183014  82.4783020  28.8266029  33.5595207
  81.8534393  30.2016449  33.6584549  39.2699356  64.9575195  81.4284286
  38.7320328  64.8939209  82.2176285  39.7788963  64.1468964  81.4194946
   4.7565141   4.2491760  27.3929844   5.0198922   4.8891525  26.7317009
   4.6789789   4.7572508  28.2004986  33.3139381  42.1985970  55.1524429
  32.5655441  42.5135002  55.6593704  34.0774040  42.4427834  55.6756325
  15.5743980  54.9496002  66.8686066  16.1603374  54.2255096  66.6481552
  14.9252377  54.5621605  67.4557266  66.5761719  32.8139343  19.3576813
  65.9196930  32.9021797  20.0486813  66.6471252  31.8702698  19.2138309
   6.3441067  31.6644325  88.3304443   6.2274847  30.7214012  88.4458618
   5.8471665  32.0568542  89.0482788  77.1127548  16.8604355  47.7913742
  77.2448425  17.4875450  47.0803757  77.9940491  16.5583363  48.0111008
   5.7323437  24.5782051  67.2593765   5.0954962  23.9339390  67.5685349
   6.5797467  24.1445103  67.3596268  15.1276302  49.3755493  51.8211327
  15.6719933  49.3574982  52.6082649  15.7527313  49.3452110  51.0968666
  51.5136681  60.6941643  71.7293320  50.6250420  60.6756554  72.0846252
  52.0619621  60.3571167  72.4378586  54.0585899  58.5658035  33.0468750
  54.6236839  58.1678467  33.7090912  54.1174049  57.9754448  32.2957115
  38.3667336  45.0757866  60.2469521  38.9786720  44.3715057  60.4608498
  37.5211830  44.7648468  60.5703583  60.4876099  62.6688118  41.8380394
  60.6447792  63.0501137  40.9742470  59.5377922  62.7106323  41.9490891
  41.6454430  53.5019531  48.1439667  41.0753479  53.0908966  47.4941521
  41.0999947  54.1764679  48.5486221  64.0727310  70.7452316  82.8466034
  64.5479202  71.5496140  83.0549088  63.2810555  71.0438080  82.3990097
  49.7692146  62.7394371  63.4965973  50.5264320  62.1700706  63.3599281
  50.0425911  63.3390083  64.1908722   1.4070143  43.0998878  13.3842525
   0.5854713  42.9411583  12.9193830   1.6247581  44.0097694  13.1819344
  45.3957977  58.9145775  29.9966011  46.2764397  58.7944565  29.6412468
  45.2680473  59.8631783  30.0045090  57.2441902   0.7583290   6.0734730
  56.3025360   0.7166318   6.2401581  57.6230736   1.0352001   6.9077511
  60.3170280  30.3617973  40.6537628  59.4673691  29.9293938  40.7394295
  60.8637810  29.9502411  41.3230286  28.6255550  66.6481628  60.0183716
  29.1896706  67.4047394  59.8583984  28.0502319  66.9249039  60.7315674
  79.0274353  69.7042236  12.4151392  79.3968277  70.4560165  11.9518967
  78.1019592  69.9221344  12.5257215  62.0709076  20.3408489   3.2911015
  62.8504143  20.3370991   3.8466072  61.5360298  21.0568771   3.6337926
  75.0266418  32.6923256  42.1698990  74.6829987  31.9123688  41.7342262
  74.6007767  32.6950569  43.0271416  83.1261597  41.7682457  34.2448654
  84.0437851  42.0109787  34.1212730  83.1187592  40.8139534  34.1706696
  42.2567558  38.4610214  31.1650620  43.1094246  38.0455437  31.0363617
  42.4483566  39.3985367  31.1892796  33.0867920  65.6231461  70.4628906
  33.5886612  65.2434998  69.7416306  32.6348114  66.3711777  70.0725250
   4.2236390   6.3489709  29.4252834   5.0442495   6.8311243  29.5270576
   3.6148202   6.9878964  29.0546818  23.6764812  10.7773666  34.7991333
  24.3636513  10.4658184  34.2100945  23.2071285  11.4389114  34.2909012
  71.3750534  21.7427750  26.7168331  72.0447159  22.3042774  27.1073360
  70.6322098  21.8026485  27.3175316  83.1897812  70.3557892  86.4914093
  82.7017441  69.6346664  86.0938644  82.7344131  71.1444244  86.1965714
  25.1072311  70.8234482  76.3024368  25.2114601  70.9029922  77.2506104
  24.4891777  71.5165710  76.0704346  67.4610825  22.1648350  58.7843399
  66.8750610  21.4239864  58.6295700  68.1062164  21.8334789  59.4090271
  65.2616043  36.1422310  70.1448669  65.9807434  36.6623573  70.5033798
  65.3425827  36.2432022  69.1964569   1.8280240  26.8450832  65.6402054
   1.8806667  27.6779232  65.1713333   0.9314102  26.5438213  65.4933777
  80.8348694   1.2841420  87.7571411  80.8863831   2.1437299  88.1751022
  81.7311707   1.1005155  87.4757919  36.1394920  49.5593224  35.8795738
  36.9348984  49.0285378  35.9223938  36.3880424  50.3215256  35.3566017
  70.6178207  61.6249771  71.5599670  71.0295486  60.9898949  70.9739761
  70.5624619  61.1731377  72.4019928  46.0111618  63.6446838  75.6069107
  45.8752708  64.3373260  76.2534561  45.2955360  63.0282631  75.7622757
  37.9131165  54.9848747   4.8715324  38.5095634  55.1914482   5.5911231
  37.0840263  54.7736893   5.3007665  48.1074944  59.3598366  35.0534973
  48.6597595  58.6335793  35.3429565  48.3403893  59.4860001  34.1336708
  84.6722641   0.6033534  17.4904690  84.8985138   1.4628251  17.8459282
  85.5129471   0.2163858  17.2460537  20.1760101   8.0598993  73.1073074
  19.5309868   7.3803425  73.3032150  19.7077312   8.8826113  73.2490540
  86.7156830  43.9181786  76.9329071  86.2869339  44.7702904  76.8534775
  87.1439362  43.9443703  77.7885666  36.3748665  69.6677094  34.3174362
  35.6447792  69.8388367  34.9123459  36.6018295  68.7511215  34.4742584
  25.2188015  61.6798363  35.5802727  25.6053257  60.8637886  35.8979111
  25.7528038  61.9188232  34.8226738  28.0935268  43.1058044  53.6970558
  28.1409206  43.5889053  52.8720703  28.9829502  42.7801857  53.8353691
  69.2966080   3.3375630  67.9735565  69.8727112   3.9316401  68.4546051
  69.1675491   3.7631593  67.1259460  80.2884521  19.3056488  88.4117355
  80.8260803  18.5633507  88.6877518  79.4189453  18.9316940  88.2690735
  24.0949841  69.8602905  28.1370239  24.0473652  69.9897079  29.0842400
  23.1832371  69.8811111  27.8463078   2.3323588  12.8331861  33.6557999
   2.8128710  12.6336040  32.8523674   2.6077769  12.1562948  34.2740211
  31.3686180   0.7347163  17.0139885  32.1127205   0.3085810  17.4393711
  31.2553844   1.5547377  17.4945869  84.3217087  11.4058924  48.2791176
  84.7455063  10.8437757  48.9276962  84.6010590  12.2916327  48.5107651
  39.9127312  52.4423332  61.5060349  39.2485161  52.1220741  60.8957214
  39.5234642  53.2259789  61.8941116  25.3146801   7.9148512  70.5206757
  25.7068729   7.0417423  70.5305023  26.0046062   8.4910440  70.8496628
   2.6320484  38.3925972  49.1583061   3.3790069  37.7946625  49.1307487
   1.8724581  37.8348465  48.9904633  39.4911690   3.7479315  76.5367050
  38.9872742   3.8453815  75.7287292  39.2956352   4.5396504  77.0378876
  74.5431900  57.8362427   8.0095072  75.4649887  58.0099525   8.2001486
  74.2005081  57.4502296   8.8156071  35.8800621  55.2950592  11.2556028
  35.5378952  54.6403427  10.6469193  35.7268524  54.9193192  12.1225376
  44.5376663  52.5222931  22.6417007  43.8766441  52.8364487  23.2586212
  44.4860077  53.1309738  21.9047680   6.3670182  54.0511742  86.1989212
   6.1074162  54.0772400  85.2779694   6.1308398  53.1702576  86.4895020
  31.3174801  68.7276077  35.8567123  30.4487209  68.3734360  36.0465775
  31.3587055  69.5422821  36.3575592  20.1151943  11.9220514  86.7184143
  20.5529289  11.1354189  87.0437317  20.6971798  12.2548008  86.0351868
  39.1577301  51.1830406  37.2182274  39.4822998  51.3788567  36.3392830
  38.5632591  50.4430580  37.0946884  21.3043613  23.7098579  22.1799793
  20.9632378  24.2416325  21.4608955  20.6185894  23.7408619  22.8470516
  48.8769417  22.7335587  51.9507599  49.4593277  22.6976891  51.1919670
  48.0654259  22.3251076  51.6493568  39.7961922  55.6525307   6.6099482
  40.2533798  56.3247375   6.1046262  40.2740631  55.6090813   7.4381905
  14.8110113  58.7658195  82.2478256  14.6339769  57.8258858  82.2102814
  15.3550234  58.8761215  83.0276489   0.2567823  43.5056686  63.8529053
   0.4788638  43.8459053  64.7195969   0.1951869  44.2836990  63.2987328
  76.0575104   7.6808653  24.7410316  76.9285431   7.8141499  24.3671665
  75.8312836   8.5263491  25.1285992   1.2681260  41.6066399  58.7885857
   1.6753135  41.3477287  59.6152611   1.5075045  42.5272369  58.6816711
  13.6648350  15.2790022  14.1697359  13.5503759  14.3842754  13.8494291
  14.5879641  15.4746380  14.0091391  25.0809822  56.4851799  81.6289062
  24.1588840  56.7134781  81.5112381  25.2978344  56.8077087  82.5036545
  55.9698524  43.6921310   4.2640538  56.7534790  43.6733627   4.8134265
  55.2703705  43.3717422   4.8335366  23.3434658  28.1045704  68.4527512
  23.5321941  27.2725277  68.0187912  24.0978222  28.2539482  69.0227203
  11.6664200  35.1190720  77.9383163  11.8173456  34.5422974  77.1894608
  12.5312271  35.2299843  78.3333359   7.9653249  57.6147537  47.6572952
   8.5599108  57.3278008  48.3503723   7.1141620  57.2557945  47.9080963
  41.7465172  12.5361052  85.1379776  42.0577278  11.6399755  85.0101852
  40.9049072  12.4362154  85.5828934   1.6565130  52.4416428  41.6678734
   2.2607970  53.1722374  41.7994270   1.1613702  52.3901672  42.4854393
  33.8135872  68.1421051  78.2948608  33.8891754  67.4407730  77.6478348
  33.1247215  68.7112961  77.9517517  77.8424454  29.4144077  25.7174187
  77.5347824  30.2907734  25.4859962  77.3962784  28.8334560  25.1012535
  18.5249882   3.1884854   3.3756194  17.7427902   3.4837608   3.8416784
  18.9683437   3.9961469   3.1160994  16.8426743  46.3146172  83.5592422
  16.4543247  45.8736801  82.8036041  17.4055614  46.9893608  83.1796265
  63.8587189  55.2043228  51.0389099  63.2301178  55.6253090  51.6253090
  64.4934235  54.7916069  51.6246185  15.8363848  52.4760895  57.6931610
  15.1494417  52.1980438  58.2989922  16.5431175  52.7871475  58.2588501
  50.4152222  61.7155151  16.2244205  50.7929153  62.4172630  16.7546406
  50.5044136  60.9314575  16.7662010  74.9174881  50.3658867  14.9005537
  75.8550720  50.4941750  14.7566051  74.4963913  50.9681168  14.2871828
  62.2903214  59.3500633  50.4219475  61.4981499  58.9581108  50.0544281
  62.9745598  59.1514397  49.7827301  51.2203636  20.3605766  80.4676437
  51.5019760  21.0730247  79.8937607  50.9654846  19.6578979  79.8697205
  31.3690491  63.8784904  76.4200287  31.8767872  64.6493225  76.6735153
  31.1975136  63.4230118  77.2442474  12.8822556  22.7890167  11.6360054
  12.9015999  21.8481693  11.8111229  13.4462500  23.1696014  12.3092775
   1.6724747  15.5239182   7.9302397   1.7908629  15.0918789   7.0843329
   1.3453742  14.8341961   8.5077534  56.8632889  54.5253868  58.8221474
  56.4705811  54.0182190  58.1116600  57.5753365  55.0104027  58.4050407
  30.5100269  40.4120598  63.3011971  30.2135563  39.5036507  63.2452507
  29.9193764  40.8929100  62.7214165  80.2828293  22.7408390  58.5982513
  80.2503815  23.6823826  58.4289207  79.9249496  22.6437111  59.4807014
  49.9947739  20.8971043  68.2192078  50.4456139  21.7413330  68.2351532
  49.1479645  21.0699902  68.6306229  44.4013596  39.5207977  12.2983208
  43.9201584  39.0958748  13.0083332  44.2353706  40.4553185  12.4222116
   2.6515408  12.1354027  72.3025818   1.7689013  12.2966127  71.9691315
   2.5614941  11.3568096  72.8520508  39.8154221  41.3128395  19.4872742
  40.3650703  40.6141319  19.8421383  39.8996925  42.0277061  20.1182232
  12.5248804  61.9290352  55.3224754  12.4151621  62.1668358  56.2431488
  12.8437977  61.0267944  55.3445091  55.1635704  64.1784515  69.2284088
  55.4778519  65.0727234  69.0952377  54.9415817  63.8693161  68.3501205
  10.6896400  63.6803627  28.2572155  11.2532005  64.4269257  28.0540409
   9.8262291  64.0656738  28.4065113  77.3963928  49.1858978  42.3558464
  78.2490768  49.2584534  42.7846870  77.2419434  50.0532532  41.9815865
   3.3876662  59.5977211  56.9330788   3.1668036  60.3709030  57.4523468
   3.1142426  58.8584023  57.4761124  28.1785622  70.0624313  35.7778130
  28.4846592  69.3415756  36.3281898  28.4280338  69.8080826  34.8893852
  64.7631760  57.8257713  20.5932522  65.4306793  58.3500443  21.0357494
  64.3988953  58.4120293  19.9300518   5.9720016  55.1402740  31.8931046
   5.3340940  55.4930649  31.2727470   6.8225422  55.3649864  31.5158577
   6.9414344  19.7575245  10.1488142   7.5679278  20.3576889  10.5532150
   6.4405394  20.3055115   9.5446234  10.5583801  10.2191124  64.7594528
   9.8990335   9.7832594  64.2195206  10.7402935  11.0389547  64.3001022
  60.3947754  29.6170654   3.3086195  61.1813736  29.2500534   3.7120991
  60.2209320  29.0462914   2.5601366  65.8470001  60.7119484  70.9533386
  66.2328568  60.2426872  70.2136459  66.0975494  61.6252899  70.8145523
  83.0618057   5.7545586   0.1012222  83.9809494   5.8616495   0.3460399
  82.7953720   6.6186070  -0.2128855  79.5854568  56.2383232  12.3698263
  79.8737717  55.6893349  13.0990162  78.8620148  55.7515488  11.9749813
  53.2444038  34.6969833  85.9915390  54.1613541  34.5998268  85.7346344
  52.9470940  35.4792671  85.5269165  22.8350773  40.7571869  44.8161850
  23.1193886  40.9173279  45.7160492  23.2384872  41.4613800  44.3086357
  67.9032898  53.3479080   3.6321504  67.0831528  53.5619202   4.0769043
  68.0877609  54.1137199   3.0883336  72.2457581  30.9349689  81.8508377
  71.6495438  31.4756165  81.3327103  72.2992783  31.3803177  82.6964340
  59.1402130  58.7277184  30.1622791  59.3823166  58.6919403  31.0876637
  59.7831764  58.1696968  29.7247410   4.2442226  40.3561172  47.8374557
   3.4789248  39.8075218  48.0094833   4.8075294  40.2275047  48.6005936
  64.6690216   8.1692524  24.9584026  64.3902206   8.1794071  24.0427628
  63.8525963   8.1366558  25.4570179  31.3865089  25.9813995   7.8978567
  31.7354317  26.7272015   7.4097333  32.0076180  25.8525791   8.6146955
  54.4367256  36.9087105  82.2856140  54.5241470  36.0772972  81.8194199
  53.6148186  37.2787018  81.9634247  68.2907333   5.7538171  59.2916374
  68.9800110   5.5401955  58.6627502  67.4850006   5.4433761  58.8785324
  54.8157501  59.6944237  10.7293425  54.2500343  58.9549179  10.9514418
  55.6474686  59.4976196  11.1603231  37.0636215  65.0678329  53.4593468
  36.1166267  65.1637344  53.3581963  37.3556595  64.6873169  52.6310043
  25.2425232  20.6251316  75.2044144  25.9538670  21.1063538  74.7817459
  25.6381493  19.7937202  75.4660721  70.8313141  54.9411316  83.8654938
  70.6588669  53.9999352  83.8909378  71.6739120  55.0423012  84.3082352
  73.5553360  68.4948273  66.3694382  73.1946869  68.4882278  67.2560730
  73.1606293  69.2626343  65.9560242  44.5451012  62.1243019  27.7786217
  44.4769363  62.5607910  26.9294662  45.4839516  62.1069756  27.9643402
  12.7725725  61.9445076  28.0327339  13.3616295  61.9601898  28.7870522
  12.0332565  62.4931374  28.2947388  79.9174347  42.2481537   1.9247366
  80.5068512  42.3900719   1.1840073  80.0943985  41.3495178   2.2028868
  63.0963631  67.8779907  58.1895790  63.3395844  67.3895035  57.4031563
  63.8868332  67.8719177  58.7293472  64.9989090  52.1447639  43.9781570
  65.4283371  52.1648598  44.8333893  65.6137772  52.5845757  43.3910179
  64.7307281  62.0993958  44.7272758  64.5673676  61.1564522  44.7474442
  63.9134407  62.4771690  44.4023781  25.8024654   3.2597842   4.8387833
  25.8296509   4.1100283   5.2776194  25.3850708   2.6763842   5.4725485
  30.8522053  42.8573570  71.9624863  30.6978455  42.8931274  71.0184937
  30.3269310  43.5740509  72.3183975  70.3759918  37.5855446  41.0529671
  70.6071777  38.2806053  40.4367867  69.7529678  37.0386887  40.5744133
  76.4410553   2.0931842  87.3129807  76.4319305   1.9308379  86.3696976
  76.9981995   1.4013904  87.6696930  45.9354248  55.4041023  34.2752075
  46.7450218  55.3307915  33.7698288  45.8747559  56.3333015  34.4968719
  36.3573685  70.5967636  67.6037369  36.0503197  70.1734390  68.4054489
  35.5580139  70.7918777  67.1146545   4.0842280  14.3635731  73.3511429
   3.6479790  13.5743885  73.0300446   4.8409328  14.4703045  72.7747421
  68.4156723  11.4266729   2.9653673  69.1572723  11.6841764   3.5130413
  67.6481934  11.5674715   3.5197949  63.5476341  61.7709656  88.7028275
  62.9687233  62.4969025  88.9354401  62.9724007  61.1305428  88.2842636
  81.8357239  35.7859421   4.1174760  82.5559006  35.3963737   3.6216755
  82.2418518  36.5001144   4.6086469  25.8037968  65.7079544  46.4169884
  25.3027496  66.0247650  45.6654510  26.5982094  65.3347397  46.0350838
  43.5564117  51.1289330  44.0448036  43.9963760  51.4543686  43.2594681
  42.6563034  50.9639130  43.7640800  10.3404121  67.5569992  83.9624634
  10.6935596  66.8220062  84.4637680   9.7313604  67.9861526  84.5633926
  58.8833084  25.0700111   3.8670425  58.4099274  24.6959629   4.6101646
  59.6880646  25.4213657   4.2480283  68.4686584  53.6703262  63.3792877
  67.7406235  53.0503426  63.4218025  68.1178589  54.4778175  63.7549591
  65.5485153  24.1247826  52.9194946  65.7238541  24.6026039  52.1088333
  65.0550690  24.7421684  53.4594765  66.4139786  65.0069046   6.2614241
  66.7004929  65.7040558   5.6714106  66.6084061  65.3396759   7.1376061
  31.7752972  40.8740158   9.1930227  32.6446152  40.8967934   8.7930241
  31.8657265  40.2677155   9.9281807  62.3588371  57.9282990  87.6042175
  62.3531113  58.1089249  88.5442047  63.2476692  58.1464462  87.3238220
  32.2109184   9.7453508   2.6198835  32.9517975  10.2735395   2.9171145
  32.2977448   8.9205637   3.0978162  84.7740555  28.6435738  50.4599419
  84.0484314  28.1084938  50.1383896  85.4794083  28.4938087  49.8304291
  77.4672928  55.4777145  43.9361076  76.6543503  55.0814667  43.6225243
  77.9522629  55.6920166  43.1391640  25.2471542  12.6944427  17.1822624
  25.4700050  12.4840918  18.0890808  24.3246670  12.9477854  17.2149105
  34.0584106  60.8768425  86.5956650  34.6797333  60.1514664  86.6590881
  33.5063553  60.7879562  87.3725586  59.2399521  11.5333395  88.2651749
  58.9661026  11.2351303  87.3978195  58.4626236  11.9569159  88.6292877
  17.5375061  25.6547470  14.7684097  16.7113152  25.3805962  15.1665058
  17.9760094  26.1617432  15.4517126  54.0361519  20.4504852  50.9017563
  53.2047081  20.7272892  51.2868729  54.0232239  20.8148041  50.0166931
  20.6477623  53.8071098  38.0203362  21.4110451  54.3839264  38.0505600
  20.6758270  53.4183197  37.1460991  71.0408554  49.9098816  86.4256363
  71.0194855  50.7792015  86.8257065  71.0367355  49.3047447  87.1672745
   5.0499163   6.4239082  50.4883690   5.3034472   5.5284548  50.7122383
   5.8777046   6.8689160  50.3068047  37.9527397  38.2186317  67.0638580
  37.3706818  37.9172211  66.3662949  37.8658867  37.5575562  67.7506332
   3.8304498  58.5703049   2.2671211   3.5086627  58.9279861   3.0946159
   3.6609144  59.2604141   1.6258417  13.5587120  32.5197449   9.9419794
  13.5540648  31.6760273  10.3940315  13.7046728  32.2979393   9.0223436
  81.1451187  57.7126122  15.3650589  82.0088806  57.3077888  15.2859068
  80.5701370  57.1544800  14.8415012  49.5487518  24.6164799  85.2499466
  49.2907066  25.2782459  84.6082993  48.7321510  24.3759956  85.6876221
  49.1289253  28.6325054  77.5340576  49.4807777  29.3885479  77.0641251
  49.2351074  27.9014816  76.9253159  81.1348648  71.4002533  49.9030495
  81.6726227  70.6430206  49.6714211  80.3054581  71.2530518  49.4484673
  82.6971588  65.6116791  88.1900177  81.8432159  65.7889633  87.7955856
  83.2872696  65.5019913  87.4443741   9.7505083  66.4816971  57.2342987
  10.6378403  66.5024033  56.8759041   9.7146158  67.2313309  57.8284340
  43.2573509  40.7038422  57.9509621  42.3238144  40.5801620  57.7793732
  43.3137856  41.5691223  58.3563499  77.8568573  33.3228836  22.1801682
  77.2407150  33.8550224  21.6767502  78.5440521  33.9355583  22.4421368
  14.4037657   1.2739704  60.2077904  14.2134504   2.1054029  60.6422234
  13.5649691   0.8130115  60.1948051  33.2070923  47.0923958  66.8586197
  33.5241013  47.9952888  66.8358231  33.6007118  46.7201996  67.6477737
  12.8636103   3.7216356  24.1507282  13.2824583   4.5822802  24.1601505
  12.5385323   3.6036863  25.0432777  15.9214935  44.6310768  39.5568047
  15.3833761  43.9346657  39.9332047  15.4604387  45.4388275  39.7830696
   4.6707273  62.7381592  65.2417374   5.2679420  62.0939865  65.6220093
   4.0771441  62.2218552  64.6964645  83.8118515   3.2221899  57.4445839
  83.1544113   3.2517719  56.7495117  84.1277084   2.3186343  57.4372101
   0.7260025  39.1665916   6.6242046   0.6338723  40.0839348   6.3668680
   1.0915046  38.7365112   5.8511128  30.2949429  35.4736443   3.2889335
  30.1242790  36.3829727   3.0435209  30.8874073  35.5349426   4.0382390
   8.5316191  68.7230301  79.0541229   9.2897434  68.3581390  78.5976868
   8.7940130  68.7453613  79.9743881   3.3667879  36.9805336  87.7703705
   3.3782749  37.9372902  87.7435837   4.1997962  36.7199059  87.3774261
  10.4149208  68.5927353  81.4629898  10.4210682  67.8285446  80.8866119
  10.5683355  68.2345505  82.3372879  80.3762131  22.3893719  81.8790131
  79.5244904  22.8133373  81.9841843  80.9770584  23.1061668  81.6754913
  53.5840111  41.8604126  43.5114441  54.1127319  42.3358803  42.8706512
  52.9188538  42.4907112  43.7880783  43.2054749  55.0914536  10.0595655
  43.1681862  54.1889496  10.3763084  43.4932594  55.5997314  10.8178949
  65.8752136  38.4249573   4.9962578  65.1796951  37.9707756   5.4718642
  65.9477005  37.9511223   4.1677308  21.4923267  60.0398865  35.8109055
  21.6714249  59.1487885  36.1110725  21.2792969  59.9417458  34.8828888
  61.3663406  12.8596649  29.1478806  61.5398712  12.4990215  28.2783642
  60.4158478  12.8025856  29.2455292  78.4490738  11.8017950  28.1256504
  79.2762451  12.1846991  27.8334103  77.7946167  12.1584930  27.5250874
  38.8501930  58.7050629   5.5887227  38.0220909  58.2995911   5.8457704
  39.4970665  58.3269882   6.1844120  62.0818634   2.0175915  54.8232803
  62.4911537   2.0138383  53.9580078  61.2213402   1.6225865  54.6829109
  50.5588646  55.5924759   1.1694621  49.8753853  55.1998024   0.6264212
  50.0886345  56.1883240   1.7526222  72.0433731  21.2129421  87.7035522
  72.3993073  20.4385033  88.1391983  71.1748886  20.9422760  87.4057236
  41.7238579  65.0560226  11.7354832  42.3843575  64.3976364  11.9511261
  41.0034714  64.5558929  11.3518848  65.1939926   6.6949954  64.5352249
  65.4457474   6.0156341  63.9096680  64.2631912   6.8421359  64.3673172
  15.7788486  36.4695206  23.4441452  16.3620300  36.9500771  22.8566093
  16.3665485  36.0344772  24.0618649  58.7041321  51.3644295  64.9840851
  58.2968750  51.8559761  64.2708054  59.6385918  51.5556374  64.9037247
  48.9872055   4.9713483  69.2093201  49.3004608   5.8745484  69.1610184
  48.7323990   4.7578878  68.3116913  85.6181564  39.7775421  78.2630692
  86.5527496  39.7725563  78.0563126  85.5842361  39.7493668  79.2192535
  75.2761917  57.7367935  46.1918144  75.6602097  56.9855194  46.6438637
  76.0248642  58.2889137  45.9662361  75.5653076  66.6487122  38.6490288
  75.1334457  67.1341705  37.9461403  76.2764664  67.2223282  38.9344330
  36.4775200  42.6154327  30.2944298  36.3298721  43.5479393  30.1367645
  35.7057686  42.3300781  30.7835178  17.5965042  60.2318535   8.3319340
  17.6511650  60.7495117   7.5286441  17.5922318  60.8810005   9.0353699
  20.7162361  39.4843521  79.1956711  21.3788528  40.0984993  79.5119019
  20.9949608  38.6346054  79.5369492  38.4416695  10.8917351  84.4867325
  38.9029999  11.5771055  84.0033340  38.3051109  10.1957664  83.8439178
   8.2002945  66.5487671  70.1381073   7.7340775  67.3009491  69.7732849
   8.4110432  66.0060730  69.3783035  72.0887604   6.7383351  21.6366577
  73.0001373   6.9657888  21.4525623  71.6850128   7.5641627  21.9035435
  39.1293564  15.8336287  69.5128021  39.6340599  16.6269245  69.6922150
  39.3800240  15.2274933  70.2099380  74.4916763  62.5517197  34.3878593
  74.0804901  61.8290253  33.9136543  74.7854691  63.1516380  33.7022858
  78.6509094   6.3143163   0.8080116  77.7748795   6.5466418   1.1159455
  78.4996414   5.6558204   0.1299752  18.9534931  62.4074974  10.4088345
  18.9161301  62.0371246  11.2906857  18.0407982  62.4347687  10.1216431
  52.4212189  51.1744957  73.7648392  52.6239128  50.6420403  72.9956589
  52.4638367  52.0771751  73.4492569  25.6990376  62.6766853  31.3400249
  25.8912678  63.2652550  30.6100521  24.9595451  62.1508026  31.0353394
  73.6325912  56.4363251  23.6539173  72.8077011  56.6094933  24.1075764
  74.1294861  55.8882027  24.2612839  35.5971909  47.4342461  78.7105026
  36.0329742  48.1675529  78.2762375  36.2912521  47.0058022  79.2114487
  60.5432243  56.9183540  68.8604355  60.3812294  56.7236328  67.9373550
  60.6491394  57.8692284  68.8896255   2.9882038  58.5934410  81.6285400
   2.6286874  57.8271294  82.0754623   2.2637689  58.9219475  81.0960770
  64.7693863  62.9177170  26.4859867  65.1469345  63.2882576  27.2837276
  65.0358963  63.5209961  25.7922573  84.9174500  44.6528549  34.3643723
  84.4180145  45.1421432  33.7106209  85.3498688  43.9595413  33.8658104
  67.9141541  20.0309772  81.3426743  68.3064575  20.6868343  81.9190216
  67.4706726  19.4250278  81.9362946  50.3825111  46.6822243  78.2147217
  50.0468636  46.7448692  77.3204956  49.6029968  46.5509529  78.7545013
  17.2776775  11.1604185  72.1321335  17.1080360  11.9801064  72.5964203
  17.6750221  10.5901670  72.7902832  39.5152740  11.5980215  10.0428925
  39.1257629  12.0422306  10.7960138  38.9111977  10.8813353   9.8487711
  72.8636932  71.0948486  65.6844940  73.4585724  71.3458099  64.9778290
  72.0639343  71.5917511  65.5121384  55.9669266  10.7401438  84.7408142
  56.0067139  10.4934044  83.8168182  56.0707092  11.6917000  84.7393036
  51.6527061  63.7180099   9.5515013  51.6178017  64.2800751   8.7774858
  51.3825340  64.2864685  10.2726755  22.2922325  67.3855896  47.5887032
  22.5444012  68.2378082  47.2332344  23.0842304  67.0609360  48.0171547
  67.0291061  59.5964470  68.6378708  67.8416595  59.1125793  68.4899750
  66.5732269  59.5617371  67.7969208  83.0307007  20.2542801  38.5078392
  82.4292221  20.8829880  38.1088676  83.2234650  19.6300735  37.8082390
   6.5243444   5.6742067  81.9080276   6.4705210   6.6288180  81.8627243
   5.9959497   5.4404693  82.6711807  28.1397953  40.4894066  38.4566383
  28.6549091  39.8654556  38.9680786  27.8687534  41.1530266  39.0909691
  52.8423653  54.8173676  15.2817888  51.9250069  54.5528145  15.3502798
  53.0509682  55.1831665  16.1413879  51.4710960  19.1610870  24.8863029
  51.5128212  18.7243767  25.7370529  52.1864624  19.7967033  24.9080124
  11.5221605   9.2438364  15.3520718  11.6534071   8.6105566  16.0577374
  10.6008482   9.4936733  15.4227505  74.0987473  34.3979111  51.9656944
  75.0349503  34.2064018  52.0212059  74.0531769  35.3512840  51.8933830
  83.1356583  55.2236519  88.0318985  83.8249130  54.6634178  88.3886871
  82.8796692  55.7843285  88.7642517  19.9475441  23.2349815  77.1102142
  19.5403919  23.9803200  76.6687088  20.2409992  23.5857868  77.9510803
  46.7996063  41.8727074   1.1003547  46.6762924  40.9265442   1.0241908
  47.7490349  41.9881783   1.1388555  18.0634670  62.0733910  21.3899918
  17.6907387  62.8418579  21.8221550  19.0066032  62.2366982  21.3825340
  42.5890808  42.0314560   2.3128695  42.8407822  41.3231049   2.9054198
  42.3045464  42.7384682   2.8920114  84.6486588  18.8565254  88.8374100
  84.0340805  19.5573807  89.0549698  84.1353149  18.2420940  88.3128357
  38.2309799  29.8062172  83.7470398  38.4894371  30.7256680  83.8106003
  37.3322678  29.7867661  84.0759354  77.7717209  51.9154625  49.4508896
  77.8248367  52.5892105  50.1287346  78.3883896  52.2036514  48.7779083
  61.3823395  54.7913857  77.1038513  61.2375221  54.2463112  77.8772507
  60.5380592  55.2144356  76.9474792  71.9429092  64.7157135  24.1391411
  71.4696579  64.3372574  23.3981705  72.7433014  64.1946869  24.2034626
  11.2940826  32.1287308  36.3193817  10.8616838  31.2775993  36.2498436
  10.9966812  32.4806290  37.1584015  41.0555725  54.3810158  40.7789001
  41.0051422  55.0184593  40.0666122  40.5941391  53.6117249  40.4449768
   2.5992761  26.5139694  31.8163452   2.9208283  26.1085167  31.0110836
   1.7976556  26.9661198  31.5532894  84.1949844  23.6438351  43.1533241
  83.7801590  22.9224491  42.6803055  83.7339783  24.4258308  42.8497009
  13.2705173  12.9173336   2.3331752  14.0981474  12.5665693   2.0041986
  12.5998840  12.4827147   1.8063078  31.3487606   6.6940460  73.4953156
  31.1254501   7.4929833  73.0177536  30.8163414   6.7331815  74.2898178
  43.2520599  50.3764153  86.8883514  43.6384315  51.0004196  87.5028152
  43.8026695  50.4367981  86.1077042  24.5426712   9.1577911  79.8292694
  24.9794083   9.9995728  79.9592514  24.4886990   9.0602379  78.8785858
  79.2683640  63.9740982  54.0068054  78.8511581  63.9219170  54.8667183
  80.0255508  64.5438232  54.1421394  75.5949326  66.6026688  19.8934631
  75.0086212  66.8267746  20.6161327  75.6660538  67.4096909  19.3836689
  48.9567108  19.0508118  40.1581001  49.0819740  18.5027199  40.9327812
  48.7798920  18.4298630  39.4514236   4.5165310  56.8374329  74.3761597
   4.3292866  56.0371590  74.8668060   3.6597054  57.2429314  74.2433090
  12.8167849  52.8999214  78.2332306  13.4680176  53.2433739  78.8449249
  13.3329811  52.5155525  77.5246887  55.7241898  54.0984383  53.7394295
  55.1206932  53.3799438  53.5502472  56.2937164  54.1414032  52.9713020
  20.6215210  41.5078735  17.0627022  19.6903439  41.4481239  16.8492279
  21.0531197  40.9595680  16.4074802  30.9921570  55.3016243  72.6235352
  31.6241341  56.0103378  72.5028458  31.2569199  54.6342354  71.9905090
  21.5442028   3.9512265  30.6527328  22.3570328   4.2802935  30.2689934
  21.6049385   3.0001554  30.5632515  65.9895630  55.9095116  17.0682774
  66.9207611  55.6892471  17.0925293  65.9075012  56.5230331  16.3381481
  43.0023193  58.5472679  43.7253265  42.5314713  59.1760674  43.1783829
  42.6120758  57.7008476  43.5073433  61.1614647  12.3294668  26.1402988
  61.4083633  13.2542648  26.1451015  60.6508026  12.2220650  25.3378525
  19.3508205  64.6843033  24.5844727  18.9794655  65.4141769  24.0888844
  19.0918083  64.8534698  25.4903030  41.6775093  61.5631218  45.9148941
  41.8360596  61.5727348  44.9709663  40.9565430  60.9441681  46.0303688
  66.3987350  10.1020632  55.2651024  65.5856323  10.3102760  55.7252579
  66.3191071  10.5505686  54.4232368  40.4126816  40.3225021  56.9050865
  40.5094986  41.0878601  56.3384438  40.1071510  39.6288261  56.3205376
   8.0671301  63.7466507  77.0566177   8.0177679  63.9554672  76.1237793
   8.0103064  62.7917824  77.0916443  29.6553249  16.7914791   3.4743207
  30.3482304  16.7990570   4.1346664  28.9332962  16.3203449   3.8901772
  40.5836449  52.3854790  45.7937241  39.8586006  51.7671204  45.8841362
  40.8995514  52.2550926  44.8996124  32.0062141  71.3005447  57.0788383
  31.4177780  71.2133713  56.3289185  32.8211441  70.8876572  56.7931023
  77.3355408   3.6415913  30.6292629  76.6753616   4.0187759  31.2107430
  77.7206116   4.3957667  30.1829700  32.5242386  44.7571182  58.6480751
  32.3502541  44.4533043  59.5389519  33.4741440  44.8702888  58.6148415
  76.2763824  19.7477436   3.9485700  75.6794128  19.6969490   4.6950822
  76.4495010  20.6832829   3.8435609  31.5681515   2.9001091  69.9481201
  30.7683849   2.3852282  70.0553818  32.1137047   2.6535542  70.6949921
  80.2370529  64.5044708  46.8514214  80.7077179  63.6838341  46.9972229
  80.8953323  65.0968399  46.4881058  38.2117577  20.8218117   6.5338688
  38.3860092  20.0821133   7.1158609  37.2783470  21.0010509   6.6472254
  77.5134964  21.0983448  37.8536758  76.9625778  20.3164158  37.8175125
  78.0484314  21.0512962  37.0612984   0.1437529  37.7607002  71.5177994
  -0.0551800  38.2875023  72.2918396   1.0454434  37.9926033  71.2955246
  65.2688065  35.9548874  74.0102997  65.7379761  35.1296120  73.8876801
  65.9483795  36.6268997  73.9572678   6.0926590  62.6032410  59.4215927
   6.6588273  63.3750305  59.4163437   5.9366817  62.4143181  58.4962769
  52.9576073  70.6141129  41.7006187  53.3428230  70.9603119  40.8956413
  53.1152954  69.6710739  41.6553040  42.8146095   2.7994058  79.2305298
  43.0274010   3.3363309  79.9938507  41.8725586   2.6452370  79.3012466
  48.7553978  33.2433891  21.7132435  48.6787758  32.4268074  22.2067604
  49.5481796  33.1325645  21.1884155  19.5916462  23.4222603  10.8312740
  20.0786285  22.7862358  10.3072968  19.6818390  24.2462006  10.3525057
   7.0925136  53.1760178  52.2137451   7.8692570  52.6466866  52.0328865
   6.7065778  52.7764664  52.9932594  44.1969109  10.6706543  76.3565216
  44.0945816   9.8771582  76.8819962  44.7119026  11.2588892  76.9087830
   1.5976291   4.9862704  72.7220612   2.2166610   4.2625194  72.8180542
   2.0600674   5.6268950  72.1817017   5.3813658  19.4901123  78.6217804
   4.7609472  20.1058846  79.0118332   5.6912041  19.9310627  77.8307114
  65.0688095  41.2752037  52.9523849  64.3927841  41.9469452  52.8630714
  65.5769272  41.3377304  52.1435928  68.5045547  54.2165527  79.6244507
  68.1262894  53.5537872  80.2022858  69.3958893  53.9094009  79.4588852
   8.4587593  46.2659225  81.4943695   7.9852753  47.0334206  81.1734390
   8.1307373  46.1369820  82.3843155  11.9332027   0.8503508  61.9404488
  12.0022726   1.7978750  62.0573196  11.7526941   0.5133134  62.8179779
  67.6846466  44.4462852  22.1001358  67.0792847  45.0737953  21.7051659
  67.3948364  43.5949745  21.7722473  70.9090729  27.0595379  77.9492340
  71.7818527  27.0930271  78.3408508  70.6022415  26.1697960  78.1237259
  52.7086220  12.7894611   1.2381303  52.4445915  12.3952560   2.0694675
  52.0323372  13.4422245   1.0570997  70.7717896  31.7127495  79.8278656
  70.3765793  30.8799248  79.5700989  71.6029816  31.7402782  79.3539581
  10.4014158  32.1639252  65.1878738  10.8315449  31.4375534  65.6390991
  10.8316545  32.2037315  64.3337402  12.2951012  43.7597771  58.4953766
  12.6621876  44.3347855  59.1668243  12.0007458  44.3545189  57.8055420
   1.8342057  37.4706497  12.8424616   1.1642598  37.3146858  12.1768198
   2.5795965  36.9401970  12.5609608  84.8496475  62.7607422  73.0983658
  84.8598404  62.9273338  72.1558304  84.3691635  61.9380722  73.1910095
   2.8550646  54.4299545  15.5972919   3.2325649  53.6222649  15.9456615
   3.5976000  55.0296593  15.5249739  63.9099617  43.7743111  69.8203278
  63.1131363  43.3410606  70.1262589  63.6584816  44.1801529  68.9906998
  11.2850590  52.7044868  44.8747101  10.6164503  52.2598457  45.3957558
  10.8828831  53.5378571  44.6297989  53.0723152  45.8956757  55.3855782
  52.4994087  45.3379250  55.9118156  53.2972527  46.6230392  55.9657288
  40.8150406  29.3663006  -0.0951582  40.4950409  30.2464275  -0.2931627
  40.8413353  29.3304863   0.8610101  33.4546356  71.3191528  38.7242012
  33.2834129  72.2000198  39.0573502  32.6525002  71.0782394  38.2607651
  86.5483627  31.8942413  72.3999329  85.6366882  31.6380939  72.2603607
  87.0259933  31.0658417  72.4429550  35.6202583  19.5925922  75.4116364
  35.5837097  20.1017323  76.2213669  35.7536926  18.6902714  75.7018814
  57.7147293  16.0494041  70.3989182  58.6058960  16.3883324  70.4836731
  57.2124710  16.7825279  70.0432587  21.1187305  37.3402138  65.9713287
  21.6415329  38.1418686  65.9873047  20.2287865  37.6306267  66.1710587
   6.6996975  43.3854027  14.2517290   6.0745387  42.7747002  14.6421795
   6.3942409  43.4979935  13.3515892  77.8171158  37.0263977  39.3282127
  78.5338135  36.9545441  38.6977997  77.7662048  37.9612465  39.5274467
  46.1573410  18.5756054  11.7347231  46.1731758  18.1696281  12.6014194
  45.7367096  17.9246597  11.1729689  64.2756271  35.1967468  81.8209305
  64.3040924  34.5173035  81.1473007  63.9188843  34.7551346  82.5916138
  67.7630844  33.0753517  26.1279926  66.9318008  33.4911385  26.3567066
  67.9013367  32.4227562  26.8144608  30.5028534  60.5661392  64.0218353
  29.7538967  60.8990250  64.5162888  30.6227283  59.6719780  64.3417358
  82.3209686  29.3093662  48.4999466  82.8268280  30.1152458  48.3955421
  81.9635391  29.3640614  49.3862228  45.9790840  54.7215195  60.4521790
  46.0684586  53.9053764  60.9442635  45.5956497  55.3371048  61.0768929
  29.2552319  38.1670380   2.3347361  29.7214680  38.9584999   2.6038930
  28.3640480  38.2913322   2.6611931   8.6909723  51.8862877  67.6886520
   8.8072433  51.4648743  66.8371124   7.7609987  51.7748566  67.8860474
  51.8199348  44.4151039   5.1297917  52.3777199  43.7181511   5.4752836
  51.8919106  45.1204414   5.7728720  64.4685974  52.7634506  34.6830902
  64.8917923  52.9274254  35.5258522  65.0440445  53.1793938  34.0411606
  72.1306381  60.0277939  15.2576790  72.2104950  59.4601631  14.4910955
  72.5154648  60.8594284  14.9810371  62.2344017   0.7903670  78.5942688
  62.6330528   1.2608695  79.3263474  61.4661407   0.3636912  78.9736786
  65.6668854  40.2160835  37.0100021  64.9279327  40.1861382  37.6176910
  65.2627182  40.2588234  36.1433716  49.3887253  62.8140907  22.9862080
  49.8196526  61.9891968  23.2099972  48.6959763  62.5642357  22.3747330
  36.7216072  46.0570221  26.7209187  35.9886169  46.6724586  26.7069530
  37.3814468  46.4827995  27.2682381  24.2074814   3.6801920  14.0279255
  24.3805656   4.4085069  13.4314098  23.6882496   3.0648315  13.5102749
  76.7875671  22.6847115  72.3991165  77.3539886  22.8172340  71.6389618
  75.9535294  22.3957214  72.0288467  63.4376144   9.0059252  29.1293850
  63.5022316   9.4106703  29.9943924  64.0830765   9.4720478  28.5980244
  33.6041718  57.3825226  24.2870903  33.3222198  57.9484062  23.5683994
  34.5560646  57.3373947  24.1971169  48.1933899  54.2351227  19.1728249
  47.4133301  54.4311714  18.6538792  48.7213478  53.6709404  18.6078587
  44.5384941  13.7419243   0.9309373  43.7530746  14.1978064   0.6284158
  45.2609787  14.1959372   0.4972034  47.0779266  44.0106125  78.6028976
  46.1952934  43.8523369  78.9377594  46.9411697  44.4766655  77.7780762
   6.0948734  26.7411518  81.5877228   6.1386590  26.2261772  82.3934021
   6.9911761  27.0477982  81.4504623  76.7264023  44.1383438  40.9113770
  77.4442368  44.4099045  41.4833908  76.4724121  43.2755394  41.2389297
  67.7538986   2.9783964  53.5553589  68.4969330   3.5506032  53.3637581
  67.5891647   2.5164173  52.7333679  51.7950859   0.4016547   1.2696569
  52.2877846   0.1389058   2.0471160  52.1584892   1.2549375   1.0328474
   2.8869855  52.6663094  69.6989059   2.1852708  52.4053535  69.1024780
   2.4564891  53.2266121  70.3446350  52.3942146  12.9573011  24.7282658
  53.3165970  13.2131147  24.7275467  52.3452225  12.2395201  25.3596306
  73.0142670  39.6811333  37.4656296  72.6076431  40.0005646  36.6601143
  73.9412842  39.5889091  37.2457161  38.9891586   2.8359625  56.5845528
  38.0810013   2.8598480  56.8860664  39.5053520   2.7484596  57.3858757
  46.0897255  45.2112885  31.3199520  46.8721199  45.6873932  31.0417042
  46.4239578  44.4993935  31.8655930  86.3596573  39.3530083  58.1900826
  86.5797348  40.2584343  58.4091797  87.0425797  39.0823021  57.5764275
  56.5234070  40.8170395  76.2570190  56.3123055  41.0077744  75.3430786
  57.4800453  40.7966652  76.2826538  37.0749779  65.9436111  15.8753834
  36.1836510  66.2906265  15.9120588  37.2330666  65.7874069  14.9443407
  57.2369614  50.4423828  74.9638290  57.5060883  50.0213318  74.1474228
  57.6113777  49.8921928  75.6518173  84.2338181   9.8300095  19.8907681
  84.8484650  10.5344238  20.0962830  83.3737106  10.1937523  20.1008644
   9.4001217  19.9446259  57.6978874   8.8400402  19.2708454  58.0833206
   8.7931204  20.5314579  57.2468758  24.7603664  48.3194008   7.9746675
  24.5899029  47.3786049   8.0202274  24.8575630  48.5002022   7.0397367
  11.1446457  14.6310787  81.5015488  11.8579493  14.0375023  81.2668228
  11.5840635  15.4277172  81.7990570   0.2201577  27.4068890  52.4543304
   0.2212262  26.4883022  52.1851997   0.5843533  27.8767033  51.7040863
  58.5837631  44.9717331  65.8029633  59.2581139  45.4826202  65.3552094
  57.7738724  45.4587631  65.6509323  77.2662964  68.4978333  45.1017036
  76.7583618  67.6867905  45.0805054  76.9699097  68.9454193  45.8941956
  84.5720596  37.3250465  57.2953606  84.8775711  36.7275658  57.9779396
  85.1786346  38.0644493  57.3352203  77.3521576  68.5510635  39.2092896
  77.9252930  68.3520889  39.9496689  77.1300201  69.4755173  39.3200378
  17.3260994  44.1458397  85.1334076  17.1067829  44.8272858  84.4979858
  16.5983295  44.1548843  85.7550964  68.5089340   2.3314531  70.7649689
  67.7270432   1.8241475  70.9829636  68.3165894   2.7114658  69.9077454
  53.5447311  62.2219009  47.1743431  53.2628555  61.6079826  46.4961929
  54.5007896  62.1807327  47.1522903  65.9428864  54.6288795   5.1523280
  65.8688431  55.1783943   4.3720803  65.8281097  55.2351952   5.8840656
  78.3777618  69.2664490  87.8395767  79.0382767  68.5745163  87.8052292
  78.5954742  69.8420029  87.1063766  23.8853016   8.3017731  77.0129929
  23.7529011   8.9636974  76.3343506  23.0166912   7.9244809  77.1522827
   2.7149560  52.6316948  26.6739674   2.4317732  53.2264099  25.9794521
   2.8110926  53.1916199  27.4443398  33.5383301  32.0600624  65.0899124
  33.5756645  31.1433258  65.3627319  32.9570808  32.4759598  65.7266388
  38.7583580  41.8038063  76.2749252  38.7876244  41.1898422  75.5411453
  39.6317558  41.7544708  76.6634750  71.5820770  36.9370232  11.2741842
  72.2606735  36.4075813  10.8553391  71.6641388  36.7374725  12.2067480
  67.9810715  28.6881256  85.6969376  68.3640137  27.9460087  85.2291336
  68.3003998  29.4582691  85.2266846  79.9929962  61.9380875  71.7928314
  79.2378311  62.5181122  71.8904877  80.3903198  62.1999626  70.9623032
  35.2604828  40.9815674  65.1295547  35.1965103  40.5486946  65.9808884
  35.3041344  40.2633171  64.4983368  45.2808838  41.6804581  87.8132019
  44.3765831  41.9764137  87.9175186  45.6197815  41.6263809  88.7067719
  73.8882751  53.2209282  69.2509232  73.5763168  53.4021187  70.1375351
  74.0788803  54.0838203  68.8830643  52.7453613  54.4084969  50.4570312
  53.0354614  55.3132896  50.3411751  51.9177666  54.3592033  49.9786110
  76.4677353  52.1546364  17.0335922  75.6092377  51.7658310  17.2010365
  77.0793762  51.4210777  17.0970230  28.5717773  28.1461449  85.1232605
  28.0971718  27.3286514  84.9726410  28.1199265  28.5526714  85.8627167
   7.1373429  23.7555351   8.2384720   8.0873671  23.7619896   8.3552780
   6.8567204  24.6295204   8.5098209  35.8619156  67.8286438  20.9690819
  34.9670181  67.5770874  21.1973572  36.3413887  67.0009995  20.9323692
  85.3685226  30.2611008  81.0339355  84.4776077  29.9112949  81.0223236
  85.9024582  29.5451736  81.3783112  61.7723045  65.7030258  12.0257664
  61.6249352  65.0483475  11.3431902  61.4307747  66.5167160  11.6549492
  64.7267761  48.6845016  83.2712097  64.3837738  48.0120850  83.8597946
  65.6119308  48.3882751  83.0591049  58.7441139  65.7723389  77.6934586
  57.9069977  66.1828079  77.4767075  58.7639961  65.7596664  78.6503677
  64.3855667  22.9544010   7.3677783  65.0033112  23.6741600   7.2390609
  64.7558899  22.4472313   8.0901842  53.4806786  24.1404686  81.7293625
  52.7996826  23.6191330  81.3042908  53.5828667  24.9068546  81.1650543
  17.9953289  38.4674644  73.7256775  17.1186581  38.5283890  73.3462448
  18.1523399  37.5275803  73.8162155  83.2752151  23.7300053  76.1515503
  82.4193115  23.3022900  76.1784286  83.6737747  23.4174156  75.3393478
   3.3414330   0.3985589  14.3399639   2.8120131   0.4783387  13.5465021
   3.6143358  -0.5187973  14.3545761  37.5646324  57.2775879  86.5437775
  37.4408379  56.4076157  86.1642303  38.4591026  57.5188522  86.3030472
  71.5597076  49.3648415   0.1986279  71.0727844  48.8951645   0.8757806
  71.5294189  50.2811317   0.4738204   2.7777164  22.0005474  72.2209854
   2.6429043  21.0556755  72.1483688   2.3802595  22.3608208  71.4282303
  77.8090057  22.4856091  17.3262672  78.3019791  21.6720028  17.4323406
  78.4574051  23.1205826  17.0219231  64.7051773  48.4913177  40.6789703
  64.8890305  49.2467384  41.2373352  65.0054855  48.7571564  39.8098450
  34.7886734  58.3858032  84.4805908  35.5784378  58.4364662  85.0190506
  35.1124649  58.2168083  83.5958176  21.4146061  26.4230213  78.0762100
  21.0036716  27.2364082  78.3690643  21.1511002  25.7733765  78.7279434
   6.7166176  38.7837601  54.3812828   5.8962183  38.7701035  54.8742218
   7.3433814  38.3325729  54.9468155  62.6128693  56.5156555  85.0601501
  62.3658524  56.5982018  85.9812317  62.1000710  57.1891937  84.6133652
  61.2408447  39.8823013  34.3738747  60.3381081  40.1727715  34.5039635
  61.2468872  38.9751015  34.6791344  75.3263016  10.5076847  78.4120636
  74.6263733  10.7611256  79.0138092  75.3036804  11.1732082  77.7244568
   4.8146281  31.1279697   4.5070763   5.7289076  30.8562508   4.5876651
   4.8369555  32.0788155   4.6148915  54.6956253  35.1075706  12.6714077
  54.6331940  36.0588837  12.7570953  53.7946243  34.7988472  12.7668924
  24.1602230  27.2893906  79.8821945  23.4457436  27.6580620  79.3627396
  24.9407845  27.7531452  79.5790634  28.6748772  46.1158257  85.3969498
  29.6146240  46.1820564  85.2274704  28.4083347  45.3089180  84.9563980
  16.0648613  32.1093559  69.4259949  16.2605343  33.0442963  69.4878693
  16.8967209  31.6772251  69.6196594  54.1125526  40.4535561  78.7562790
  53.1929245  40.6944008  78.6444168  54.5906410  41.0690689  78.2005692
   6.5106120  43.2781410  49.1626701   6.0653868  44.0143051  48.7430611
   7.2270923  43.0602303  48.5665131  14.2730198  53.8459549  37.0551567
  13.5502815  53.5792732  37.6232796  14.7719240  54.4718590  37.5801010
  63.1857338  10.7144117   1.8969384  62.2621384  10.6121941   2.1266160
  63.1942749  11.4151945   1.2449702  84.9568253  48.5355606  75.2679291
  85.1314697  49.3568192  75.7275696  84.0131149  48.5465088  75.1081543
  60.1355629  20.4495621  77.8409195  59.4125977  19.9374866  78.2033234
  59.8324280  20.7096138  76.9710312  44.3747025  23.4791279  11.4298487
  45.2317963  23.8193016  11.6865587  44.5520935  22.9397697  10.6592274
   4.3105707  22.3722382  67.5101013   4.9350052  21.9024277  68.0629044
   3.9335852  21.6963596  66.9468079  19.2071743  56.2993164   4.3064218
  19.2056599  56.9712296   4.9881573  19.8504181  55.6564789   4.6051331
  49.6424522  66.0851440  84.5241241  50.0763092  65.2816238  84.2371521
  48.7435265  65.8170547  84.7146225  86.6421432  46.2414017  88.1039276
  86.2216873  46.5763969  87.3119507  86.6043396  46.9711838  88.7221680
  69.2442856  36.6124763  24.3400726  69.5037766  37.5195312  24.5017738
  69.5562286  36.1335945  25.1079216  33.8822098  26.4737873  17.9106121
  34.1530647  25.8047485  17.2819195  33.8859100  27.2891388  17.4091930
  26.2131939  62.6787758  17.7728081  27.0393372  62.1971436  17.8146210
  25.7281971  62.3899765  18.5458584  58.8258286  23.3698540  62.4793930
  58.6349525  24.2271557  62.8599625  59.0582962  23.5578480  61.5700798
  73.7502060  42.4912834  61.3996391  73.5933380  42.0228043  62.2194901
  74.0981750  41.8256836  60.8062401   5.9041514  52.2007942  76.8344574
   5.7638707  51.4048691  76.3215714   5.4825888  52.0215454  77.6749268
  78.6170654  26.1230545  25.7462540  77.8423004  26.6265259  25.4962921
  79.1185532  26.7168140  26.3049946   2.8410239  23.7994766  16.8370857
   2.7879896  23.8691044  17.7902756   2.6651614  22.8765144  16.6542015
  34.2328758  41.6597939   5.5637517  33.9371719  41.7492104   4.6577730
  33.6385117  42.2173653   6.0658274  58.0582733  68.0480194  72.4885712
  57.7559242  67.2421112  72.9072952  58.9287376  67.8321152  72.1540451
  30.3462105  17.3790989   0.9614831  29.9681759  18.2424107   0.7941034
  30.0492153  17.1544514   1.8432763  67.4069443  30.1825314  13.5110397
  67.0769348  31.0184669  13.1815939  66.7209702  29.5515461  13.2930260
  25.3531342  52.7219543  54.5650024  25.6441784  52.0544510  53.9437408
  25.1005707  53.4651566  54.0171890   9.5302401  32.3879967  57.0141792
   9.6254759  31.4460640  57.1553459   9.3643036  32.7453499  57.8865318
  73.6634674   6.2568116  12.2760077  74.5319366   6.6581531  12.3062258
  73.5551224   5.9887185  11.3635283   5.8095160  60.8036461  72.0797806
   5.2987638  61.6090240  71.9977570   6.4946828  61.0179787  72.7128983
  23.5799961  51.9135208  21.2612476  23.9302311  51.9347878  20.3706779
  23.8570347  52.7443695  21.6474724  27.6978703  29.8846397  18.9705925
  28.0875072  29.1192207  19.3931446  28.2698059  30.6114712  19.2172413
  74.2045212  44.9441299  60.4364014  74.3600922  45.4826126  61.2123299
  73.7289352  44.1814423  60.7655792  72.7230988  37.5897369  21.8620663
  72.4292374  36.7271194  22.1549225  71.9154358  38.0874100  21.7346821
  33.2259369  43.4337807   8.1427984  33.5264359  42.5846252   8.4666348
  34.0270805  43.8872948   7.8806396  12.6057634  58.1862946  64.0683365
  11.7114754  58.2326965  64.4064560  13.1287994  57.8920288  64.8140411
  81.3154144  43.1454620   5.1309204  82.2293091  43.3748398   5.2994742
  80.9069138  43.1374512   5.9965391  72.5918121  52.5192833  40.9032249
  71.7091904  52.4805336  41.2715950  73.1631241  52.6371117  41.6621361
  61.9631271  63.6007881  14.1077318  61.9983635  64.3173294  13.4740505
  62.6113472  63.8360405  14.7715845  44.8871231   7.5762410  87.2022476
  44.0243301   7.8551998  87.5088425  45.1230927   6.8499489  87.7793503
  46.4045486  11.6273708  64.8444138  46.9498787  11.8282156  64.0838165
  45.6210861  11.2188702  64.4762421   3.3188729   6.0834289  13.5958824
   4.0877633   6.3250380  14.1122780   3.1209924   6.8654842  13.0806494
  68.6703339  56.9790535  25.5577679  67.7239838  57.1184807  25.5926323
  69.0209427  57.8005371  25.2135773  86.3206558  49.7308464  64.4004440
  86.1596909  50.1156654  65.2619781  85.8188934  50.2779808  63.7962036
  65.2710190  51.7358856  14.8573885  64.8495789  52.4607162  15.3191671
  64.5938950  51.0616570  14.8012476  81.9405594  54.9244804   6.1194038
  82.3052216  55.3673058   6.8856692  81.0612564  54.6611137   6.3908658
  63.0496635  65.1010818  51.4312592  63.4609756  65.9297028  51.1854134
  62.7212639  64.7427597  50.6066475  69.8306046   4.5506763   9.9595213
  69.1041107   3.9988387   9.6698399  70.1096802   4.1632366  10.7891235
  51.5805893  33.2715187  80.8292465  51.8063622  32.8090973  80.0221329
  52.4194794  33.5817299  81.1702271  84.6164856  33.1134262  27.3411140
  84.8321609  32.6341820  26.5410862  83.6602707  33.0955391  27.3806133
  38.8386345  57.5433083   0.4414080  38.7474098  56.7220650  -0.0417831
  38.8077927  57.2840652   1.3623171  45.3731918  37.5554123  39.4492455
  44.6168671  37.7567253  40.0003166  44.9966698  37.3323402  38.5979500
  86.4404449  38.6047173  33.2730408  86.3049927  38.5292892  34.2176018
  85.5666122  38.7678947  32.9180489  28.8424282  46.8135948  22.5140572
  28.8097019  47.4836464  23.1968365  29.0979004  46.0144196  22.9748039
  30.9228306  14.1258850  74.6649857  31.1496964  13.4752159  75.3293610
  30.9384289  13.6410847  73.8397827  68.9960861  69.5335922  64.3497086
  68.0751648  69.7755508  64.2517624  69.0210342  69.0034943  65.1463318
  16.0700512  18.9143848  14.6665335  15.9271908  19.4813938  13.9086924
  16.6998501  19.3912258  15.2070961  60.2114868  10.9681635  53.4915848
  60.1176529  11.1067448  54.4340401  61.1556587  10.8927803  53.3534164
  24.3803749   3.0888109  69.4018784  23.7642879   3.1903737  68.6763763
  25.0506973   2.4941018  69.0653992   7.3820834  71.1978989   9.2494888
   8.1956730  71.2516174   8.7480717   7.6662850  71.1408310  10.1617413
  62.6592216  13.6539602   5.3831205  63.0787048  14.4812937   5.6193061
  61.7467346  13.8879852   5.2133241  44.7256126  30.6644306  67.3856888
  44.5757484  31.0318909  68.2567444  43.8736992  30.7194099  66.9527283
  28.9661331  42.8139038  32.8440208  28.5161476  43.5305443  32.3966179
  28.3977814  42.0550156  32.7125053  75.0481949  14.7295189  27.7625732
  75.7682419  14.5290060  28.3605404  74.9232254  15.6747961  27.8466282
  75.4777908   8.5704861   5.8859620  75.1504898   8.3782320   5.0072451
  75.5529175   7.7138119   6.3063140  16.6459618   5.0234461  15.3185892
  17.3280563   5.6538978  15.5499086  16.5801907   4.4506202  16.0826435
  41.2738342  58.8612137  54.6204224  41.5210915  59.6316223  55.1318588
  42.0019608  58.7336273  54.0123253  64.3534775  44.8264923  12.0159187
  63.7942467  45.4777489  11.5924139  65.2190552  45.2343636  12.0414982
  73.7887115  65.8175430  58.3269005  74.1531754  66.1650085  59.1409416
  73.3586121  65.0025253  58.5857124  39.9489861  56.5431023  49.4768829
  39.8962593  57.1002960  48.7003632  39.5207291  57.0512352  50.1658134
  33.1770210   1.9441870  21.9869137  32.2467117   1.7279806  22.0502472
  33.6278839   1.1288655  22.2064686  85.9008408  48.1820107  12.9009590
  86.2230835  48.6137619  13.6921492  86.4381027  48.5426178  12.1955891
  18.5927372  60.4869728  45.9601250  18.1814003  59.8979492  46.5926476
  19.4347763  60.0766182  45.7631226  57.9047241  53.3044128  70.3838959
  57.1285362  52.8369904  70.6925659  58.6302223  52.7044945  70.5570450
  22.9412136  49.1806908  76.1121368  22.8028660  50.1276741  76.0944366
  23.5810432  49.0191116  75.4187851  64.0024338   5.6544309  87.3581696
  64.2980042   5.2228928  88.1598206  63.4264145   6.3558722  87.6621552
   9.1906662  43.5231018  57.2430840   9.6653681  44.0316963  56.5856476
   8.3221588  43.3914299  56.8628349  53.4759483  31.4205723  83.3331528
  54.0813293  30.7694302  83.6877823  52.6148643  31.1417274  83.6446228
  12.1904001   4.6908240  88.1311188  12.5529051   5.4957085  88.5012360
  11.2698317   4.7000680  88.3932266  18.8877926  11.7584209  81.6632843
  18.1653080  11.2221441  81.3367004  19.5550423  11.1254539  81.9285431
  61.9591675  48.1261711  88.6706085  61.6700287  48.9603920  89.0403442
  62.3072433  48.3540688  87.8085480  53.7431946  32.0395966  33.5030899
  53.4664612  31.7490635  32.6340446  53.1181488  31.6316013  34.1023331
  35.8967743  19.6586914   9.8670473  35.9260559  19.9604282   8.9591217
  34.9887810  19.3863525   9.9997644  72.6880569  30.3813610  74.7335587
  73.4082642  29.7629166  74.8562698  72.8724060  31.0892487  75.3509216
  33.3774147  45.1323929  51.5620575  32.4418068  45.3223801  51.6311493
  33.6827354  45.6895981  50.8461456   0.1176292  67.8198547  38.7529793
   0.1821612  68.5670700  39.3477364   0.3536980  68.1748199  37.8959465
  66.1657562  59.2497826  18.4101753  65.3867493  59.8051300  18.3792171
  65.9007950  58.4408722  17.9723549  44.9015083  45.3068390  73.0612106
  45.8300514  45.1122017  73.1883240  44.8141556  45.4528389  72.1192551
  54.8369293  29.2000275  27.5114670  53.9724159  28.8340359  27.6982651
  54.9666672  29.0426559  26.5762482  42.8611984  27.5905113  27.4011917
  42.2245064  28.1588783  26.9678135  42.5955887  26.7037811  27.1574879
  85.7632828  34.1379318  51.4549561  84.8435135  34.1804733  51.1933327
  86.2441711  34.0721207  50.6299438  36.4140167   3.6549551  13.5221806
  35.6796913   3.9912648  14.0358858  36.0671883   2.8735344  13.0916882
  16.0095749  33.5205688  21.3204327  16.7286072  33.2175674  20.7659836
  15.9386263  34.4560852  21.1306648   7.0578480  40.9797897  52.7438507
   6.9032278  40.3618507  53.4583282   7.9976444  41.1577950  52.7803078
   8.6156321  68.0012970  23.8259640   9.4681349  67.8244705  23.4282150
   8.0421448  67.3192825  23.4763966  68.3428345  40.3467751  70.4770050
  67.5142365  40.8253784  70.5012207  68.3616409  39.9442520  69.6087570
  54.5634727  63.8296814  71.8081512  55.4084396  63.9552078  72.2400131
  54.7818146  63.7158661  70.8831635  76.9463959  36.5514030  30.0078430
  77.1448441  37.4220009  30.3526688  76.8984146  35.9919586  30.7830544
  23.1530075  66.2930222  74.2864838  22.6519871  66.6777039  75.0056686
  22.5275536  66.2323532  73.5644302  82.3418121  60.9815559  15.2415171
  82.8196411  61.8089943  15.1844606  82.2248459  60.7092705  14.3313465
  58.8902016  49.6424294  73.0304184  58.5014076  49.7502823  72.1624069
  59.2970009  48.7763557  73.0047150  83.2448425  20.9199963  69.6117630
  83.4804153  21.4805870  70.3510056  83.0695343  20.0653648  70.0056000
  26.7124615  38.7280235  62.1827202  26.4879971  37.9211884  62.6462555
  26.3131371  39.4234962  62.7052994  24.0790615  24.6447182  78.1450653
  23.4958038  25.3927174  78.0164566  24.9587803  25.0217037  78.1306305
  25.9007053  41.5705681  15.9017086  26.4285583  40.8391991  16.2221718
  26.5274448  42.1418724  15.4578123  73.6381760   8.0343885   8.4257240
  73.1185074   8.7787704   8.7291565  74.5421143   8.2743883   8.6295166
  61.6381607  31.6496601  34.5992622  60.8635902  31.6652031  34.0370979
  61.3048515  31.8578014  35.4720802  78.5424423  57.4436874  28.2931423
  78.8944168  56.5667305  28.4457664  78.8851318  57.9685555  29.0165424
  68.7800293  42.9029045  44.4464912  69.0673752  42.6987419  45.3364258
  68.2760696  43.7116318  44.5371323  25.1715603   6.6505141  62.6038933
  25.1680737   7.5986781  62.7350616  25.9806080   6.3540273  63.0207481
  51.3906097  30.3139877  47.6536980  51.6071358  30.0671215  46.7545815
  52.2196922  30.6146622  48.0257874  10.9405346  59.2620926  38.9441872
  11.8042049  58.9457245  39.2091751  10.5354595  59.5623932  39.7578011
  21.5594616  17.4385319   6.6545353  22.3867435  17.8981647   6.7979703
  21.7555981  16.8009396   5.9680667  77.1070480  67.0605774  73.6740265
  77.0204315  66.9075623  72.7331161  76.4722900  66.4654160  74.0728989
  16.3807068  66.2294617  77.1194763  16.3384666  65.3142395  76.8423233
  16.4696045  66.1875153  78.0716171  80.4791870   7.8987184  56.6049995
  81.3400116   8.3136969  56.6598091  80.3785324   7.4445596  57.4415627
  23.7183475  30.3968849  75.4566956  24.5863934  30.4327583  75.0549011
  23.4776688  31.3138103  75.5891800  18.9745197  25.7539482  31.7214470
  19.9073601  25.6466236  31.9072475  18.5366077  25.4774876  32.5264511
  49.1340332   1.3686742  29.0407352  48.7749863   1.1746742  29.9065762
  48.6774025   0.7677864  28.4519615   6.6944418  47.6698532   7.0003481
   7.1074886  47.4377937   6.1686196   6.3615990  48.5567856   6.8632369
  55.3858032  65.9615021  20.9381695  54.4735527  66.2484131  20.9795437
  55.3426094  65.0105820  21.0387192  43.0620499   2.8145907  48.0901260
  42.7132339   1.9768105  48.3945656  42.4467964   3.0987620  47.4141502
  52.0123634  32.8051834  71.4414825  52.7449837  32.1999855  71.3264389
  52.4159698  33.6731300  71.4386063  74.2828674   7.8539376  85.4333038
  74.0604858   7.3791709  84.6324463  73.6677780   7.5218635  86.0872345
  19.7944450  30.0977058   9.5238543  19.6350498  30.1603146  10.4656096
  20.2488213  29.2625694   9.4128399  72.1548462  56.2458954  28.1435719
  72.3074188  55.3163528  27.9735603  72.7298431  56.4521294  28.8805141
  43.2652664  10.1380692  18.2977962  42.3570328  10.4380407  18.3347092
  43.2073631   9.2378931  17.9775429  77.3813171  40.9390030   6.1599002
  77.8481522  41.3688660   5.4433017  76.9088135  41.6474686   6.5969944
  36.9186859  37.2999954  11.4679966  37.0141373  38.1980515  11.7852001
  37.4404373  36.7749062  12.0748615  19.2839355  49.9132500  15.7522945
  20.0532894  49.8102455  16.3123989  18.5500126  49.9792442  16.3632221
  31.1062527  47.6298027  42.9454613  31.8832035  47.2803802  43.3819046
  30.5060711  47.8436394  43.6598053  48.8583069  38.0767136  20.4759083
  48.9929962  39.0204697  20.3898029  48.2477150  37.8567390  19.7723331
  18.4218388  58.1924286  79.6095047  19.3137760  57.8836861  79.4502640
  18.0890217  57.6178894  80.2989731  38.0841064   3.1124325  16.9681168
  37.8843002   2.5165188  17.6900558  37.2624397   3.5757751  16.8056068
  19.4880810  58.4758224  72.2363892  18.8833065  57.8365402  72.6129532
  20.1206341  58.6470146  72.9341049  29.2919445  14.5116329  12.2943048
  28.7112675  14.3727636  11.5461321  29.3632908  15.4632645  12.3687248
  58.1237755  43.2332115  76.9393845  58.6219597  42.4792519  76.6238022
  58.1222229  43.1376152  77.8917999  41.3684502   2.5447102  58.6351357
  41.7928238   2.0723369  57.9188919  40.9629326   1.8597217  59.1667137
  46.0515518  69.7558746  41.1464500  46.8079872  70.3292465  41.0228424
  46.3663406  69.0668869  41.7316360  73.0978622   4.8285456  44.1891365
  73.0660172   4.2821245  44.9744034  72.2024612   4.8144474  43.8510666
  16.8358173   3.1041768  76.7027283  15.9695454   3.1189559  77.1096497
  17.3366489   2.4802332  77.2281799  43.3387833   3.6128983  12.7050371
  43.7123642   3.0928848  13.4165535  42.4669533   3.2417746  12.5693388
  38.7778778  62.4313736  76.7996902  38.5325127  63.0376740  77.4985657
  39.7242088  62.5420914  76.7078476  74.1906052  66.8987350  60.9282417
  74.0082474  67.7474823  61.3314819  73.8001862  66.2608871  61.5256996
  20.8651009  26.0651073  14.3300352  21.2601490  26.9346905  14.3932390
  20.2889004  26.0078316  15.0922337  35.4719734  43.3603516  74.0942230
  34.6771584  43.6353531  73.6371994  35.8363800  42.6665230  73.5446396
  42.0857544  16.9138126   8.6290245  41.9576073  16.1328335   8.0906162
  43.0327530  16.9617500   8.7599049  65.8020706  29.0218391  55.2515945
  66.0107040  28.8448505  54.3343277  65.4404068  29.9080772  55.2482719
   9.9488153   3.3254910  85.6962585  10.5980129   3.7763608  85.1563568
   9.3965120   4.0265541  86.0422363  61.0349312  50.6601639  16.9126396
  60.6890030  49.8160515  17.2025318  60.4878006  50.8990250  16.1644230
  80.6940536  62.2786598  77.5187683  81.1469727  62.8620987  76.9099197
  81.2316513  61.4868889  77.5365143  53.8401566  52.6162300  80.5333862
  54.6787910  52.4579315  80.0999527  54.0491562  52.6141357  81.4674911
  41.7149544  65.5571136   3.2658360  41.7645340  65.8741684   2.3640323
  42.0004425  64.6448898   3.2150385  50.8675194  28.8021431   1.8747382
  50.9434166  28.4601574   2.7655337  51.7213287  29.1961613   1.6958916
  78.4965210  27.4854469  66.0248947  79.4159546  27.7228756  66.1453476
  78.2556152  27.0405350  66.8374481  74.2075577  19.3128834  22.6167355
  73.6375580  19.4001064  23.3807545  73.6194763  19.4061699  21.8672733
  23.4854889   0.4630881  60.6265640  24.3627987   0.1370775  60.8272476
  23.6100254   1.3968004  60.4565506  25.4696522  60.8374863  57.2880974
  25.1325302  60.3261642  58.0237160  24.9012775  60.6044846  56.5540047
   2.2067716  22.0795689  13.6096325   1.8901410  21.8230228  14.4757509
   2.9647658  21.5158443  13.4550619  55.0515289  50.4783897  22.7265110
  55.3043861  51.3024178  22.3102493  55.4556427  49.8017540  22.1832924
  70.0564423  42.1268463   0.6009858  70.6949997  42.8392525   0.5700547
  70.2147369  41.6996994   1.4428405  39.2094116  26.9790611   5.6625109
  38.5994453  27.6395378   5.9910550  39.7367477  26.7398205   6.4246879
   4.0164146  48.8600578  23.4900742   3.3556762  49.4099770  23.9110832
   4.7467518  49.4538460  23.3161316  66.0098801  66.3334579  27.5098743
  66.6471252  65.7415543  27.1101341  65.8273926  65.9461517  28.3659840
  74.3600998  24.0992126  23.4994354  73.5974274  23.6067314  23.1960907
  75.0480804  23.4405575  23.5948162  72.4891129  29.5606670  53.0817680
  71.9664993  29.1362305  52.4013519  73.2371750  29.9308910  52.6131935
  53.8545265  24.8070774  15.9821091  53.6284904  24.8860664  16.9088783
  53.5525360  25.6269703  15.5911999   1.3489317  51.3693428  16.6994457
   1.5988448  51.3274231  17.6224957   2.1133175  51.0367203  16.2290115
  80.8785248  15.0577126  41.4732285  81.1611252  14.4591455  42.1646690
  81.4819107  15.7981329  41.5360222  10.3191652  42.9792328  73.5742722
  10.5141211  42.0475464  73.6752014   9.4686794  42.9998131  73.1355438
  66.3032608  29.2032127  58.6998901  65.4129486  29.1947536  58.3484650
  66.2343140  29.7003078  59.5149803  17.3651543   8.2408829  88.4211807
  18.2604008   8.2195787  88.7592773  17.0237694   9.0903711  88.7005692
  22.7733479  21.8747692  23.8959198  22.3309116  22.4022999  23.2309437
  23.5294590  21.5023880  23.4422016  37.9661293  45.1404762   9.3102808
  38.2282600  44.9135323  10.2024794  37.8464622  44.2969704   8.8739214
  51.2850952  63.3620377  78.4949570  51.6170807  63.9264336  77.7967606
  52.0585823  63.1442909  79.0150909   4.7387691   5.1429052  59.6331482
   5.0957284   5.0308342  60.5142021   3.8154309   4.9048066  59.7167435
  40.2211571  43.8075142  20.4197693  39.8518562  44.2350502  19.6470718
  40.5325279  44.5287247  20.9667034  78.3056946  15.6884508  16.3840103
  78.7492371  14.8791475  16.6380348  78.9555740  16.3750114  16.5340881
  12.8769283  36.9934349  88.0610123  12.9608517  37.7734489  87.5125885
  11.9910231  36.6741524  87.8893661  41.1883354  68.6461792  10.7078934
  41.2644424  69.3964462  11.2974129  40.2578354  68.6089554  10.4865017
  68.1478958  16.8123703  18.9876156  68.1962585  17.6176510  19.5027981
  67.2173538  16.5881538  18.9804420  24.7311707  59.6363983  32.6678352
  24.3012886  59.6789932  31.8136597  24.2493439  58.9608574  33.1450386
  80.4630356  22.0927849  19.5243835  80.1700363  22.7262878  20.1794109
  80.9834900  22.6084881  18.9084225  30.8407040  49.0507622  84.1795425
  31.4973526  49.2195015  84.8552399  31.3505363  48.8738747  83.3889618
  49.5317192  39.5107079   4.2837834  49.2173729  40.3536301   4.6107421
  49.2113342  38.8721428   4.9208231  70.7960739  22.5885963  82.8285675
  70.7892075  23.4181156  83.3061523  70.1845322  22.7238903  82.1047363
  15.0398512  34.7166939   7.8342695  14.8894806  33.9023590   7.3541908
  15.3528175  34.4338837   8.6935139  18.2629242  39.5176353  41.8482513
  17.6341171  38.7966805  41.8157310  18.9769726  39.2387047  41.2750473
  81.9543076  65.6779099   9.3352528  82.5676422  65.0763855   9.7574100
  81.4740067  66.0780411  10.0601263  77.7937622  50.5420303  14.6709137
  77.9222946  51.4860268  14.5782957  78.2758179  50.1614952  13.9367113
  28.0705624  71.3201752  13.6506052  27.5562916  70.5139694  13.6928959
  28.8755226  71.1160355  14.1266289  82.7984009  57.6018677  34.3219872
  83.2604523  58.4051361  34.5617752  82.6918182  57.6611786  33.3725891
  71.4644012   6.2791672  47.8981934  72.3644791   6.5798135  47.7728882
  71.4343948   5.4259963  47.4652596  59.2715797  23.9492493  76.4602280
  58.3919525  23.5719967  76.4732132  59.4875069  24.0852337  77.3827896
  62.2778244  18.6231232   6.7053194  62.9764938  19.2154312   6.9832840
  62.7327728  17.9086304   6.2595053  69.6742020  59.0848808  82.4355698
  69.5718994  58.1351013  82.3749008  69.1403961  59.4294891  81.7196579
  32.7203674  23.3066006   5.3408084  33.4912567  23.8016090   5.6181722
  32.6571884  23.4692001   4.3996382  47.2397728  10.5842161  80.3195877
  47.6010208   9.7743044  79.9593430  46.8261108  11.0153942  79.5717926
  73.3003387  35.3558655  20.4879303  73.3750992  36.2993813  20.6308174
  72.4439697  35.2432098  20.0754108  77.0606003  70.6021194  71.5568619
  77.0150070  71.4149475  71.0534134  77.1134872  69.9129105  70.8947220
  70.9142151  19.2891960   4.1242018  70.9963989  18.6878109   4.8643470
  71.6329651  19.0489788   3.5394614  70.6385345   8.8656740  23.3048553
  70.9650497   9.6163969  22.8088341  69.8012161   9.1608467  23.6626186
   6.6679010  58.1415825  36.5384979   6.7459354  58.0328941  37.4863014
   5.9575138  57.5512161  36.2873993  16.7317410  64.3101196  33.6356239
  16.6265316  64.2456512  32.6864090  17.5501385  63.8483162  33.8178062
  26.5326939  35.9879456  63.1845970  27.2402363  35.3745422  63.3829727
  26.3012638  36.3687210  64.0317535  60.3552742  13.1795244  35.8722420
  60.6198006  12.2681255  35.7473068  60.2443962  13.2691402  36.8187675
  38.7153473  30.0081387  45.1326408  39.1370239  30.7093792  44.6359711
  38.1619225  29.5606422  44.4925652  84.5218124   7.3809614  44.7493401
  83.6679611   7.6615682  44.4200554  85.0295105   7.1848106  43.9619408
  62.6578255  21.3071728  33.5574913  62.8473015  21.9376068  32.8625946
  63.4611511  20.7933197  33.6402702  30.9837666  65.0707245  57.5555840
  31.6689377  64.4024658  57.5411644  31.4561272  65.8957062  57.6674385
  66.5590363  67.7244339   6.3195677  67.3241577  68.2995605   6.3260856
  65.8164978  68.3150711   6.1930265  54.0510445  65.6368637  45.4437637
  53.7646866  66.3211212  46.0487633  53.4711418  64.8975677  45.6264915
  61.6999779  24.0802441  25.4469948  62.4153366  24.7084751  25.3479137
  61.6421890  23.6468239  24.5955029  37.4156494  61.1613960   5.4471154
  37.9842567  60.3913841   5.4478483  37.2460327  61.3329964   4.5208249
  13.7907076  20.2532101   2.6443386  13.6204977  19.3672199   2.9641569
  14.3648434  20.1288719   1.8886006  36.5670967  11.5678415   5.8629699
  36.7313576  11.0257921   6.6346121  35.7124748  11.2777834   5.5440331
   5.9293718  14.5746126   8.6038847   5.7344551  15.4403191   8.9627581
   5.3416672  13.9827757   9.0735283  17.8222542  45.0195541  25.0430584
  17.8757572  45.4880295  25.8760643  18.4898109  45.4305611  24.4938126
  64.7025146  31.4978809  65.8178635  65.4194412  31.9613152  65.3848724
  65.1257095  30.7624760  66.2609406  46.0311165  29.3759003   7.0910454
  46.8082619  29.4028473   7.6492152  45.4092522  28.8302536   7.5724821
  45.2235680  18.7815838  47.9932060  45.5612411  17.9381771  47.6917534
  44.5447731  19.0087814  47.3577118  29.1995449  64.7650223  66.5270309
  29.0847435  64.6162949  67.4656143  29.0090656  65.6953506  66.4068909
  16.3560448  45.6442909  88.5342331  16.2851601  44.9234085  89.1599579
  15.4726477  45.7403183  88.1783981  15.8549290  48.3929329   6.9669080
  15.2829046  48.0075531   7.6306124  16.0104733  49.2860489   7.2741270
  78.1410370  38.5684586  24.6830845  77.2023926  38.4811935  24.5170784
  78.3969498  39.3560715  24.2030811  32.3706207  46.8330688  14.1508656
  32.1655540  47.7616692  14.0418501  31.7116318  46.5129776  14.7669048
   3.4270732  43.3324089  83.5646133   3.6256351  44.0750465  84.1349564
   4.0936179  43.3722000  82.8787766  48.4901962  12.8913069   5.7668104
  49.1789284  13.4622278   5.4263268  47.6960182  13.4241705   5.7271843
  24.8158283  65.9038849  56.7412491  24.7639523  65.7363586  55.8002548
  25.7129631  66.2067184  56.8815117   7.4068089  46.9997978  19.8097458
   6.9518023  47.1090050  20.6447754   8.1628962  46.4513359  20.0189114
  19.3097801  52.4303703  39.8867531  18.5693626  52.1726303  39.3375854
  19.8680878  52.9494286  39.3078690  51.3666306   8.2708998  25.6045589
  51.1940422   7.3739624  25.8908272  50.5323524   8.5722170  25.2448082
  31.4743290  47.5122910  57.8442612  31.6260090  47.6953163  56.9170456
  31.4422264  46.5571251  57.8977242  58.9623566   1.3675455  80.5328903
  58.0623817   1.0665954  80.6582184  59.3294106   0.7630479  79.8878403
   0.3878345  12.2161207  44.1684074   0.0128681  12.8545361  43.5617332
  -0.0484650  11.3927393  43.9495087  69.5231705   7.4382911  61.6742744
  69.4225082   6.6971803  61.0769043  68.8181763   7.3289995  62.3124504
  73.6108780   3.1387327  59.2727623  73.7249222   3.4861336  58.3881493
  73.8445435   3.8671577  59.8481140  53.6798058  26.5304546  80.0295639
  53.0214920  27.1656036  79.7477112  54.5044136  26.8697357  79.6815033
  13.4322100  28.4666958  21.7739105  13.0846615  27.8871288  22.4518070
  12.8366928  29.2160835  21.7710915   6.7273145  66.6979752  43.4294395
   7.4484162  67.3167648  43.5449562   6.4509668  66.8190994  42.5210381
  75.2208557  26.4530849  65.8634262  75.7115250  27.1700459  65.4616241
  75.2040558  25.7694550  65.1936493  47.4103279   2.5289176  85.6305847
  47.6039124   3.3778841  85.2330780  46.9807091   2.0311334  84.9349747
  56.1689796  22.4407673  88.4608154  56.4991722  22.6785183  87.5943985
  56.8592758  22.7161255  89.0640564  77.0964890   6.4640923  21.1448345
  76.6857071   6.3857670  20.2838135  78.0276947   6.5803533  20.9562569
  40.5684052  38.8420334  62.2228584  39.9047585  38.1648560  62.0915756
  40.2041931  39.6195526  61.7997169  66.4626541  67.8969727  61.7205696
  66.0227280  67.6522369  60.9064445  66.8984680  67.0946350  62.0078697
  64.8971786  59.6049194   4.2639909  64.4989853  59.2527733   3.4679589
  65.3295135  60.4101486   3.9795175   7.5716095  28.6445808  26.4587536
   7.2469425  29.2940712  27.0824394   7.2285957  28.9324970  25.6127758
  79.8525009  54.6717224  88.4959793  80.3931274  54.0667038  87.9881287
  80.0620499  54.4720459  89.4083633   2.5009642  49.6073837  78.2449951
   1.9983857  50.3723488  77.9648590   3.1574945  49.4877281  77.5587845
   2.1439309  19.6143188  56.3312607   1.9359781  20.1872482  55.5931969
   2.7111425  20.1430283  56.8924828  75.8775711  15.5204620  36.9039841
  76.7452774  15.7033949  37.2643394  75.8295670  14.5651312  36.8683357
  40.5989571  52.1945992   0.8035138  39.8118896  52.1934471   1.3482690
  41.3143692  52.0232468   1.4159319   4.4002147  18.3329868  86.5299301
   4.0514569  17.4840355  86.2581177   5.2283106  18.4143372  86.0567780
   3.0630727  38.5583839  83.9669952   2.1899920  38.4757385  83.5834198
   3.0573330  39.4155083  84.3930664  51.7077370  71.0232086  33.6232834
  52.0090256  71.2602615  32.7462082  51.6861076  71.8522263  34.1013031
  66.5610657  19.9812469   1.8878168  67.1890717  19.4500618   2.3773909
  67.0991745  20.6269398   1.4298333  71.8052292   1.5721592  27.3564014
  71.3602600   1.9208167  26.5839520  72.6686249   1.9851676  27.3422623
  60.7603798  67.9910355  68.5673904  61.3802986  68.2429123  67.8829269
  61.2625999  67.4173584  69.1460953  14.6246395  47.1104813   4.8571172
  14.8352222  47.4930649   4.0053439  15.1808167  47.5833931   5.4761906
   5.6393685  53.7582283  21.3526039   4.9620090  54.1820450  21.8796673
   6.0980263  53.1856804  21.9674625  10.9801779  47.6212616   1.5256182
  11.5127945  47.5231056   2.3148689  11.1593895  48.5121880   1.2250026
  52.6793327  25.1363697  49.1850586  52.0712814  25.3416729  48.4748764
  52.7064133  24.1798325  49.2081680  35.8398590   0.5141412  80.1735840
  35.8995171  -0.2127135  79.5536194  36.5376358   1.1132165  79.9081573
  40.8170395  57.3059425  22.1600056  40.7523689  58.2067451  22.4771824
  40.7151031  56.7677307  22.9449711  60.9909630   1.5008336  12.0879393
  60.6183701   2.1806402  12.6494265  60.2721825   0.8840779  11.9493790
  35.6763573  70.7950821  52.4449463  35.5827103  70.0941696  53.0900688
  34.7915306  70.9270554  52.1045113  38.4654045  70.6290817  24.9601669
  38.1550560  69.7600098  24.7059364  39.3282471  70.7039871  24.5525856
   0.9503393  14.4275732   0.7080426   0.2320208  14.7753801   0.1795719
   1.7255985  14.5311127   0.1562414  36.8674088  43.9929085  49.2053413
  37.4558029  43.7692451  48.4842300  37.2331009  44.7979469  49.5719643
  54.8593407  61.1645355   8.4953070  54.8098183  60.7474518   9.3554354
  54.7675743  62.0998383   8.6770182  10.5524330   0.0986940  17.8909836
  11.4752693  -0.1065761  18.0408764  10.3728113   0.8349836  18.4756603
  17.6022530   0.3736705  70.2811508  16.6925869   0.6715021  70.2872009
  18.0921574   1.1077520  69.9105453  22.8093395  51.0635300   8.6212473
  23.0089226  51.3360291   7.7256227  22.6764736  50.1175880   8.5598116
  44.2736969  46.6433907  56.8747025  44.2839584  47.4124413  57.4445190
  44.9934578  46.7903633  56.2610435  86.7536316  52.5562325  65.9874420
  86.1861343  53.3265877  66.0144730  86.2019653  51.8411026  66.3044281
  43.2541733  58.1824265  14.9804134  43.7398300  57.6759033  15.6314163
  42.3433800  58.1352997  15.2710400  83.9157181   6.4366131  32.0261688
  84.6696701   6.8637633  32.4327774  83.4588242   7.1421895  31.5683022
  12.6958895  28.3620949  71.4942093  12.5308962  29.2345848  71.1367569
  12.1466703  27.7802258  70.9688339  58.0667610   0.0133378  77.1744614
  57.8654137   0.6308889  77.8775406  57.6110115   0.3644616  76.4094543
  41.1136169  23.5025082  89.3362579  40.3275414  23.1564789  88.9136658
  41.2762222  24.3357182  88.8940430  78.6233368  38.6298904   6.9556823
  78.3916016  39.5504074   6.8324809  79.2912827  38.4600792   6.2914224
  56.2793808  60.0837212  80.0676117  55.5694771  59.8900833  79.4554214
  55.8563271  60.1048965  80.9259872  33.6575012  56.1049538  28.0682030
  33.9780312  55.2345657  28.3046589  32.9504890  55.9386177  27.4447422
  33.9366570  68.5368118  48.2474327  34.5791130  69.0649414  47.7735519
  33.8329315  67.7494431  47.7130928  50.4971275  31.6701698  23.4993248
  50.6535072  31.2653313  22.6461639  50.7969360  32.5731430  23.3945198
  39.3203850  61.8849335  23.7093849  38.8283653  61.6229362  22.9312439
  38.7482224  62.5092506  24.1555824  86.6242218  32.4134026  66.5813522
  85.7469559  32.1750908  66.8811035  86.5502472  33.3347244  66.3324966
  82.7110138  12.2653761   3.3477266  82.2856216  11.7034388   2.7000396
  82.9429169  11.6732273   4.0631361  86.2968674  67.9415817  30.1478367
  87.0494690  67.9360962  30.7392712  85.8369141  68.7555618  30.3530521
  65.8545837  26.7138691  66.8353195  65.8965073  27.6608696  66.9682159
  66.7391586  26.4709969  66.5618668  56.3856163  60.7503052  74.6330490
  56.6578331  61.0610962  73.7696075  55.9991112  59.8904533  74.4672241
  81.0450668  35.9156113  83.7564087  81.8227768  36.0875778  84.2872772
  80.9514999  36.6952782  83.2090530   3.5769653  35.9759674  68.2736664
   3.9226475  35.2301636  68.7640839   4.3462763  36.5103226  68.0765457
  59.5345650  67.4410019   3.4112923  59.9758072  68.1669388   2.9702034
  60.2454987  66.9193039   3.7836368   9.3209114  45.9333572   7.3648372
   9.4742241  44.9888840   7.3384314   8.8422718  46.1209755   6.5574117
  31.1212578  42.5020294  86.0203171  30.5254478  43.1690483  86.3613815
  30.5451107  41.8146286  85.6860046  71.5588150  16.2924938  52.2626076
  71.6861801  16.3813686  51.3180923  71.0776749  15.4711390  52.3631706
  36.5863762  26.2842655  14.3661652  36.2547073  26.9829102  13.8021421
  37.0190659  26.7429276  15.0863333  76.8756485  12.0643759  25.4282494
  76.5790253  12.9325304  25.1551991  77.4379120  11.7673807  24.7127895
  51.9938889   3.3605847  69.0023880  51.2220192   3.5097110  68.4562988
  51.8531609   2.4943480  69.3845673  11.1283426  44.8883095  21.2505112
  11.9274797  44.8717346  21.7771397  11.1738291  44.0921478  20.7210903
  14.0820293  62.5137367  82.8109589  13.6655426  62.5858955  81.9521408
  13.4514084  62.0284195  83.3429489  58.5608368  69.8431702  38.0859795
  58.5555496  68.9645538  37.7061958  57.8223152  69.8453369  38.6949196
  21.2258816  30.1776752   1.8550158  21.9848080  30.7608604   1.8424376
  21.3340950  29.6270103   1.0795860  75.7495422   6.1345167  64.1709671
  74.9132538   6.2891855  64.6102066  75.9649734   6.9735522  63.7637329
   8.7841244  23.0394897  77.6077652   7.8617167  22.8079281  77.7162704
   9.0709820  22.5313282  76.8489990  61.8552895  19.2396908  59.5029297
  62.5977211  18.8196278  59.9371796  61.1645126  18.5771866  59.5151367
  67.7521515  33.8835030  66.7474594  68.1485367  33.9638557  65.8798981
  67.6722946  32.9400291  66.8878403  71.9216919  54.2461586   9.6673231
  71.8143768  53.3680916   9.3016605  71.0305862  54.5330391   9.8669481
  16.1498737   8.1391068  81.9389343  16.8897839   7.8140564  82.4518738
  16.1368027   7.5841346  81.1591492  24.3483601  39.9774742  83.2729187
  23.8777466  39.2583580  83.6943741  24.2088451  40.7268829  83.8518448
  -0.0782106  62.8499260  68.7968369  -0.1323261  63.8016357  68.7099228
   0.8295747  62.6838608  69.0509644  34.3979912   7.1265802   5.5619483
  35.2230034   6.9218349   5.1218729  34.6510544   7.3312173   6.4621224
  31.5924816  41.9808655  11.9890594  31.6209450  41.1844063  12.5192251
  31.4682522  41.6678505  11.0930576  66.3572617  19.2742901  57.9468079
  66.6691208  19.0822964  57.0624352  66.1045456  18.4220867  58.3019371
  53.2112045  44.5969353  27.8552685  52.5392685  44.3475533  28.4897270
  53.9582558  44.8648415  28.3904057  69.6195450  17.0030842  74.5131607
  68.8231583  17.4692783  74.7674484  69.8598480  17.3828106  73.6679993
  49.1772537   3.2380893  81.6482468  49.2816391   2.3743632  81.2491074
  49.4948502   3.8491302  80.9834213  69.7884140  41.8497314  58.6753540
  69.3898621  42.7177887  58.6131783  70.3575974  41.9019470  59.4431686
  12.6685524  32.6761398  58.9165344  11.7645416  32.4754562  59.1588669
  12.5906153  33.3241348  58.2163506  70.1707840  23.7126732  66.2063904
  70.8563995  23.1542320  65.8399124  70.0186539  23.3608322  67.0834885
  59.1610718   2.0702579  68.6363831  60.0427399   2.1156094  68.2664642
  58.5824814   2.2773883  67.9025116  81.4976730  57.4550591  18.5402508
  81.9444504  57.7468071  19.3349247  82.0357895  57.7939148  17.8248177
  70.5140762  24.6431828  30.2751884  70.0473785  24.4632874  29.4590626
  71.0057755  25.4451332  30.0981522  24.1208420  17.0016155   2.6633782
  24.8863888  16.5313854   2.3331487  23.3737755  16.5424137   2.2796359
  84.1765747  41.5943031   8.0549440  83.5634537  41.0376205   8.5349636
  84.7195587  41.9939880   8.7343960  82.9227600  55.4586296   3.6219330
  82.6251373  55.3733635   4.5276818  83.1029129  54.5607185   3.3434834
  21.7382355  49.0304871  52.5683937  20.9922390  49.5158310  52.9207573
  22.0770206  48.5367012  53.3151436  43.6097488  14.7857189  78.4748230
  42.7231865  14.4648495  78.6399841  43.5248566  15.7391090  78.4832230
   5.2297783  30.7107124  16.2565346   4.3484530  30.9968758  16.0165157
   5.6709356  30.5661335  15.4194517  46.8422470  55.6679802  30.4636898
  46.7044907  55.8166733  29.5281982  45.9620171  55.6760979  30.8396702
  57.4528656  58.4269142  22.4408741  57.9577217  57.8492851  21.8684235
  56.6102676  57.9847260  22.5444508  71.1168213  16.8480339  28.1965256
  71.4271622  17.3147659  27.4205837  71.9122849  16.6487007  28.6902294
   3.8167748  68.0262451  76.3281708   4.7529988  67.9033890  76.4850845
   3.3950391  67.6866989  77.1175156  53.8387718  26.6348019  69.5994263
  54.6404762  26.5617504  70.1172791  53.1328316  26.4871788  70.2287827
  44.3501549  44.1870041  16.5020771  44.1356049  44.8941765  15.8937159
  44.9760132  44.5774498  17.1120682  39.5573196  39.6966019  23.1286411
  38.7338371  39.3392143  23.4608707  39.3551826  40.6082497  22.9182262
  10.4854307  59.4470177  76.9614639   9.7865658  58.7989082  77.0496140
  11.0879965  59.0642700  76.3237686  14.0498962  39.0532379  18.3913746
  13.1544247  38.7277412  18.2996407  13.9465923  39.9647026  18.6648540
  82.0569077  25.9121246  37.2992287  82.8020172  26.2778034  36.8224449
  81.5168533  25.5035667  36.6227264  53.1076851  31.3765450   6.3155694
  53.9597397  30.9705467   6.4749489  52.7010727  30.8253899   5.6468930
  25.3844204  68.1539001  59.5363312  24.8624992  67.4523697  59.9257965
  25.8750725  67.7260818  58.8345757   0.3365690   8.2301464  40.3379135
   0.1433544   9.0522108  39.8872337   0.9826951   8.4677305  41.0029755
  54.6441116   8.6232309  85.4223785  55.3987541   8.1232119  85.1113663
  54.9520454   9.5291176  85.4502869  84.6064835  38.9727936  80.8557205
  84.0932236  38.3670654  80.3210297  83.9624939  39.5891991  81.2043686
  79.1380997  45.7861595  43.5563583  79.9485626  45.9823341  44.0263443
  79.4141998  45.2398453  42.8204613   6.6489425  62.9377365   2.2531316
   6.6208634  63.8402939   1.9355896   6.3694658  62.4114723   1.5040178
  80.8890305  43.3774567  46.0324669  80.3819962  44.1760406  46.1787949
  81.6069336  43.4305763  46.6633606   4.3876910  23.4072781   4.6422997
   5.3125892  23.5745735   4.4611707   4.1323600  22.7488766   3.9961207
  64.9650345  41.5280190   7.6624007  64.1272964  41.2074814   7.9965725
  64.8958969  42.4811440   7.7172589   3.2440464  70.7397614  18.5717659
   3.2692471  70.8394394  19.5234280   3.1927416  69.7943268  18.4312401
  79.8355408  65.9843063   6.0120811  80.7344971  66.3131027   6.0149560
  79.3996048  66.4728241   6.7103243  80.5102158  20.6787853  57.0350151
  80.2614975  21.4645748  57.5217476  81.3505554  20.4190903  57.4126587
  58.8314056  53.0580711  44.4278603  58.1494789  52.3883057  44.4790840
  58.7556801  53.4096260  43.5407829  84.5752869  36.1365395  41.2741737
  84.3051300  35.3186951  40.8565865  83.9495087  36.7866440  40.9548111
  79.6467209  67.8923874  40.9303741  79.2902679  67.0252457  41.1233559
  80.3680573  67.9982910  41.5506096  55.1272278  22.2323494  82.7014160
  54.8007240  23.1015797  82.4688950  54.3548203  21.7626152  83.0160065
  58.2067184  43.6292992  26.5196838  58.7667770  43.8504028  27.2637806
  58.1839905  42.6723938  26.5130234  13.7363567  40.6915817  73.4492950
  13.1003561  40.2305908  73.9963074  14.0159903  41.4357529  73.9824448
  53.2295914  45.6569824  61.0969238  52.9871941  46.1749611  61.8644981
  53.5915031  44.8479538  61.4584846  47.9683418  24.3829288  55.8051758
  48.4902458  23.9167309  55.1520996  48.2739296  24.0402374  56.6450615
  51.6238289  21.4440212  30.4921513  51.7268257  22.0278816  31.2436352
  52.4887962  21.0516529  30.3733673   8.8739996  66.0512085  50.6859436
   8.2010374  66.6354675  51.0352249   8.9315443  66.2797165  49.7582016
   1.9825437  51.0888100   8.7773037   2.1982968  51.9774780   9.0600548
   2.7719569  50.5801888   8.9626818  26.3322716  37.4198723   7.6602130
  26.0484695  36.9215584   8.4266138  26.4356022  38.3155289   7.9816957
  48.5359344  60.5101013  64.9176483  48.7022743  61.3378334  64.4666214
  48.8226585  60.6658401  65.8175201  79.3236542  44.1502571  87.8434601
  79.9085617  43.5141602  88.2551651  78.9284821  43.6744728  87.1129150
  74.6111298  49.9695091  17.6379681  74.3325500  49.9082832  16.7242508
  73.9636612  50.5431099  18.0478439  60.4275551  43.0605240  23.0392666
  59.4787064  43.1866608  23.0379982  60.5615692  42.2560921  23.5404282
  40.6420364  33.9863625  11.4108391  40.3722954  34.4703865  12.1913471
  41.1349640  33.2394981  11.7506189  68.6184769  10.5112944  34.5504074
  69.4566040  10.0830307  34.3761482  68.5023117  11.1171064  33.8184738
  64.1860046  61.9123497  51.1331978  63.9645958  62.8128242  51.3705978
  63.8610306  61.3853836  51.8632164  78.2975388   2.2217679   4.2393136
  77.6734314   2.2571638   3.5144191  77.8333893   1.7520689   4.9322619
  35.5087967  15.7859144   4.2179713  34.8351288  16.3535767   3.8435867
  35.3899002  14.9471092   3.7724359  62.8645973  14.8327770  20.4693375
  62.7715530  14.1206636  21.1021633  62.4880066  15.5949059  20.9093037
   8.8939037  64.9724655  54.4259758   9.0912857  64.4251480  55.1860504
   9.7136946  65.4309082  54.2415733  12.3281517  48.1585960  52.1368256
  11.9095955  47.7044983  51.4055023  13.1919689  48.4026222  51.8044090
  44.7989845  42.3633118   5.1251388  43.9719467  42.8450012   5.1104198
  44.5886307  41.5143089   4.7363267  48.3529396  29.0712414   8.4197512
  48.9795303  29.7794876   8.2714205  48.7993889  28.2861519   8.1026545
  22.6208706   9.5126638  84.7836838  21.7991657   9.3590822  85.2499924
  23.2792606   9.0461178  85.2985458  27.1010265  43.4979897  13.4575253
  26.1962929  43.5999413  13.1620693  27.6210918  43.9609909  12.8007212
  25.5500431  64.5376434   0.6943795  25.0751915  65.0708542   0.0568599
  26.3455849  64.2676544   0.2356268  48.9546318  51.7445793  41.5244713
  48.2598305  52.2910500  41.1572533  48.5494270  51.3167534  42.2787971
  58.3545609  57.6360817  84.3279495  58.1903000  57.1270561  85.1217651
  57.5891495  58.2049255  84.2455215  76.7509995   5.8363500  85.4698410
  76.0388718   6.4577279  85.6214676  77.1931915   6.1651525  84.6871567
  26.6175823  51.6394844  69.0576477  25.7769032  51.2557983  68.8080978
  26.4625034  52.0123520  69.9254913  29.6994915  61.7743988  77.6576767
  29.7429142  61.1065559  78.3420258  29.1200218  62.4468956  78.0157242
  10.0428953  40.2391243  26.6494446   9.8425188  39.5013657  26.0734291
  10.2274446  39.8370247  27.4982624  31.2370224  46.2274361   2.7719169
  30.7232494  45.7296371   3.4078920  32.0382195  45.7161255   2.6584568
  55.2204285  20.2339630  58.8525467  55.0728722  19.9367161  57.9547157
  54.5601273  19.7722130  59.3692894  36.0654144   5.2782526  86.0698929
  36.1622772   5.3959727  87.0148697  35.1562157   5.0019131  85.9549026
  37.4629822   8.6877041  83.3201447  37.3124695   7.7470899  83.4140701
  37.3038216   8.8643169  82.3929367  81.3087387  39.9374161  49.7344818
  81.2463760  39.1446304  49.2017212  80.4049835  40.1297302  49.9844284
  74.1044006  19.6821804  40.0994949  73.3012924  19.1783657  39.9674988
  74.3955307  19.4426384  40.9793243  24.4146996  48.2100410   5.2648606
  25.0496387  47.6227951   4.8547053  23.5646191  47.8979187   4.9547377
  74.1771240  21.5674286  37.7298279  73.4869156  21.4893494  38.3884239
  74.8520432  20.9519882  38.0160828  83.2108459  10.5397806  54.1629295
  82.3167343  10.8261271  54.3494835  83.7649384  11.2205429  54.5447350
  11.3948708  59.3417778  24.9613075  10.5730124  59.4778557  25.4327564
  12.0532703  59.2482414  25.6497784  57.6342201  13.8382902  55.6686020
  58.3610077  14.4223614  55.8851051  57.3222275  13.5199966  56.5157051
  45.5127144   1.2403293  78.4064026  44.9861298   2.0074456  78.6310654
  46.2173080   1.5856814  77.8582153  49.8505669  67.1700287  72.1644211
  50.4906921  67.1293182  71.4539185  49.5481987  66.2675858  72.2663879
   4.7288437  13.0973892  65.6809387   5.5300183  12.7880106  65.2582855
   4.5554576  12.4525251  66.3667374  51.7364502  43.9437180  30.7383842
  52.5543327  43.8000603  31.2144756  51.2863960  43.0997314  30.7753201
  81.5621033  61.9075546  65.1037674  81.5833359  62.5598412  64.4035568
  80.6487198  61.6233940  65.1387787  55.2875977   9.2034378  76.5891266
  55.7435760  10.0366411  76.4704361  54.7145805   9.1331091  75.8256226
  79.7511063  26.2893047  18.6402493  79.2350998  27.0845203  18.7729263
  79.1346130  25.5744839  18.7989674   0.1990977   3.3617754  76.8641586
   0.4590205   4.1146297  77.3950806   0.6715143   2.6232221  77.2483368
  52.6723213  55.0705147  18.4157734  52.7846184  54.8544006  19.3414726
  51.8594933  55.5750580  18.3845081  66.1959381  54.0935402   9.1062021
  66.4985352  53.2101555   9.3166656  66.0536118  54.5071564   9.9576101
  59.5658264  68.6946487  44.4902840  60.0083656  69.4520874  44.8732796
  58.9474640  68.4124603  45.1642494  27.2158527  41.8777542  26.1641579
  27.1873760  41.5512199  25.2648258  27.2135201  42.8306160  26.0731831
  33.6987839  50.3889809  80.9554825  34.5545425  50.2179451  80.5622253
  33.5968552  51.3393097  80.9033356  75.0671616  32.6663475  19.8842163
  74.2780991  32.7761688  19.3535976  75.5118942  33.5122223  19.8300056
  34.3983307  49.4825401  66.4902725  34.9124947  49.7504616  65.7286377
  34.6962090  50.0579872  67.1948013  26.5017471  47.2562485  25.7435875
  27.2464142  47.7322845  25.3760376  25.8576984  47.2356262  25.0357685
  72.2367706  10.3013172  71.4766846  72.5812302   9.5408278  71.9449081
  71.8658066  10.8568525  72.1622467  70.9582901  32.9237633  45.2799873
  71.5889206  32.8381577  44.5650024  71.4493179  33.3494759  45.9827652
  40.1060219  65.5239182  77.2297745  40.3865204  66.2100296  77.8354187
  39.8611069  65.9936447  76.4325256   5.4625201  18.8833218  17.3599377
   5.0594926  18.2051983  17.9021072   4.7535825  19.5018597  17.1837254
  51.5860329  28.3311977  18.3983860  52.4531136  28.6361485  18.1311646
  51.6993523  28.0538044  19.3074760  71.0398407  39.4581184  62.5406151
  71.0218964  40.3978348  62.3593826  70.8644409  39.3918304  63.4792709
  52.9305382   6.1851549  77.3943710  53.4990845   6.8600564  77.7651749
  52.7569389   5.5906944  78.1242371  45.7488899  35.3637772  57.5314903
  44.9698715  35.9194756  57.5552673  46.1000175  35.4812202  56.6487961
  73.9514542  21.2488155  61.1476212  73.3722534  21.8067989  60.6285744
  74.7153854  21.7971745  61.3263435  85.3441162  25.7616310  40.5489655
  85.4430161  25.1816063  39.7939682  86.1091766  26.3356819  40.5118294
  76.9347153  61.8116646  23.3005981  77.7423096  62.2972031  23.4687672
  76.2623291  62.2897453  23.7859478  63.7142639  39.6266975  10.2665672
  63.3935738  40.1661530   9.5438108  64.5381088  39.2605438   9.9449368
  83.9326324  26.4126778  48.7687263  84.5492020  25.6960621  48.9188499
  83.1338425  25.9816551  48.4647827   6.8534241  41.6392860  38.3053322
   7.0652394  42.5616760  38.1619377   7.3480043  41.3989601  39.0888290
  70.0220413  21.5416508  44.0842514  69.2641068  21.4297771  44.6580544
  70.7507706  21.7131538  44.6807213  16.1748962   0.8130157  25.8202591
  15.5087261   1.4851347  25.6763668  16.6652336   0.7820418  24.9987717
  38.1190376  18.4465828  11.6785164  37.4076042  18.7509804  11.1150999
  38.7749405  19.1422520  11.6330605  41.3285141  32.3982468  23.2732563
  41.1117249  33.3287010  23.2141857  40.5465736  31.9492702  22.9519787
  11.2773104  15.8841991  87.1065140  12.0067120  16.5033360  87.0769348
  10.8879910  16.0138779  87.9712906   3.7670634  22.3379097  62.9858017
   3.1428959  23.0526676  62.8602257   4.6256542  22.7579842  62.9348946
  84.7171631  30.3642578  57.0147514  85.2264938  30.3480339  57.8250313
  85.3174973  30.7238331  56.3616486  34.9806938  44.0102730  78.6563950
  35.0476685  44.8497238  78.2013474  35.4666481  43.3985786  78.1033020
  67.8818054  51.0185013  57.4671288  68.2450562  50.6794281  56.6490173
  67.4126740  51.8122711  57.2100716  21.2382393  61.6947441  66.3200912
  21.3925171  62.1218185  65.4774551  20.2890663  61.7329636  66.4377518
  68.5411301  17.6089478  64.9222565  68.4143295  18.5562897  64.8703232
  68.2529373  17.3767700  65.8050232  24.1339951  54.3064804  52.5480728
  23.9248180  55.2373161  52.4704590  24.6851082  54.1206436  51.7878265
  68.7176819  15.5952530  70.5908508  68.9337234  14.8747082  71.1827774
  67.8088074  15.4332285  70.3380203  47.2395935  46.3382454  23.4249191
  46.6790657  45.5834732  23.6048145  46.9776459  46.9912186  24.0739498
   4.3474197  26.7073364  41.6068497   3.8677769  27.4406319  41.2215500
   4.2262645  25.9891186  40.9857903   2.2245331  64.0350647  23.8259888
   2.7140660  63.4075356  24.3577728   1.6698128  63.4926109  23.2653999
  73.9767380  37.8330193   2.3422904  73.4700623  37.0228271   2.2866395
  74.8692017  37.5735893   2.1132915  19.0053139  38.1207886  82.0910034
  18.3364887  38.7157822  81.7520523  18.5261288  37.5247498  82.6666336
  33.9664726  63.7227364   2.6163745  34.4358597  62.8923302   2.5367846
  34.4374237  64.1995163   3.2998366  19.5595188  32.9213295  79.6072617
  19.9111481  33.3306694  80.3978500  18.7418995  32.5132484  79.8922195
  32.4501305  61.7977638  23.9592571  31.9936485  62.0038795  24.7749596
  32.7430992  60.8933372  24.0706844  15.4173183  10.4295855  78.7699127
  15.3591461  10.5936241  79.7111588  15.0555773  11.2186413  78.3664703
  53.8531876  66.0979156  73.2634735  53.3877068  66.8702698  72.9424820
  53.6806412  65.4238892  72.6061020  77.1551895  49.2651253  73.8257980
  76.9071045  49.6953278  74.6440964  76.4574890  49.4962730  73.2125931
  29.9656563  48.2434883  63.7230644  29.7070274  49.1631546  63.6633911
  29.9079056  48.0385132  64.6562729  21.3571167  63.6366768  80.6324158
  21.8912125  64.4182892  80.4908066  21.9891968  62.9190941  80.6746368
  47.7045517  23.6775551  13.0059261  48.4037285  23.3842831  12.4216509
  48.0265350  24.5023556  13.3696070  73.9925003  70.6204224  72.2929306
  74.7136307  70.1254730  71.9040451  73.2753677  70.5320587  71.6651154
  84.6061707  71.2632523  27.3844509  84.4035873  72.1440659  27.0692368
  85.1445999  70.8791809  26.6924896  29.4940186   2.6850090   9.9206963
  30.4189491   2.7195826   9.6766901  29.3687382   1.7986975  10.2597971
  69.6290741  50.4675598  65.7328644  68.8366776  50.4262581  66.2682495
  69.9055176  51.3825226  65.7843781  85.0562515  52.5740929  28.7999249
  85.1537018  51.7895164  29.3395290  84.1496124  52.5436134  28.4944687
  21.9624290  33.0039291  67.6767960  21.8602047  32.1341896  67.2903595
  22.8386288  32.9933853  68.0620117  20.3725739   4.3038087  71.3829575
  20.0188160   5.1926785  71.3513718  21.3003197   4.4075975  71.1714096
  15.3575926   1.3801544  74.9560318  15.8272009   2.1168354  74.5648804
  15.9598570   0.6408408  74.8728180   8.6231394  53.9074974  13.3693609
   8.1516047  53.0783691  13.2891579   9.5375891  53.6802406  13.2009335
  86.2969055  60.4292603   6.1672072  85.6174927  60.8352280   6.7055588
  87.1052628  60.5600929   6.6628585  47.5305595  40.4295807  29.5831661
  47.3004532  39.6170807  29.1324730  47.0784187  40.3728676  30.4249401
  72.2550583   1.0818002  -0.2617164  72.4247513   1.5145229   0.5750559
  71.4000168   0.6668950  -0.1477415  29.5512447  35.7471046  78.1684113
  28.6092949  35.5942612  78.2432480  29.6458435  36.2762947  77.3764267
  70.0719223  62.6124344   6.6332426  69.6239319  63.1899796   7.2512903
  69.5947571  62.7251129   5.8111401  51.2607422   7.5601106  71.2791595
  50.5917892   7.5942488  70.5953751  51.7812347   6.7854342  71.0665665
  20.9220695  35.9692421  68.8567810  21.0754070  35.1411095  69.3116531
  21.7910919  36.2489319  68.5690231  24.2759876  68.9269104  88.9343872
  25.0150871  68.7684860  88.3471298  23.5390587  68.4800797  88.5178452
   5.7647262  23.6480503  59.8751907   5.3671951  23.3629456  59.0524406
   6.1378179  22.8502274  60.2500420  20.0193768  64.8044281  42.3482780
  19.2781887  64.7143173  41.7493210  20.5165653  63.9939880  42.2377205
  75.3964615  25.9096966  25.9139595  74.6237259  26.4634075  26.0258312
  75.6909180  26.0870762  25.0206146  78.8471069  17.4071236  75.9508743
  79.6556931  17.8717728  76.1665726  78.7083893  17.5867863  75.0209808
  82.5404358  23.7825699  68.9056549  82.2935867  22.9610920  68.4808350
  82.9443436  23.5135994  69.7307281  66.5608063  10.2395048  86.3249664
  67.0465317  10.6802502  85.6278000  66.4496613   9.3426762  86.0094147
  63.7828827  42.5646172  27.7571526  63.4150620  43.0158005  28.5170021
  64.2201385  41.7959633  28.1235065  29.7595158  51.1418343   1.5444890
  29.1481228  50.9033928   2.2413232  29.7783432  52.0987320   1.5594331
  59.0071869  55.6623116  76.0600052  58.4473839  55.1276283  76.6230087
  58.4969788  56.4561081  75.8993607  11.7125988  50.1072502  88.9308167
  12.2923403  49.7614479  88.2521744  12.1682549  50.8803024  89.2639771
  40.5512886  62.5222893  48.1883469  40.8050308  61.7568016  48.7039719
  40.9310532  62.3653450  47.3238373  39.3009186  52.6528168  56.1023331
  39.7071571  52.3299294  55.2980080  40.0084267  53.1027641  56.5640831
  32.1152191  68.6841660   2.1223412  32.9641228  68.6468048   2.5630190
  32.0243034  69.5987015   1.8547714  17.2340736  49.5137100   1.9887822
  17.7078190  48.8348541   1.5082096  16.8076363  50.0352211   1.3087746
  55.6656952  51.3915367   6.4638672  55.9840279  50.9393387   5.6825767
  56.1701279  52.2045364   6.4922857  22.9901047  13.8128452  80.9777374
  22.0724220  14.0794516  81.0326233  23.4789600  14.6357975  80.9768143
  55.5959244  62.3366623  50.1481094  55.5995255  61.7989082  50.9399681
  55.4548340  63.2287750  50.4650612  54.5142097  56.1675262  71.6223679
  55.3514099  55.7128487  71.7150726  54.7530060  57.0615044  71.3773880
  12.8891983   8.9295340  85.4642639  12.8287649   8.7493372  84.5261230
  12.1743031   8.4245081  85.8516998  66.8389435  27.5732899  78.1357040
  67.5663528  28.1897030  78.2201996  67.0581894  26.8603973  78.7356644
   6.4403443  21.2925014  69.4821167   6.9116063  22.1023674  69.2865067
   6.5466733  21.1755619  70.4261780  12.2188892  32.1922264  84.0212097
  12.4517965  32.8411980  84.6851578  11.3392954  31.9045162  84.2656860
  44.4297791  50.8168411  29.8361454  43.4780579  50.8463974  29.7382412
  44.7560806  51.4503937  29.1971054  32.7963219  27.6696911   0.8782415
  32.0158501  28.2232151   0.8517189  32.4619064  26.7789574   0.7733940
  16.4951344  12.5305958  30.7369862  17.0009060  13.2815475  30.4263439
  16.6778488  12.4905691  31.6757336  51.8190956  30.1250343  33.2887802
  51.7586861  30.1371861  32.3335648  51.7923889  29.1962318  33.5186615
  62.7806854  38.7129440  61.9981613  62.2853012  38.5064201  62.7907372
  62.2308655  38.3944855  61.2822609  63.7692032  47.7107849  61.8492851
  63.4505615  47.1617851  61.1328392  64.6848526  47.4541740  61.9586830
  31.2044792  20.0354862  82.3659286  30.2659607  20.1932068  82.2632675
  31.5276585  20.8074169  82.8305893  76.7373886  53.3586960   9.1153049
  77.4649048  52.8088455   8.8244057  76.4824295  53.8510895   8.3350658
  17.6075096  52.6189537  60.1637688  17.8531837  53.3513718  60.7289543
  17.0883236  52.0452461  60.7272758  46.4436989   2.6332970  82.4855194
  46.2620430   1.6938640  82.5119629  47.2821312   2.7023602  82.0289078
  81.0404892  54.7581062  45.6058197  80.4582520  55.2058334  44.9920044
  81.6542053  54.2798157  45.0483055  66.5481796  27.5990410  33.0723076
  66.1658707  27.6729984  33.9467239  66.9501495  26.7304325  33.0593338
  38.4235725  12.6583567  64.7019424  37.7047768  13.0357704  65.2090225
  39.2153130  12.9645357  65.1442490  31.5451927  58.8213921  45.4203949
  30.9777641  58.1172562  45.1066246  32.3961678  58.4030342  45.5509758
  22.2478752  54.6904526  57.8068314  21.8238773  53.8488998  57.9749146
  22.2117119  54.7911148  56.8556290   1.4999280  66.9915085  20.7788105
   0.7101370  66.4507065  20.7785015   1.4413236  67.5005646  21.5873032
  51.0493011  19.5050144  12.0169039  50.1502342  19.7909393  12.1786470
  51.0382156  19.1769867  11.1177340  49.0211754  54.1951294  26.2537441
  49.6669121  54.3034973  26.9519672  49.4840965  53.7066040  25.5730972
   8.2286320  38.7626038  46.2419052   7.5551372  39.2429962  45.7603874
   8.6292486  39.4186897  46.8122444  18.1345215  52.0543900  20.8480644
  17.3057919  51.5971756  20.9908752  18.2807999  52.5435715  21.6577148
  58.0149078  32.4963531  44.5785103  57.2641373  32.0258026  44.2163467
  58.7675858  31.9428043  44.3704414  55.1306419  70.2657623  14.9808426
  55.3570824  71.0371170  15.5004339  55.9402885  69.7566071  14.9426146
  59.8148041  41.9744911   8.6293793  58.8985710  41.7452049   8.4738779
  59.7839279  42.8707275   8.9641027  81.1776886  25.6619606  52.4138641
  80.8762054  26.4425735  51.9491234  80.4080200  25.0942364  52.4528770
  48.3999214  11.3287163  60.2508469  49.0224686  10.9179735  60.8508110
  48.9478836  11.7913876  59.6168861  19.7487297  51.2921524  85.4408646
  20.4129372  50.6463585  85.6817322  18.9585915  51.0052414  85.8986893
  66.7022018  19.1585026  31.0411224  67.6152344  19.2703953  30.7763710
  66.2002640  19.6265736  30.3738918   0.5654671  23.3921299   4.7673221
   0.3928468  24.0871582   5.4024358  -0.2005720  22.8209133   4.8232450
  72.8213730  64.1344147   4.4536977  71.9145355  64.1094284   4.1483283
  73.2359085  63.3799286   4.0351892  67.5499725   3.2538114   8.7250853
  67.3644638   4.1772552   8.5545893  66.6874695   2.8421571   8.7786064
  21.3444595  16.5827179  79.7936249  21.4989433  16.9347191  78.9170074
  20.4418926  16.8296146  79.9952393  59.8907051  55.2826157  82.4005585
  59.8353462  56.0168228  81.7889175  60.7802544  54.9464531  82.2913513
  13.9315863  46.3584290  41.5779991  13.5268803  47.1676102  41.2654724
  14.4517336  46.6276588  42.3350945   6.3197126   9.2208376  86.2335510
   5.7193837   9.9387474  86.4346466   6.7578368   9.4936714  85.4274216
  64.9747162   9.5911493  16.7493401  65.0297546  10.1696568  15.9887276
  65.7540283   9.0388498  16.6870728  70.2747345  30.7854710  28.3481731
  70.6245422  30.8130779  27.4576073  70.4076614  31.6714287  28.6852798
  32.3109741  38.8330841  65.8038483  32.6421738  39.5446320  66.3517914
  32.8978920  38.8198929  65.0478134   1.3084327  56.1975441  18.5257778
   1.0797386  56.5037231  19.4033794   0.4890225  56.2476082  18.0335464
   4.1094046  53.9642258  65.6131897   3.1738727  54.1619110  65.6571503
   4.1584983  53.0138779  65.7164307  32.5070038   4.2566390  46.2273445
  32.5104332   3.3144834  46.0583420  31.7622185   4.3921857  46.8131371
  28.8623333  10.2542839  13.9925289  29.4372654  10.0455351  14.7288103
  28.0432644  10.5353317  14.4004126   1.9980569  49.6567421  74.5573654
   1.3468819  50.3523407  74.6487198   1.5060327  48.8479691  74.6988831
  79.9674454  71.4585953  76.7316055  80.7702026  71.9759674  76.7959976
  80.0394135  71.0085754  75.8898621  27.3773918  68.1394272  45.8713646
  27.6097603  68.7953796  46.5286064  27.0047302  67.4163895  46.3759155
  27.1017170  57.2693634   7.3152523  26.9400444  58.0138245   6.7357087
  27.6016502  56.6531944   6.7798672   1.2576703  42.3793640  87.0758438
   1.8694559  43.0384560  87.4037933   0.4247070  42.5963593  87.4945526
  25.6290436  44.5443535  32.0790062  25.7905159  43.7216988  31.6170559
  24.8274879  44.8874931  31.6840458  25.5427837   6.4382391  28.5474129
  26.4209175   6.7526460  28.7624950  25.4198399   6.6803436  27.6295338
  58.9480629   1.1659350  26.5967464  58.3568230   1.0607920  25.8513527
  59.0262451   2.1133494  26.7086639   8.6051903  23.3071918  84.4530563
   7.7728648  23.6890583  84.1744080   8.9909296  23.9675961  85.0286484
  17.0350304  13.9101477  76.7634201  16.9881687  14.5074883  76.0169449
  16.1403084  13.5863400  76.8675995  44.5172958   7.0604334  20.2180595
  44.8987541   6.7086520  21.0224037  44.9015732   7.9329109  20.1323643
  69.5971298  14.0000296  52.7317390  68.7860107  14.4683447  52.5342636
  69.5195923  13.1745195  52.2534561  10.4671354  51.4083443  60.0674820
  11.1577120  51.0659218  60.6350060  10.6453953  51.0187340  59.2115288
  23.5396881  28.2967854  84.5856857  23.3822460  29.0499916  85.1550064
  24.1856728  27.7709503  85.0573120  61.3576622  42.0302849  26.7306862
  60.8590698  42.2271385  27.5237103  62.2128677  42.4337997  26.8791084
  11.4708395   3.5125532  82.2236862  10.6434984   3.9939363  82.2267914
  12.1395922   4.1864543  82.1017838   1.2720820  69.0260391  41.4747353
   2.1982756  68.9392319  41.7002602   1.2369690  69.7871552  40.8953362
  52.1237602  34.2713699  59.7547951  52.1818466  33.4328117  60.2127037
  52.8158226  34.2322388  59.0946808  57.1472969  61.4341888   0.2175705
  56.4297562  61.6073036   0.8269951  57.6189384  60.6973648   0.6059960
   1.1278806  20.2915840  37.3476448   0.7445436  21.0599957  36.9247627
   2.0153501  20.2405872  36.9926376  41.7234497  59.7558098  80.0347214
  42.0455017  59.9734993  80.9094391  42.5070381  59.5012321  79.5474777
  75.4263840  64.0936279  32.2660522  75.8205948  64.9640274  32.3228683
  74.8957672  64.1225128  31.4699116  80.8182678  63.1215134  29.6957588
  81.5816193  63.5279083  29.2854328  80.8550339  63.4093132  30.6079273
  62.8523903  57.1711693  31.1672249  62.5016022  56.4596214  31.7028370
  63.5441666  57.5569077  31.7047005  21.7086506  40.0780182  14.9054499
  22.5670147  39.9318275  14.5078669  21.1002522  39.5949974  14.3461885
  78.4807587  58.8494492  12.4604769  77.7952347  58.6715164  13.1043987
  78.9569855  58.0227470  12.3829975  72.6903305  46.3649788  58.5817795
  73.1315842  45.8100739  59.2249069  72.7170868  47.2422142  58.9638443
   7.4711242   3.6260657  58.1649704   6.7149491   3.5190811  57.5879211
   7.3934612   2.9110544  58.7966042  76.3779526   6.0244689  18.2425709
  76.0830688   6.8609676  17.8826427  77.2133331   5.8571463  17.8062611
  31.0498333  17.4211617  81.5277557  30.3091755  16.9582653  81.9194031
  30.9910564  18.3090134  81.8806000   6.6236978  34.7324333  39.3914070
   5.6762252  34.6228943  39.4722061   6.9910574  34.1129456  40.0218925
  49.0935249  40.1189804  34.7485352  49.5307274  39.7745361  33.9697914
  48.6684608  39.3566475  35.1414795  70.0771866  16.9738770  54.8868790
  70.6810608  16.9512291  54.1445503  70.5050125  16.4444942  55.5598984
  28.2942352  38.4547844  87.2926788  28.9486027  38.0029984  86.7598267
  28.2518063  37.9459038  88.1022873  17.0695305  46.6074448  51.4204521
  16.8921185  47.2596474  50.7426720  16.7558804  45.7834091  51.0478668
  77.5173035   2.1556768  28.1977749  76.9080658   1.5358526  27.7966728
  77.0380936   2.5126965  28.9455223  47.4400787  34.7846870  66.6829834
  47.9868279  35.0498390  65.9433975  47.4530754  33.8278618  66.6595459
  46.8611870  51.1012840  88.0444336  47.2579231  51.7923508  88.5747757
  46.8794823  51.4445915  87.1511078  10.7795029  65.0947723  41.8014755
   9.8520393  65.3050461  41.9102325  11.2118473  65.9461365  41.7343903
  47.9851570  55.0042953  79.7698822  47.5564957  55.8502922  79.6403961
  47.5848999  54.6521721  80.5648880  53.3422661  53.1985092  34.7312584
  52.9045944  52.6640358  35.3938370  53.0079193  52.8677406  33.8975677
  34.8497086  31.5204792  82.2579117  33.9075546  31.3539886  82.2872925
  35.2207489  30.9102917  82.8952789  84.8635330  46.9813118   4.9041829
  84.2089462  46.9930344   5.6024718  85.5553360  46.4078522   5.2340031
   2.0271003   1.9475142  53.9104996   1.3278698   2.0812147  54.5503654
   2.4637859   2.7972772  53.8518448  23.9774971  46.3992386  39.2020187
  24.3945885  46.1724892  40.0331955  23.5901432  47.2609711  39.3556557
  68.5596848  58.7664795  44.4354134  68.6360092  59.6630898  44.1090736
  67.7971878  58.4098358  43.9797325  37.6099091   0.5630134  70.3011093
  36.7389107   0.9292594  70.1479340  38.1735115   1.0146809  69.6729507
   8.8363066  10.1726665  26.0956268   8.4857206  10.0721817  25.2106266
   9.0202332   9.2784519  26.3833466  18.7900887   5.6156549  10.8438540
  18.8134308   5.1806006  11.6961536  18.5317879   4.9275198  10.2306805
  15.7187853  26.2682877  88.6493835  16.3470764  26.9747181  88.7991714
  15.1329298  26.6082191  87.9730301  31.1425343  56.3899727  61.5984573
  30.7300243  57.2118721  61.3328438  31.8190022  56.2373276  60.9386673
  48.5018730  58.7071266  79.9054489  49.2813721  58.9747581  79.4186401
  47.9245148  58.3273659  79.2431335  47.2978096  60.7611542  85.3529434
  46.9694061  60.4745102  86.2051239  46.5725784  61.2552185  84.9706192
  44.2797890   1.5976325  58.3216095  43.9268684   0.7518386  58.0453644
  43.9096909   1.7384961  59.1930580  58.8294907  29.7267380  67.9430084
  58.2411766  29.2424393  67.3637238  59.7063522  29.4394703  67.6884079
  77.9882812  46.9376831  46.5842247  78.1477051  47.0836945  45.6517563
  78.1398697  46.0008736  46.7093124  29.9713707  62.2620316  61.7900734
  30.0874138  61.7656212  62.6002197  30.5819054  61.8590813  61.1727333
  55.0166893   1.3814684  69.5094147  55.3963280   1.7729138  70.2960968
  54.1587334   1.0633045  69.7903366  58.5203896  10.5835896  85.9164352
  57.5911865  10.8127127  85.9341583  58.5626831   9.7965269  85.3733139
  15.1550465   5.5510859  68.3173752  14.8641644   6.2668066  67.7522507
  14.7345982   5.7248569  69.1595535  12.9511290  27.4378185  60.9729614
  13.5632572  27.3452873  60.2429161  12.1540775  27.7872334  60.5743980
  46.7434998   8.2594767  24.0117416  46.4363441   8.9057455  24.6475277
  47.6412811   8.5260725  23.8138828  72.7013474  58.3382301  13.1332293
  73.2992783  58.4369049  12.3923044  73.1674500  57.7657967  13.7425709
  60.3357353  32.5616989  22.0225487  59.6333809  33.1596565  21.7668610
  61.0819702  33.1327705  22.2048645  62.0741577  65.8587723   0.9367989
  62.9523697  65.6718369   0.6050838  61.5056343  65.7720871   0.1716220
  46.9565315  34.7662811  59.8852348  46.6416969  34.9616737  59.0026627
  47.8993797  34.9261894  59.8440628  10.9181910  67.9870834  78.2011795
  11.5565977  68.6421738  77.9191742  10.7158108  67.4924850  77.4070511
  35.4424400  56.8967896  52.5871964  35.8488159  56.5453568  53.3793983
  35.8605156  57.7485962  52.4612160  42.4110641  40.6345215  82.2457886
  43.0177765  40.0713425  81.7652054  41.5449409  40.3803558  81.9272537
  70.4481354  40.9872856   8.1938887  69.6690903  41.3560715   8.6101913
  70.2494812  40.0560150   8.0964031   0.5357359  11.0301485  59.0291023
  -0.0133979  10.6524858  59.7161674   1.1926241  10.3572111  58.8505402
  81.8336945  50.0994225  52.1646919  81.7812424  49.8704033  51.2367744
  82.7345963  50.3988571  52.2869339   1.0781555  50.9728737  68.8059158
   0.1372920  50.8167076  68.7245560   1.4838430  50.2271233  68.3637543
  13.5258951  57.5030823  54.9974518  12.9377661  58.1298218  54.5761032
  12.9951696  56.7143593  55.1091728  31.0121384  61.4044876  57.4891663
  30.1240005  61.7606926  57.5128403  31.5623817  62.1489716  57.2458420
  73.5619888  56.5884285  48.5742493  72.6973801  56.6683426  48.9771080
  74.1313400  57.1314888  49.1193733  54.4263000  45.0543900  51.4200478
  53.9397850  44.4976807  52.0280037  54.9169159  44.4405632  50.8734741
  38.9204292  67.7036972  71.5868454  39.1569214  68.1981735  70.8021164
  39.2045250  68.2578430  72.3137894  64.7345428  54.4346809  70.0896912
  65.6806335  54.3061256  70.0217590  64.6219635  55.3852005  70.0978622
  18.5535183  45.4528656  57.2741051  18.5212135  45.5698204  58.2235832
  18.9734783  46.2491531  56.9488487  45.3990860   0.7660925   8.0881786
  45.2582626   1.0709118   7.1918054  44.5198364   0.5855604   8.4206858
  48.6506996  23.4018631  43.3723984  49.4016228  22.8183556  43.2634811
  48.9201202  24.2195740  42.9540787  75.6803894   1.3824348  58.1475372
  76.4951172   1.8840369  58.1184082  75.0787354   1.9317939  58.6499748
  17.2004490  27.7970676  85.7719727  16.9810276  28.1905689  84.9274368
  16.3538074  27.5801830  86.1623459  37.0230370   4.8156061  73.7588959
  37.7162437   4.8836379  73.1023407  36.5813560   3.9909213  73.5562973
  68.4333725  36.7140465  48.9086342  67.5953979  36.2975845  49.1100960
  68.9232559  36.0465126  48.4283791  66.8474731  34.9847717  79.4390640
  66.6466217  35.0312691  78.5043335  67.6428223  34.4543495  79.4870453
  28.2214928  64.1349640  63.0636330  28.9778633  63.7811089  62.5957375
  27.7910061  63.3667030  63.4387207   3.4821305  71.0210266   8.6590452
   4.1181660  71.3864365   8.0440941   3.9645770  70.3381729   9.1250868
  35.8821640  61.2607079   7.8046999  36.6119614  61.1995583   8.4210491
  36.2690315  61.6311836   7.0114088  50.6241951  16.5010147  39.8410225
  49.9250298  15.9153109  39.5505867  50.8166542  17.0423470  39.0754166
   2.3731613   3.5165205  57.9964943   1.9943962   3.5957553  58.8719902
   2.1724298   4.3507776  57.5722847  77.1454544  52.9183464  73.8361740
  76.9209290  52.5821457  72.9685364  78.0613785  53.1857071  73.7597809
  13.8588543  59.4327545   3.1790824  14.2459764  58.6380806   3.5463192
  14.1929560  59.4698372   2.2828500  63.9570656  40.3279953  80.3228149
  63.6141129  39.8434830  79.5719070  64.2297745  39.6500053  80.9410324
   6.6534238  39.2177048  72.5397644   6.3547988  39.7528305  73.2750778
   6.4543839  39.7430992  71.7647934  84.8997116  24.8258533  55.7986832
  84.7908859  25.1583061  54.9076920  85.2022095  23.9251118  55.6829529
  77.1147232   3.6748323  82.4624557  76.7370148   3.7749803  81.5886459
  77.8862000   4.2414103  82.4562912  44.8850365  16.8590946   9.9890184
  44.5606079  16.1230145  10.5078287  45.2430191  16.4554806   9.1983385
  27.5990162  54.6271820  63.3455696  27.1597233  54.1841469  62.6196404
  27.1033649  55.4369926  63.4670982  85.9572220  43.6906166  68.3595505
  86.1243210  43.4996910  69.2825089  85.2281494  43.1166763  68.1244278
  21.1972389  23.8845043  16.9441071  20.4984722  23.7609138  16.3017044
  21.1210499  23.1305599  17.5289116   4.6844721  37.1646919  45.1433334
   5.1593542  37.9951515  45.1108665   5.3400116  36.5049210  44.9170456
   0.4245454  24.9140911  75.9403992   1.0408481  25.3841400  75.3787460
   0.9089367  24.1426620  76.2345047  33.1649742   6.4335213  84.4432755
  32.9058647   5.9448047  83.6620865  32.7896156   5.9380827  85.1712036
  47.0583687  36.5053673  44.5291061  46.4555321  37.0713844  45.0112267
  46.8612404  36.6750183  43.6079178  43.8480263  68.2469559  75.3349686
  43.5093079  67.7281113  76.0645599  44.2580147  67.6054077  74.7548370
  29.3315945  42.2173195   8.6667290  30.1102238  41.6626167   8.6190939
  29.6754436  43.1038399   8.7766314  55.0848732  17.8682671  63.4573059
  54.3431816  18.0942173  64.0186157  55.6233826  17.2870731  63.9943810
  13.9091434   7.2387509  21.5070782  14.7269516   7.7360497  21.5178089
  13.6814919   7.1321831  22.4306850  81.4171295  15.9744225  63.1262665
  82.2043686  15.6747828  63.5809097  81.6895142  16.0704994  62.2136803
  12.7186108  27.2092934  63.6040535  11.7836590  27.1051903  63.7808571
  12.7715893  27.3243942  62.6552773  56.4580307  20.7796650   6.5970449
  55.6096764  20.5767460   6.9911871  56.8381424  19.9250660   6.3935547
  78.0027847  29.4315434  13.4490051  78.5577774  29.3208828  12.6770182
  77.4620590  30.1953144  13.2477579   2.4241679  66.0412445  28.6623478
   2.0701559  66.9304962  28.6740665   2.5138967  65.8314056  27.7327518
  83.5542603  70.2562714  45.7444458  83.1847534  70.9759903  45.2328682
  83.7833939  69.5927887  45.0936661  80.6880798  38.1197090  68.0485916
  80.6744690  38.0155296  67.0971756  79.9646759  37.5754242  68.3595123
  22.1951923  13.2021551   6.1451325  22.9063091  13.5256090   5.5920320
  21.6087246  13.9521360   6.2442055  49.2988663  48.7843437  14.5564241
  50.2248917  48.5805321  14.6874533  49.3016739  49.6014977  14.0579433
  23.8904686  58.6239624  26.3075619  24.4434528  57.8619423  26.4800892
  23.0297565  58.2552452  26.1089306  76.3487549  11.4342604  60.5084496
  76.1996078  10.6353455  61.0141411  77.0055313  11.1866617  59.8576279
  66.7645187  41.1794014  50.6865654  67.1572189  40.3278961  50.4943275
  66.2515182  41.3882980  49.9059067  85.9358902  22.4744587  54.7027130
  86.8492737  22.3097267  54.4685478  85.4322281  22.1032410  53.9783211
  36.6382561  22.3329048  20.2733459  36.9807396  22.3418407  21.1671333
  37.1002693  23.0460548  19.8326759  51.3707733  55.1374588  34.9153214
  50.9327850  54.4225655  35.3771935  52.2678337  54.8277931  34.7903175
  47.8115845  16.2278404  83.4662094  47.7405090  16.6415062  84.3264771
  47.4124832  16.8562908  82.8645477   4.6383486  27.0630703  24.5753441
   5.1701059  27.8567410  24.5157433   5.2581620  26.3776798  24.8249493
  27.8138428  20.3516693  18.7545815  27.7490406  20.4124165  17.8015118
  26.9598274  20.6452541  19.0719109  70.7702866  49.9125328   5.3083458
  69.8872375  50.2561531   5.1727786  70.8200607  49.7445107   6.2493682
  14.2479277  59.3730316  79.7155533  14.3985291  59.1934357  80.6436157
  13.5763893  58.7424583  79.4554672  56.6183472  13.8900576   8.6471663
  56.7372208  13.3101730   7.8949461  57.1837730  13.5211258   9.3257055
  50.0916481  10.3269348  67.0302124  50.4937363  11.1814327  66.8740463
  49.1572914  10.4708967  66.8802567   0.4810692  41.7107391   6.5446835
  -0.1177516  42.0534210   5.8811975   0.7276574  42.4765968   7.0632262
  44.6709633  37.2781868  30.9348049  44.5314865  37.5040970  30.0151596
  44.6655655  36.3211212  30.9498158  64.1428757  25.1569824  68.2943573
  64.7959213  25.6628399  67.8107529  63.5605392  25.8163090  68.6717224
  83.2720490  13.2194576  28.1970062  83.6191025  13.2858562  29.0866013
  82.9218521  14.0906363  28.0108910  53.0184212  41.6623611  81.7660217
  52.4785500  42.2212982  81.2071304  53.9167480  41.9389305  81.5850677
  28.9886112  51.9972229  51.2726517  29.5562992  52.2419243  52.0034637
  29.5884132  51.8569412  50.5399933  20.5348492  62.3513298  31.7237988
  21.0019588  62.2451019  30.8950920  20.4949741  63.2984390  31.8565655
  55.2696304  63.3059273  64.6546478  55.1904678  62.7969398  63.8478699
  56.2108727  63.4458008  64.7582169  79.6192780  49.0735245  83.5137634
  78.7936172  49.1205940  83.9957352  80.2897186  49.2732315  84.1671066
  46.6283112   9.9809952  49.4001198  46.5676765   9.1637983  48.9054031
  45.7485733  10.3552694  49.3531151  46.9299316  52.0274544  50.5143051
  46.9118652  51.9317741  49.5620728  46.2010651  52.6163483  50.7097244
  33.7542343  11.7657080   9.7360849  34.2991142  12.3234129   9.1808329
  32.9916573  12.3058939   9.9432201  56.0177269  17.0824223  66.7458496
  55.6595688  16.5110531  66.0665131  55.4750175  17.8699455  66.7070923
  50.3837242  16.8681870  66.3969879  50.6965485  16.0534191  66.0038910
  51.1806602  17.3291111  66.6590500  49.1972961  54.8662682  64.3902969
  50.0210342  54.6799278  63.9397850  49.0459442  54.0976562  64.9403534
   7.3556638  57.6714516  21.6030140   7.8049479  57.7834587  20.7652607
   7.9474277  57.1258850  22.1210938  28.9933548  56.4684105  82.0596924
  28.2960758  55.9217758  82.4219360  29.3723164  55.9392929  81.3578033
  67.0231934  21.4425468  38.7687302  67.3321381  22.3328209  38.6008186
  66.5550232  21.5045319  39.6013222  85.1605148  64.4535828  59.6351852
  84.7839966  63.7215157  59.1467819  84.9437332  64.2686081  60.5489807
  19.7181854  25.6676140  70.4240189  18.9922352  25.0551071  70.5426102
  20.3517342  25.4215221  71.0980225  39.4647446  46.8137627   7.8414230
  38.8809662  46.4186401   8.4889688  39.8345375  47.5764618   8.2861414
  41.0423317  62.4406586  37.4581985  40.7874718  61.5227280  37.5513840
  41.9975357  62.4193192  37.4001999  82.6027985  17.8320541  42.6141167
  83.0196533  17.0086212  42.8679390  82.7683334  17.9045219  41.6741295
  52.5553436  29.4828758  22.4782887  53.4826546  29.7115707  22.4148579
  52.1501465  29.9148254  21.7263145  17.9586029  45.4966965  30.0312920
  18.9041252  45.3725739  30.1138210  17.5821934  44.6620979  30.3105602
  40.0879173  25.2104321  68.9916763  40.7460823  24.7586803  69.5198517
  40.1676025  24.8176899  68.1223984   1.1724424  57.6486092  25.6625748
   1.3304392  58.4198418  25.1180840   0.5996870  57.9626579  26.3622570
  49.0412025  58.2209854  58.0017128  48.4292030  58.9189491  57.7681923
  48.4976196  57.5586319  58.4283714  24.6302795  53.9817467   3.9813163
  24.8892632  54.2950401   4.8479233  24.8423939  54.7053986   3.3917663
  17.4380322  53.2509422  84.7930450  18.1780415  52.8740616  84.3170395
  16.8892269  52.4992447  85.0166473  37.6970406  63.8902588   9.8781452
  37.3892059  64.2537842   9.0478945  38.0882187  64.6347656  10.3352270
  18.1374454  69.7244110  19.5690136  18.3780994  70.3220901  18.8611336
  17.6236210  69.0399857  19.1403198  75.5306168  47.9817581   2.3357546
  75.6402054  47.9046211   3.2835262  76.3603363  48.3462067   2.0275767
  47.6147499  30.2178040  20.6097031  47.1947937  30.0454941  21.4524250
  46.8871651  30.3263264  19.9972668  21.8252182  65.1448746  88.0970230
  21.3439503  64.7741013  87.3573380  21.1752930  65.2111130  88.7966309
  79.0260468  55.5429955  64.2685623  78.8522263  54.7818069  64.8222885
  78.8248444  56.2951584  64.8253403  70.6404572   2.6831901  59.6797256
  71.5242538   2.7351787  59.3158035  70.1232071   3.2799029  59.1387863
  76.7710114  50.2669907  20.0596409  76.0377731  50.8076706  19.7659359
  76.6864853  49.4559937  19.5582733  10.4881830  65.7003937  31.5905704
  10.1008768  64.8322372  31.7025013   9.7521496  66.2612839  31.3458462
  79.3738861   4.4164033  50.7096748  78.6365433   4.2361403  50.1265221
  80.0294800   3.7588763  50.4771233  58.0760269  40.0071106  18.4835682
  58.2345200  40.9155464  18.7401848  58.1132736  40.0184097  17.5271606
  50.8280144   3.3632786  32.1572151  50.3834534   3.7277238  31.3918552
  50.4624329   3.8456202  32.8987885   7.1159410  43.4045296  32.5271683
   6.4902401  42.6824646  32.5850334   6.5736618  44.1806793  32.3866005
   0.8320069  16.8777199  81.6518860  -0.0321328  16.6296234  81.9804306
   0.7660917  17.8190956  81.4915771  46.9281387  30.1001415  28.0604000
  47.5411186  30.6654873  28.5303726  46.6075249  30.6417561  27.3392277
   9.3943720  52.8183517  27.4910088   8.6049156  52.5124664  27.9375820
   9.0713882  53.2351074  26.6921158  51.7265968  36.8502350  75.9321289
  50.8884315  37.0648537  75.5226822  51.7389984  37.3671913  76.7376328
  18.2423096  15.1922092  80.1184692  17.9549656  15.3253536  79.2151794
  17.4499321  14.9266052  80.5851898  60.0046043  12.8488445  23.7588367
  59.5097809  12.3470488  23.1110840  60.2418213  13.6575737  23.3050556
   6.1446772  67.0519867  65.4279633   6.4012556  67.7578430  66.0214005
   5.2133303  67.2020798  65.2657928  65.4307709  11.0934172  28.8624649
  65.3487244  11.4652967  29.7406483  65.6482697  11.8407192  28.3052673
  59.4193840  25.1755314  31.2970104  59.7058640  24.6555557  32.0478668
  60.1196747  25.0719147  30.6527367  81.7435303  67.6540527  25.5095501
  82.1592102  67.7531738  24.6530361  82.3519135  68.0696793  26.1205769
  21.5750256  26.0078773  19.2653885  21.4265175  25.3180981  18.6185665
  20.9582291  25.8117466  19.9706020  56.7290382  17.4250412  12.0422640
  55.8244209  17.4529095  12.3539047  56.7083740  17.8887672  11.2051477
  78.5721664  15.3637371  82.2702560  78.4293900  16.2630577  82.5653229
  77.7892303  14.8915443  82.5535812   4.2033420  62.6285210  42.5869522
   3.9763737  63.5483513  42.7234383   5.1604300  62.6167259  42.5782852
  18.0546627  61.8616867  32.5922394  19.0019531  61.8369827  32.7273788
  17.9489136  61.8843346  31.6411705  81.8432465  26.9625511  71.4095001
  81.1360474  27.4660435  71.0062637  82.5900879  27.0872173  70.8239059
  84.6813583  42.4875946  81.3406525  84.3945618  43.0228233  82.0805893
  85.3285751  43.0296783  80.8895645  64.9796600  60.7309303  54.2607918
  64.1602325  60.5566483  53.7977676  65.3712006  61.4646187  53.7868423
  14.9178419  17.8668785  69.8482895  15.7113209  18.4000568  69.8966980
  14.5114517  17.9634895  70.7095413  11.1660099  53.4230804  74.0498047
  10.4591570  53.0958023  73.4934921  11.6827173  52.6459274  74.2625809
  76.6032944  61.8914452  55.3936920  76.3628540  61.8686638  56.3199234
  76.4791260  60.9916229  55.0918083  81.4398346  47.0680656  52.5575981
  81.3451157  48.0205193  52.5670319  81.2559662  46.8180428  51.6521072
  73.9658737  38.0768967  14.1149197  73.5668106  38.9291878  13.9400578
  73.2572021  37.5526161  14.4879417  11.1517496  40.8663635  68.6028366
  11.9881411  40.5153084  68.9085236  10.5658875  40.1095695  68.5867157
  70.1221695  13.0077305  24.1924686  71.0473862  12.7642260  24.2225437
  69.8860626  12.9378901  23.2674770  40.2165413  55.3474236   2.6996417
  40.0080185  55.2494469   1.7705830  39.5943680  54.7735100   3.1465774
  53.0809479  57.9190331  17.0655346  52.7544289  57.8477898  17.9624958
  52.2916298  57.9453278  16.5246887  29.5261879  37.9282494  28.9771309
  28.8430214  38.2147751  29.5832806  29.3657932  36.9917831  28.8607998
  51.6566658  33.2664833  50.8529968  52.0876274  32.5155029  51.2610779
  52.3709641  33.8689613  50.6455727  83.4041595  12.9748573  84.9328232
  82.9554672  12.1554680  85.1414185  83.2916412  13.0756407  83.9876175
  86.2587280  15.4124966  72.2458115  86.3932571  15.0905123  71.3544846
  85.9921341  16.3248978  72.1331863  36.3808632  21.4552021  87.8547974
  35.7196312  20.7794743  88.0044556  35.8859100  22.2742443  87.8341599
  54.3478012  49.8198700  76.1067505  53.6271820  49.9542732  75.4912262
  55.0486794  50.3852119  75.7821198  48.0016975  33.4083862  49.3007507
  48.1921501  33.5707359  50.2246552  47.5188675  32.5818901  49.2973709
  57.6666107  33.3823662  81.5549774  57.2579689  32.5675125  81.8469696
  58.5056801  33.4077492  82.0149307  34.9039307  55.1090088   1.6437248
  35.0939369  55.0809288   0.7059926  34.1546669  55.6999512   1.7186983
  73.6714172  66.3723984  46.1085701  73.1936798  66.2109222  45.2949829
  74.5832443  66.1754608  45.8940201  22.2025108   0.3530234  78.4964371
  22.6248112  -0.0280003  79.2663116  21.5744743  -0.3118656  78.2140808
  12.5770893  54.4815750  54.9735298  12.0987072  54.1466408  55.7319527
  13.4384222  54.0681458  55.0319595  84.9776459  54.0273743  58.4372330
  85.4267197  53.1953888  58.2876816  84.6867371  53.9821930  59.3480377
  49.0802269   0.5998245   3.3798501  50.0264397   0.7158470   3.4662061
  48.7147675   1.4642817   3.5679593  49.3026085  11.7617254  63.1509857
  49.0736465  12.6558352  62.8972626  50.1436729  11.8480396  63.5997543
  54.7032356  47.9211922  11.9413109  54.1577682  48.4620667  11.3702135
  54.6839752  48.3702393  12.7864256  30.7407570  64.7057648  16.3368740
  31.4425926  64.2199936  16.7700996  30.3656502  64.0816650  15.7155638
  41.6782722  64.9396973  69.2885742  41.9809074  64.0614395  69.0576935
  42.0335426  65.0930023  70.1640778  70.3361206  61.3057861  40.2504387
  71.0374146  60.8399773  40.7058983  70.7179642  62.1547012  40.0273361
  62.1015511  62.0219383  18.6979008  61.3540115  61.5583000  19.0753384
  61.7846603  62.3387756  17.8520699  24.1327400  21.2463760   9.2540159
  23.8154964  21.2580853  10.1570387  24.7098408  22.0076027   9.1930075
  79.4939957  32.9320908  15.4503584  79.9881668  32.2724304  14.9636612
  78.5969315  32.8455849  15.1278257  56.9979477  45.9557838   9.4773808
  57.7053452  46.1122742  10.1029453  56.8381729  46.8107414   9.0776949
  11.5202904  52.8719864  33.3849945  10.9760275  52.7696495  34.1657219
  12.3211517  53.2879028  33.7041626  72.3697205  49.6165009  23.1791763
  72.4544296  48.6854630  23.3846760  73.2023849  49.8476334  22.7674942
  80.2950211  13.2235136  -0.0985728  81.1978455  12.9149475  -0.1755933
  79.8939667  12.6337252   0.5398138  40.1181297  66.8287811  45.3211632
  40.7086220  66.3818207  44.7147179  40.6720352  67.0631409  46.0658073
  10.7540541  65.0100327  23.7982445  10.9243040  64.0688858  23.7597923
  10.8357048  65.2304916  24.7261257  57.5211563  66.7938461  18.9669418
  56.7871780  66.3563690  19.3983631  58.1510429  66.9540863  19.6696510
  50.3630066  18.2288647  64.0318909  50.8332176  18.9992294  64.3507538
  50.3095055  17.6493626  64.7918549  85.3139343   9.0782681  17.5813656
  85.0184326   9.4771805  18.3997669  84.6928482   8.3672285  17.4235554
   0.2766209  45.4428864  26.4484539   1.1317283  45.0434418  26.6080418
   0.1073177  45.9671364  27.2312260  41.9553223  26.8043327  77.7610703
  42.7265320  26.6080685  78.2929916  41.8287277  27.7477722  77.8617096
  79.5531998  12.4953051  67.5975113  78.8736801  12.7570896  66.9762497
  79.2795715  12.8825665  68.4290085  34.8766747  12.0121107  70.1918869
  33.9728966  12.0335283  69.8773117  35.3858833  12.4080915  69.4846878
  57.0758247  40.9963684   4.8960280  56.3021774  40.5253448   5.2056017
  57.7673111  40.3347740   4.8768897  11.1468830   4.5875878  20.2399883
  10.5542688   4.3296723  20.9460468  11.2142010   5.5391126  20.3193665
  39.4816017  21.6266575   1.7623760  39.2849655  21.6968002   0.8282204
  39.7856522  22.5000286   2.0093729  57.8939819   8.8156929   2.5727384
  58.0044899   7.9063406   2.8504033  57.5548477   9.2632856   3.3479042
   9.3305025   5.9980354  43.4265900   8.5563955   5.4398589  43.5002708
   9.3080168   6.3210459  42.5258179  78.6770248  65.6463242  77.4475021
  78.1236725  66.4229584  77.5304031  78.8717728  65.5897446  76.5120316
  85.5559616  49.1254692  47.0599594  85.0798340  48.3427391  47.3372154
  85.8787689  48.9119034  46.1845093  30.8785381  45.1298485  63.7639809
  30.1120472  45.1305504  63.1906357  30.5881805  45.5881462  64.5525818
  72.8552551  63.3823204  70.4192200  72.0151062  63.7454414  70.6994171
  73.2163620  62.9777908  71.2080078  44.9153519  53.8611069  19.9435673
  44.3681946  53.9629440  19.1648006  45.4024277  53.0515556  19.7898769
  67.6091385  46.6653061  85.0992661  67.6860733  47.4103966  85.6952133
  66.6753006  46.6178246  84.8944931  21.6346092  64.8210907  57.5776138
  20.9899616  65.1852036  56.9709129  21.1980019  64.8375397  58.4292793
  64.3443604  48.8730698  73.1743851  63.9130287  49.6341248  73.5629425
  63.6706696  48.4693642  72.6272202  42.2807617  14.8918886  74.8846436
  42.4709587  14.0607557  75.3197021  42.9208107  15.5041590  75.2475433
  52.7064629  17.0458050  15.4226980  52.9543037  16.4185925  14.7434263
  51.8761635  17.4124489  15.1187134  42.8989067  61.4225502  12.7463427
  43.5610466  62.0021706  12.3697205  42.5737076  61.8960342  13.5120363
  39.1688004  45.7460022  64.7372818  38.4925728  45.0772362  64.6291351
  39.5023727  45.6081505  65.6238251  54.6586685  24.3689270  25.6131878
  54.2111740  23.8087273  24.9790287  55.5206566  24.5259266  25.2277565
  42.3195915  15.2098980  68.4931870  42.6971283  15.8569536  69.0890198
  42.0465279  15.7181940  67.7294464  40.3386536  35.4805183   6.7274466
  40.3400230  34.9189415   7.5025997  39.5011215  35.2984543   6.3012657
  24.5547256  45.0000572  42.1559410  25.4971199  45.1072273  42.0269585
  24.2769165  45.8126183  42.5787811  81.6946335  34.5521736  79.8875732
  80.8268280  34.5569611  79.4836884  81.5610962  34.1318932  80.7371445
  68.6280518   9.6476460  67.8078079  69.1813278   9.9012375  68.5465927
  68.1901779  10.4579639  67.5472641  26.9333935  56.7984962  56.8006706
  26.0606823  56.6254959  57.1537666  27.3883343  55.9587326  56.8643684
  44.7986565  47.3018417  47.2285194  44.9833870  46.7689171  46.4551506
  45.5123749  47.1009331  47.8338890  52.2710609  21.4998798  27.2884502
  52.8659782  20.9279671  27.7734451  52.3513680  21.2129002  26.3788223
  17.1105518  12.4710903  14.5906038  16.5323067  11.7137785  14.4992561
  17.3573227  12.6936731  13.6929445  11.8943720  49.4390526  28.5772400
  12.4710093  48.9004707  28.0353470  11.4323597  49.9983635  27.9527817
  18.3784752  40.1805916  86.5165176  19.1969681  40.2486382  87.0081177
  18.5144787  40.7336197  85.7471771  50.9177933  12.2420387  75.5662842
  50.1299095  12.5579166  75.1239090  51.6217232  12.3864765  74.9339447
  29.1791210  15.2165499  82.0948029  28.5040970  15.5227547  81.4891510
  29.6520100  14.5431271  81.6058121  21.6039791  14.8064194  84.2499008
  21.6596889  14.6522703  83.3068390  21.7584019  13.9472332  84.6425629
  68.3049698  42.5740852  66.1954575  67.4441833  42.8808632  66.4803543
  68.8869476  43.3187141  66.3473129  15.1738739  34.8361969  81.3164139
  15.4830179  35.7276955  81.1554794  14.2354307  34.9336052  81.4778671
   7.7154822  42.2302780  72.3410568   7.2551565  41.7631760  71.6438141
   7.1670642  42.9940567  72.5202560  25.1089344  65.5705643  81.5282898
  25.6052952  64.7810669  81.3125305  24.4559708  65.2768173  82.1635666
  19.8261147  44.1697960  61.2214699  19.3153152  44.8713531  60.8175774
  20.3142147  43.7806358  60.4958344  49.7246246  38.4967079  59.0359306
  49.7883110  39.3969460  59.3549156  48.8003960  38.3865814  58.8125343
  26.9048061  52.4489670  24.3894386  27.5694866  52.0314560  23.8416100
  27.3405342  52.5885658  25.2302036  62.2014008  26.5003052  63.2446251
  61.9337692  25.5886440  63.3607216  63.0799408  26.5419712  63.6223297
  41.6825752  27.9469833  19.4764175  42.2789040  27.2315063  19.6971302
  40.9416885  27.8335667  20.0717812  38.8208885  32.3014908  13.2594748
  39.7008362  31.9248905  13.2497673  38.8907318  33.0584526  13.8411636
  67.0630875  17.4577389  41.8306885  67.4209290  18.0517406  41.1708832
  66.5326004  16.8367958  41.3314400  20.1189117  13.3573837  46.8752785
  20.6730385  13.6193829  46.1400681  20.6913300  13.4178276  47.6400795
  36.8187218  41.6128769  58.1328621  36.6631355  42.0802727  57.3121490
  36.1480751  41.9460335  58.7290764  84.4147110  59.3197250  51.9052467
  84.3535004  59.6779518  52.7907753  84.8941956  58.4981651  52.0118408
  29.3288651  51.8066978  16.3408451  28.9966583  50.9343414  16.1290398
  29.8939781  52.0336075  15.6023397   5.1179962   1.5305676  86.4519196
   5.3297300   1.7219453  85.5382614   5.5343065   2.2360592  86.9470978
  51.2091560  61.6047363  75.8034668  50.2994385  61.7989426  75.5777969
  51.3563080  62.0702591  76.6267929  54.5522842  70.3107605  36.8546066
  54.8040848  69.4788437  37.2555237  53.6073685  70.2360611  36.7212257
  45.8767738  68.2636414  23.4935589  45.3454437  68.0901566  24.2706184
  45.2563591  68.2249832  22.7656708  31.6925468  23.1652679   9.7394972
  32.1025925  23.6813965  10.4335461  31.5550213  22.3029861  10.1316605
  21.0028419  66.4997864  78.4250183  20.3659000  67.0291138  78.9049606
  21.4694347  66.0124664  79.1040268  43.6314507   1.1959282  35.8172417
  43.2666550   2.0767522  35.9026985  43.2196236   0.6966637  36.5224800
  34.3071671   1.2814268  25.0159950  34.0433884   0.6847253  24.3155670
  34.4397278   0.7148700  25.7760429  70.9288177  70.7430801  21.5031738
  71.7397232  70.2474213  21.3892593  71.0581741  71.2302322  22.3169193
  82.2059402  25.2348595  21.0595760  81.3014832  25.0249481  21.2922421
  82.1496887  25.5831585  20.1697693  86.4773331   3.5507140   1.0870765
  87.2506409   3.2910869   1.5878984  85.8045197   2.9188364   1.3406172
  44.3102264  43.6316948  22.6970062  44.3086433  44.1054840  23.5287228
  44.3877373  42.7107391  22.9461346  63.5380745  31.4118671  19.9014988
  64.0976334  31.9079723  20.4989948  63.3608284  30.5927334  20.3639221
   5.0913014  29.4715500  69.1849213   5.6595702  29.9392281  69.7969513
   5.4505763  28.5848618  69.1542969  81.3387451  16.6284313   3.4471095
  81.2849579  16.1559601   4.2778378  82.2724686  16.8048515   3.3319235
   3.7874448  60.3076859  89.2009735   3.3321824  59.5568886  88.8198242
   3.4014347  61.0679436  88.7659607  44.3281441  38.4070282  56.9325333
  43.7693901  39.0468788  57.3736954  44.1155510  38.5031395  56.0042038
  32.1658287  65.2927246   1.1266603  31.8763428  65.8730621   1.8306755
  32.8858070  64.7918015   1.5099871  61.8127556  42.1260605  74.9654922
  62.2470360  42.0065041  75.8100815  62.4387550  41.7892036  74.3244858
   2.2339952  69.0443344  29.0763493   2.1823826  68.7732620  29.9929104
   3.1720922  69.0786285  28.8891850  47.8955345  18.6917515  75.3650970
  48.4238396  18.3327312  76.0779953  47.3988495  19.4029446  75.7697449
  83.0913239  29.7926540  69.0725098  83.4377365  30.3836517  69.7410583
  83.4414520  28.9334049  69.3077469  56.8361969  21.7112312  40.8108521
  57.4177895  21.0976696  40.3619385  56.0386276  21.7160931  40.2816200
   9.9379349  38.9649277   1.1994168  10.1065083  38.9291611   2.1409769
   9.5123367  39.8115921   1.0642877   1.3980881  70.3640594  21.5144157
   2.0766907  70.0173569  22.0936642   0.6701502  70.5764694  22.0985565
  56.0527611  64.3755341  53.9328728  56.7479362  64.5163040  54.5756378
  55.4783554  63.7267456  54.3395271  76.0397034  21.8421688  23.7833481
  75.4571457  21.0963421  23.9268684  76.6585159  21.5384159  23.1192417
  11.6579885  47.0219727  74.0840454  11.6068859  47.6373367  73.3526382
  10.7469883  46.7939835  74.2693329  75.5864334  61.4147720   6.7510133
  75.6372299  62.1078796   6.0927944  74.8823853  60.8437271   6.4436698
  42.6285744  71.1244202  37.8892593  41.6793594  71.0249023  37.9621925
  42.9834747  70.3192673  38.2660866  35.6530037  27.0434399  20.0120068
  35.0310097  26.6855087  19.3785686  35.2538643  27.8635349  20.3024597
   1.2187459  57.6313515  76.0086975   1.4308469  58.2144470  75.2798386
   0.3465826  57.9074669  76.2903366   4.0987310  33.0849152  86.9182434
   3.2415354  33.0635490  86.4928131   4.5782347  32.3543205  86.5276794
  28.2878494  67.5836258  29.3768902  27.8974476  68.0986557  30.0829811
  27.6275291  67.5879745  28.6839333  83.3352051  29.6561565  60.2592506
  82.9834213  30.3247814  60.8469734  83.7118607  30.1510410  59.5316124
  50.8700943  28.4113827  82.0098724  51.2017822  27.9186077  81.2592773
  51.2894897  28.0042915  82.7679062  49.7440720  48.2367592   0.7161080
  50.1388397  48.3477783  -0.1487989  49.6711578  47.2887115   0.8262067
  66.2317276  24.0942364  10.4448280  65.5189896  24.6295395  10.7936525
  66.3670731  24.4248409   9.5567884  78.0965652  47.4806213  62.3040581
  77.8417435  46.5585289  62.3364563  78.4743195  47.6551437  63.1660805
  85.1997223  21.3664989  39.7444077  84.9419022  21.0575237  40.6129074
  84.4928818  21.0768967  39.1675758  11.0658426   8.3526058   8.3091288
  10.6511068   7.7957983   8.9680605  10.7754955   9.2383289   8.5269051
  12.6154871  14.9258757  24.2267189  13.0204859  15.7904367  24.2955875
  11.9765644  15.0163174  23.5197315  57.7135963  30.4473438  25.0439148
  56.7791023  30.4683094  25.2501049  58.0717354  31.2225685  25.4763470
  50.1991386  49.1868591  38.3881950  49.8333359  49.1275902  39.2707520
  50.1665535  48.2902222  38.0547066  43.1306419  39.2480583  44.1629333
  43.5277710  39.9508553  44.6773186  42.1939201  39.3158073  44.3478661
  36.7406578  56.7384186   2.8018162  36.1786079  56.0340385   2.4790432
  37.1101227  56.3960991   3.6157858   4.0088115  25.1584549  80.7173004
   4.7329483  25.6309052  81.1279678   3.6310396  24.6367512  81.4253616
  71.3853836  48.0707855  17.6303730  71.7808380  48.6845284  18.2493763
  71.8179321  48.2586365  16.7974033  82.7180786  66.0465088  44.8799210
  82.7206421  65.5279388  44.0753632  82.9370422  66.9333649  44.5939522
  78.5946579  35.0234184  45.9143600  78.8647003  34.8557510  46.8172417
  78.9476089  34.2851410  45.4177704   3.3372245  67.8997345  69.3648529
   2.6342003  67.6442719  68.7675858   3.9381380  68.4108810  68.8227615
  59.3254662   8.0206156  16.9291115  59.1247025   7.2408352  17.4466724
  59.1618080   7.7559500  16.0239048  32.6927490  60.5181885  31.5945415
  33.5999146  60.8120155  31.6779079  32.2245102  61.2802811  31.2536640
  61.9830704  30.0935783  48.2706947  62.0943985  29.7061939  47.4024925
  62.6487236  29.6671257  48.8103943  52.1783562  36.3029938  63.7447739
  53.0550842  36.6797256  63.6695938  52.0282974  36.2317810  64.6874542
  45.9846306  48.6854744  83.2140961  46.4832306  48.3469429  82.4704361
  46.4327927  48.3334045  83.9831390  50.9175949   7.9103460  53.0636292
  51.5247345   8.4423313  53.5780258  50.3624535   7.4825583  53.7155876
  68.0292358  50.7500420   4.8441334  67.4181900  50.3506622   4.2249813
  68.1285248  51.6506577   4.5354815  66.2305679  60.5470505  35.7679901
  65.7359314  60.7888336  36.5510063  67.1010437  60.9188843  35.9102669
  22.6405220  55.3419418  46.0019798  23.4424915  55.6504784  46.4237404
  22.0432510  55.1596794  46.7274323  28.6094170   2.0393579  18.4568672
  29.3817768   2.3414571  17.9789257  27.9132786   2.0212450  17.8001347
  24.2246876  44.4509125  35.1398964  24.3921089  45.0992889  34.4559288
  23.5478363  44.8493004  35.6870651  53.2881813  25.5687466  35.1866379
  53.9608536  25.2863445  35.8063049  53.3442078  24.9383259  34.4685402
  30.8212929  70.8146820  25.4123554  30.5909805  69.9021378  25.2378578
  30.0263100  71.3060913  25.2056007  72.7146759  44.6193733  66.9788513
  73.4313126  45.2535973  66.9993210  72.7755356  44.1620560  67.8175354
  27.1287899  49.0766602  64.5573502  26.4356384  48.8132935  65.1626663
  27.8701496  49.2944717  65.1223068  34.4163094  57.8145370  40.7613716
  34.2254601  58.6152077  40.2727623  33.7091026  57.2147598  40.5239677
  80.0778656  13.5495691   3.9500530  80.9592896  13.2642002   3.7094541
  79.4961166  12.9879169   3.4378595  57.6311646  20.3178329  23.0867596
  56.9252739  19.6870327  23.2283287  57.6156502  20.8735180  23.8659935
  74.2799072  16.2316704  68.6021805  73.9414978  16.2439060  67.7068787
  73.6577835  16.7615147  69.1006393  10.5277767  25.5718765  16.4588127
   9.9968929  26.3683643  16.4587765   9.9962940  24.9298077  16.9294567
  71.8798294  26.5432281  20.0340481  72.1273346  26.3583374  20.9400215
  72.7077713  26.5379181  19.5537243  59.8129730  55.5445633   7.4777622
  59.2808952  55.6561661   6.6899357  60.4373627  56.2695312   7.4497676
  48.1677094  58.5111275   0.6490657  48.0296974  59.4559555   0.5820816
  49.0669212  58.3785515   0.3489480  76.9036942  55.2310829  79.8834839
  77.0237656  54.3372726  79.5626755  76.8248596  55.1362877  80.8327103
  51.2057266  28.2778721  74.7265549  51.4213753  27.7340469  73.9689331
  51.6566963  27.8578854  75.4589920  51.7865791   6.4441500  38.5478363
  51.4190063   5.5701380  38.4165955  51.4913445   6.6993799  39.4218636
  13.3877869  69.0802765  81.6929932  13.3396254  69.6434250  82.4655075
  12.4895058  69.0477142  81.3639603  75.9017410  21.2517433  64.0697708
  76.2866516  21.1421299  63.2002525  76.1762619  22.1265526  64.3446808
  28.7621384  63.4171333  35.1245956  29.6968212  63.2158203  35.0790634
  28.3568573  62.8155022  34.5000763  84.2355576   3.0976818  51.7949791
  83.8818588   2.6530538  52.5653267  83.9224701   3.9987965  51.8737259
  18.5239906   8.7573977  14.0683317  18.2437859   8.0145178  14.6029778
  18.7965317   9.4200211  14.7030630  80.9901733  37.9433861  54.1318359
  81.8241043  38.2843285  53.8085022  81.2361145  37.2488022  54.7428131
  74.0514984  59.3705940   3.6471627  73.9049911  59.2199936   4.5810175
  74.4010849  58.5406952   3.3226748  82.7599487  45.2667732  18.3735542
  83.3370132  45.8783722  17.9161987  82.5680466  45.6963463  19.2071438
   7.3499932   7.8968172  10.8983488   7.0120554   7.2164378  10.3160143
   6.8002224   7.8380737  11.6797152  25.3915234  54.0368996  22.1162071
  26.2441807  53.7711220  22.4605484  25.5983315  54.5565758  21.3394184
  56.7397079  65.6679764  80.5039139  57.4625511  65.1689835  80.1234741
  56.1886063  65.8991699  79.7562103  82.7374115  38.3204727   2.1207461
  83.1937790  38.4120522   2.9571495  83.1890640  38.9268875   1.5338066
  50.2240639  30.8333321  76.4222031  51.0257225  30.3102856  76.4207382
  50.2588921  31.3273201  75.6030579  29.6912422  62.3897018  87.4100723
  30.1309509  61.5476151  87.2927017  30.1064453  62.9679489  86.7701721
  52.3424110  15.2434444  34.1974602  51.5794258  14.7105236  33.9736824
  52.6362305  15.6042318  33.3609581  82.6380310  34.9723816  48.9450264
  82.5429535  34.2170792  49.5252914  82.5634537  34.6077843  48.0631294
  84.6606750  21.2978668  77.8117981  85.4050217  21.6545238  77.3270569
  83.9188766  21.8409328  77.5452499  76.7515335  18.3353729  18.9747753
  76.4768906  17.4263306  19.0949707  76.0413895  18.7358055  18.4732018
  50.2045860  46.6616135  66.8058090  49.7503319  47.4098549  66.4184875
  50.7136383  47.0363388  67.5246124  46.1063156  63.3214264  64.4290543
  46.4563332  62.4352913  64.5211639  46.8717651  63.8907051  64.5080566
  33.8132095  56.1296349  60.2319717  34.4417953  55.4385986  60.0232201
  33.4696617  56.4055901  59.3822327  65.1624908  57.2301979  26.4490128
  64.3165665  56.9841843  26.8233299  65.3486023  58.0913811  26.8231201
  64.5243607  22.3855724   1.7071191  64.9922485  21.6075687   2.0104678
  64.4387741  22.2602787   0.7620226  83.7082977  15.5770464  43.2119675
  84.2638702  14.8604851  42.9051857  84.1520538  15.9064426  43.9935112
  27.7225704  48.5600433  43.2311974  27.6233616  48.6946945  44.1736717
  27.6855640  49.4408073  42.8582115  57.1002235  66.0741119  15.5758657
  56.1552467  66.0133057  15.4360304  57.2435417  66.9789276  15.8533678
  42.1651421  59.6546097  87.7278290  42.5054398  59.3126755  88.5545731
  41.2138138  59.6074905  87.8226089  21.0445728  24.1274757  72.5335693
  21.2112465  24.7947102  73.1993408  21.0258179  23.3032627  73.0199356
  50.0115280  46.7557030  85.3850479  50.4606094  46.5061836  84.5773926
  49.0922813  46.5433807  85.2233734  84.9225235   5.5320711   8.8596191
  85.7861481   5.1237855   8.7988472  84.9219589   5.9653463   9.7131433
  20.7463245  22.5890160  70.1165543  20.7791348  23.2974205  70.7594604
  20.2856064  21.8798275  70.5649109  11.1026173  50.4859848  21.6209564
  11.2401924  49.6095543  21.2615528  11.1048365  50.3588715  22.5696754
  28.0848866  59.9907188  12.8841972  27.2131290  59.7514229  12.5695429
  27.9205055  60.5361099  13.6534567  40.3520317  70.1053619  15.9717960
  39.8163109  70.3031998  16.7399750  39.8287468  69.4810181  15.4692087
  13.1838942  48.3362122  17.0248833  13.5534248  49.0940208  17.4780998
  12.3920803  48.1241875  17.5191574  17.2559795  12.5584297  11.7494736
  16.5248795  12.0331326  11.4242210  18.0272713  12.1860237  11.3220940
  15.7523718  26.0494041  51.1070442  16.5599747  25.7275105  50.7065506
  15.1088495  25.3622284  50.9341278  71.1788788  53.5481758  13.1918144
  71.3936996  54.3045425  13.7377062  70.3069992  53.7413826  12.8472481
   5.2326145  66.1038818  49.6262589   4.2801385  66.0223083  49.5776100
   5.4840899  65.5412750  50.3586922  30.8893566  69.1889038  12.5088816
  30.5220604  69.2351837  13.3915949  30.1564865  68.9124222  11.9587069
  70.9155884  52.1186829   6.9921069  70.3155441  52.8097038   6.7116289
  71.1907959  51.6957359   6.1787119  78.5565338  33.3247681   6.7276301
  79.4637909  33.3280563   6.4225068  78.4134140  34.2098045   7.0629864
   6.2423081  24.8908405  83.6788559   5.7602673  24.0854225  83.4913177
   6.0574484  25.0715351  84.6004868  62.5675240  44.8077354  84.7148590
  63.4228706  44.9191399  84.2998886  62.6925697  45.1234055  85.6098175
  29.3127689  39.2170868  26.2639637  28.4661999  39.6556740  26.1791534
  29.3610191  38.9658546  27.1863461  34.9215240  40.9748688  79.9264832
  34.0923195  41.4308739  79.7825699  34.8786697  40.2121544  79.3497162
  46.2336349   8.3013563  73.5633240  46.0075340   8.1557579  74.4819717
  46.4797630   9.2253923  73.5207901  14.9261751  11.5700006  10.4468775
  15.3676720  11.1757603   9.6946230  14.0091763  11.3141041  10.3475676
   6.6789603  47.1052055  22.5318279   7.3523936  46.4291573  22.4564781
   6.0241656  46.7266769  23.1185036  13.1415710  41.2398834   5.4100423
  13.0985146  42.1884918   5.2895622  13.7625666  40.9419632   4.7453299
  47.4135551  67.8193817  66.0722351  46.9886398  68.0960999  66.8840866
  47.7638931  66.9506760  66.2693024  10.1977243  60.0408440  41.5162392
  10.4009962  60.9267540  41.8163681   9.6921282  59.6556091  42.2319221
   4.8914208  56.4447174  33.8783340   5.4352860  55.9638519  33.2544670
   4.1574483  55.8573608  34.0586891  80.4658661  45.6885147  17.1634445
  81.3767319  45.5102654  17.3974762  80.3608322  46.6287689  17.3087635
  67.4565201  12.2032795  74.0646210  66.9918442  12.3604755  74.8865738
  67.0640717  11.4024191  73.7170029  25.9607258  22.4286118  40.6437378
  26.3242130  22.9343338  41.3706169  26.2546806  21.5320702  40.8050995
  24.2666225  20.8982620  87.7203522  25.1010990  20.4328594  87.7776337
  24.4445877  21.6385727  87.1402664   4.7138433  54.4297447  37.2546959
   4.2966685  54.9033051  36.5350151   4.0713215  54.4570541  37.9636765
  30.8483028  67.4806290  31.7085552  30.6851540  66.9179688  32.4655418
  31.4997997  68.1114197  32.0149689  60.0438080  60.5241966  25.2733212
  60.2916718  61.4093781  25.5402393  59.5349045  60.1855812  26.0099258
  68.4398727  44.7292976  32.6663246  68.4328613  45.0623055  33.5637016
  69.3077393  44.9572372  32.3330383  33.4412651  41.9015465  72.1658096
  34.0712395  42.4900818  71.7498856  32.6115837  42.3778572  72.1343307
   1.4786928  34.1301842   0.8478938   2.2411218  34.5464096   1.2500005
   1.6587522  33.1919632   0.9075012  79.7931976  45.5762520  34.1697960
  79.8653870  44.7289619  33.7303467  78.9639893  45.9382286  33.8573608
  55.8048058  48.8103981  82.6774673  55.3633156  48.9109955  81.8341370
  56.2925682  47.9908142  82.5961990  34.8780289   7.8076000  45.1753922
  34.8721657   8.6383390  45.6508598  35.2126579   8.0310774  44.3068810
  69.9485474  23.2003174  20.5544720  70.7932739  23.4121799  20.1572514
  69.6424484  22.4327946  20.0713120  76.2935638  50.9737434  75.6604233
  76.6853180  51.6788673  75.1450958  76.4166107  51.2450562  76.5700836
  54.6065331  33.4671669  82.0368500  54.0555611  32.9911575  82.6582031
  55.4866486  33.4169273  82.4098206  81.4183197  65.3228455  27.0723286
  81.3285141  65.8850861  26.3028793  80.7937851  65.6796570  27.7038975
  68.7494049  36.0889244  39.5591202  68.6913376  35.8493156  38.6342163
  68.5399628  35.2818489  40.0292282  75.5204315  58.8197861  55.8756142
  74.8253174  59.3691139  55.5132790  75.4537506  58.9426498  56.8225479
  27.0268707  59.1117058  61.5168991  27.2103996  59.0841408  62.4559364
  26.9234142  60.0427666  61.3203049  21.6191502  15.6783199   4.5565062
  22.0510063  15.1475220   3.8871882  20.7363243  15.8218842   4.2155676
  84.7607727   3.7901058  43.2026978  84.9157562   4.1952081  44.0559883
  84.6377182   2.8610404  43.3974457  71.5596390  19.0192890  63.3309860
  72.4518433  19.1602955  63.0142403  71.1333313  19.8706913  63.2329903
  60.6910286  32.8782425  41.7824211  60.3418083  32.0349388  41.4941254
  61.6409721  32.7613831  41.7687874  74.3937836  42.4600792  48.6349182
  74.6355667  42.9167061  47.8291473  73.6529694  41.9081268  48.3843575
  40.1997910  70.9998016  56.7769547  40.9737663  71.5170822  56.5542183
  40.3435898  70.1565247  56.3474922  17.4914169  47.8207397  77.4132233
  17.6122837  47.7575340  78.3606491  16.5642433  47.6260643  77.2765350
  54.7675323  42.9553947  49.4602623  53.9031677  43.2506866  49.1740646
  54.6568794  42.0199471  49.6303291  36.5478783  57.3141327  24.8080807
  36.5647240  57.5253983  25.7415218  36.6678963  56.3650589  24.7751083
  58.1624832  52.7320862  34.0933762  57.5517883  53.4250374  33.8421669
  57.9087181  52.5015793  34.9870758   4.7665262  53.2916985   3.2101955
   4.1779642  52.5919418   2.9270589   4.3111272  54.0990219   2.9713013
  17.9377670  52.6690903  10.6993198  17.3449993  52.0350037  11.1027966
  18.0420189  53.3536835  11.3601465  49.8731728   3.9536533  78.6022873
  49.8198700   3.0830171  78.2080994  50.8055115   4.1693740  78.5813522
  34.2230797  45.0696259  15.1897345  33.5801468  45.7457085  14.9757729
  34.1605148  44.9717140  16.1398563  34.5252533  59.9173393  60.3395576
  34.5084686  58.9654770  60.2400093  35.0100594  60.0647125  61.1516418
  40.5451279  46.8471794  56.9288673  41.4131775  47.0353508  57.2856789
  40.7017784  46.1876450  56.2530632  63.0127220  35.6097260  75.5973129
  62.3415680  35.2679176  75.0065918  63.1031609  36.5300293  75.3501434
  82.1453781  68.2247849  73.1827850  82.2210617  67.9617386  72.2655563
  82.4020386  69.1469040  73.1894684  11.6756830  70.4921188  47.4589577
  10.7630033  70.5583954  47.1781464  11.8395281  69.5510712  47.5207329
  73.9288025  37.2463264  17.9213772  74.6848373  36.7714958  17.5761547
  74.0922699  38.1598663  17.6869621  46.5493546  68.1743317  43.5073814
  45.6101151  67.9986115  43.5637894  46.9482765  67.3112717  43.3968582
  49.3451805  23.3709431  89.2614746  49.3356056  24.3263588  89.3191071
  48.7014923  23.1654320  88.5834885  19.2678509   8.7661772  69.7041016
  18.7007046   8.8513956  68.9377365  19.8279152   8.0158072  69.5053406
  75.1056290  39.2962112  88.6476593  74.4521942  38.9901314  89.2765961
  75.9365158  39.2414551  89.1197433   5.2370377  29.7348251  78.6266632
   4.6345716  28.9993534  78.7377853   4.6679707  30.4995956  78.5399323
  84.5462723  27.9689579  42.5482101  83.7182922  28.3112125  42.2112389
  84.3341141  27.6492252  43.4251289  37.6954231   1.3509699  64.8270645
  36.8389359   1.5774950  64.4646378  38.0011482   2.1578403  65.2414627
  60.5792694  63.0961418  59.3645897  60.6795731  62.6111412  60.1837006
  61.1293602  62.6252937  58.7385445  50.1192131  48.7417336  86.9795761
  50.8374710  49.2067642  86.5505219  50.0456772  47.9178619  86.4978485
  60.3936882  16.7753334  82.6613007  60.7371254  17.2150097  81.8835068
  60.9653893  16.0168018  82.7797089  68.4297028   5.8078971  29.4479733
  68.3041458   6.2574172  28.6122704  69.3322449   6.0093646  29.6950760
  38.8240814  63.6314163   6.1348882  38.4823799  62.7397881   6.2017322
  38.1998138  64.1646729   6.6269822  39.3101234  13.4198790   6.1373034
  38.9092102  13.9668722   6.8128018  38.6270752  12.7924833   5.9005537
  14.0613289  47.2463531  49.5466232  14.4937258  46.3975716  49.6406174
  14.7799158  47.8740730  49.4702721   6.3472900   3.8243816  30.8041954
   5.4679699   3.7415383  30.4351902   6.3284292   3.2814825  31.5923176
  27.2291698  56.6925316  22.1490612  27.0879993  56.8366966  23.0847530
  26.3983841  56.9366379  21.7410927  74.0175476   3.5111244  36.7972755
  73.6847458   3.0727015  37.5803871  73.5845413   3.0639060  36.0701332
  40.3277855  17.3472233  17.8531647  40.1578140  16.6975307  18.5352478
  40.9341507  17.9670696  18.2585602   9.4707384  25.4714394  66.9705658
   9.6666765  26.2567673  66.4595871  10.3284426  25.1309032  67.2247543
  83.3186111  23.6077785   5.3033600  83.5063171  23.0339012   4.5606208
  83.2108841  24.4756565   4.9142375  36.6735535  51.4882126  18.3123913
  36.3060379  51.0840645  17.5263691  37.0697746  50.7611542  18.7926311
  44.4649887   4.1255908  49.9530869  44.1979446   3.4775407  49.3012047
  44.8501015   4.8363214  49.4404640  65.8711929  37.7189331  44.7504082
  65.3102264  37.0433311  45.1313362  65.2853851  38.2296028  44.1915894
   3.3709795  42.6616325  63.6754036   3.9185367  42.0721283  63.1568489
   3.3122668  43.4589806  63.1490746  70.5621643  39.3060951  12.1315289
  71.0040054  38.5796280  11.6919270  69.6446152  39.2202034  11.8727598
   3.8297133  21.5160522  80.2275238   3.4296420  21.9545574  79.4766006
   4.0037827  22.2206841  80.8515625  84.9760284   6.7723126   6.2940788
  84.2026978   6.4930558   5.8039713  84.9043350   6.3182726   7.1336856
  16.7770901  40.1109734  76.4250031  17.6276951  39.6735077  76.3885803
  16.1809921  39.4471245  76.7717133  69.2710419  52.3640785  27.1554909
  69.3312912  51.9056587  27.9936161  69.4603500  53.2779427  27.3681850
  71.0833359  32.0339737  53.7789917  71.5570068  31.2230453  53.5939026
  70.2108688  31.8907852  53.4122009  30.1023846   9.1251707  72.4258652
  30.7492695   9.1370802  71.7204361  29.3244495   8.7314682  72.0308380
  56.6836166  27.5894642  74.0824127  57.4563103  27.0322952  74.1758881
  57.0161972  28.3961334  73.6888275  36.0481644  45.3570595  38.3050766
  36.7841759  44.8330383  38.6211891  36.0392303  45.2113380  37.3590775
  63.7983589  54.7373466  44.5294609  62.9605103  54.6025352  44.9722519
  64.2335663  53.8860779  44.5760231   2.9579194  16.0954361  68.2685699
   2.5339782  15.2379465  68.2336502   3.6187930  16.0642338  67.5768356
  12.1242523  62.7875023  57.9808159  11.8879337  62.0976143  58.6008492
  12.3976898  63.5211067  58.5315323  55.4602661  42.4702072  13.0152740
  54.7322502  43.0868454  12.9379187  55.3401833  42.0643425  13.8738117
  77.0252991  40.4814720  48.6492195  76.3557434  41.1427193  48.8243637
  77.5383530  40.8453712  47.9277077  39.3940544  37.9642792   8.6643810
  39.5761185  38.1833038   9.5782261  40.1806526  37.5075340   8.3662615
  79.8676910   3.2743280  66.1500320  80.7047577   3.7202458  66.0207901
  80.0355835   2.3691068  65.8880844  76.6619949  53.9462318  76.2866287
  76.8424072  53.8588409  75.3506546  75.7693405  54.2893448  76.3274765
  80.9158707   9.9866705  64.0686340  80.5741043   9.5250139  63.3029289
  80.8714066  10.9125004  63.8296890   8.8672009  40.0198822  20.2393246
   7.9637280  39.7223740  20.1322746   9.1995630  39.5142746  20.9810314
  60.1092415  49.5445366  21.7309647  59.7270889  50.1183052  22.3950329
  59.5593910  49.6732521  20.9580936  81.2451401  63.5777321  62.8483887
  80.5891190  63.2362289  62.2407303  81.9824142  63.8254929  62.2904778
  50.8168640  36.9273682  22.0157757  50.1014252  37.3083458  21.5066242
  50.3955269  36.2628250  22.5608406  69.5900879   4.4009619  38.0349998
  69.2300262   3.5270915  37.8835526  70.5285416   4.2557945  38.1552582
  59.6528969  25.6188183  40.0848351  60.3311119  26.0582199  40.5978470
  59.5371628  24.7721596  40.5161209  65.7957840  33.8196144  38.3371315
  65.4251709  33.2381706  37.6731987  65.6913147  34.6980286  37.9714775
  69.9796219  36.9577103  18.0411167  70.2174454  37.3344460  17.1939201
  69.0225372  36.9706650  18.0488148  72.0824280  27.2324238  57.1163864
  71.7297363  28.0548573  56.7766113  71.5931473  26.5524921  56.6532135
  81.2333221  30.8591671  45.7461014  82.1508179  30.8090000  46.0142708
  80.9683151  29.9470959  45.6272430  31.9598866  48.5354576   7.9688272
  32.5004463  47.7841721   8.2129517  31.8501453  48.4538116   7.0214510
   2.3646588  10.1771107  69.6689453   2.6442332  10.8251314  69.0223083
   3.1430166   9.6418934  69.8236542   2.2828364   3.1558156  27.2209187
   2.2034500   2.4963961  27.9101906   3.0199845   3.7013834  27.4951458
  62.6192474  13.1974115  80.8090668  62.2782211  13.3091516  79.9216843
  63.2563171  13.9044170  80.9116211  38.9591064  71.0868301  67.0675507
  39.1743279  70.6488266  66.2441025  38.0053291  71.0312195  67.1262665
   5.0719686  18.3531303   4.7607617   4.4961252  17.6635952   4.4303432
   5.3960257  18.0149689   5.5955472  69.1228790  61.9370499  88.5512772
  68.2106094  62.0316467  88.8252258  69.5589218  62.7156105  88.8976059
  71.5800323   2.5094931  12.7695999  72.0031738   2.6615276  11.9245758
  70.7827148   3.0381162  12.7367620  72.1637039  21.4581299  45.9741669
  73.0714951  21.6927071  46.1668396  71.9438019  20.7946548  46.6281357
  40.8402176  30.6254711  27.4690208  41.7373161  30.3724937  27.6868343
  40.5244026  29.9227276  26.9010029  73.6820831  57.9804573  86.7834015
  73.9706268  57.9846191  87.6960678  73.6536636  58.9049530  86.5369720
  49.7143822  69.2024078  64.8799057  50.1703339  69.7615891  65.5089188
  49.0761604  68.7208176  65.4061890   6.6918578  62.2158432  46.6773453
   6.3421402  63.0851021  46.4816017   7.1563344  62.3258018  47.5070457
  46.2472382  47.5394669  35.5639305  46.8401184  48.2748451  35.4092064
  46.6249428  46.8175011  35.0615959  57.2530937  14.1817493  68.3642426
  57.5065956  14.7732229  69.0728531  57.5647278  14.6135216  67.5688248
  55.9556999   0.0789639  67.3442917  56.5897942   0.6812373  66.9551620
  55.5979347   0.5579565  68.0918198  49.4265938  20.7722263  82.4172592
  49.1442032  19.9009075  82.6952667  50.2357826  20.6175842  81.9298859
  38.1956863  25.6101971  64.9769135  38.4382401  25.2109756  64.1414413
  37.3215675  25.9697666  64.8257370  49.7370071  61.7688942  85.7717514
  49.7951584  62.5043182  85.1618271  48.8427734  61.4431076  85.6695557
  55.0251579  60.6969147  52.6507492  55.8047829  60.3052940  52.2569809
  55.2107239  60.7076111  53.5897293  31.0861435  29.0042229  85.7555542
  30.2135162  28.7498798  85.4554443  31.0721111  29.9612980  85.7491608
  28.9273281   1.4371101  70.6354980  28.0292244   1.6062644  70.9201508
  29.4376698   1.4286863  71.4452515   9.3139277  18.9154434  77.5434570
   8.7934771  18.7811661  78.3355026  10.1392307  19.2838078  77.8587570
   8.9797735  35.3731880  15.8878870   9.4588671  35.9584541  15.3012295
   8.1469069  35.8187256  16.0429993  52.0913391  60.5657387  21.2608204
  52.9700813  60.5456886  21.6398220  51.5042763  60.4901733  22.0130672
  29.0209274  68.5751266  68.8804245  29.5611210  69.3443146  69.0614777
  28.1961136  68.7496414  69.3337021  72.4837189  25.6074905  64.0058136
  72.9202957  24.7623863  64.1127319  72.9318008  26.0165825  63.2654762
  26.1705284  54.2591934  28.3820210  25.8012295  53.4604530  28.0053711
  26.3632355  54.0285797  29.2908173   8.3518972  69.5348587  64.5294876
   8.8971691  70.3163757  64.6197739   8.7810583  68.8786469  65.0785141
  72.5176468  61.8194656  68.2151566  72.7398300  62.5268898  68.8204803
  71.8093262  62.1763649  67.6793060  62.1728096  45.3704758   4.4698944
  62.0086098  46.2598839   4.1564879  62.7551384  44.9887657   3.8130667
  38.1029663  46.1835022  14.1532507  37.6395187  46.7568283  13.5427198
  37.5625687  46.1881142  14.9433012  10.3111305  30.7224998   2.7050681
  11.1210194  30.5864391   2.2133384  10.4954157  31.4755764   3.2664468
   4.8665233  45.7766075  85.0046158   4.0420132  46.2231560  85.1969986
   5.4819312  46.1205673  85.6520767   2.1447639   2.0798802  83.8320084
   2.0479195   2.8862829  83.3254776   3.0906520   1.9441001  83.8876038
  43.2407875  25.1538105   6.6583123  43.3378029  24.4464836   7.2958922
  42.3784218  25.5259781   6.8428335  52.8023186  49.9672012  69.5482712
  52.8389359  50.7868080  69.0551834  53.6853790  49.6048660  69.4765320
  74.8187256  16.1618099  72.4439011  74.2450562  16.8014278  72.0219803
  74.9619675  16.5118809  73.3231964  69.0340195  63.5476456  74.8706970
  69.8525009  63.0843773  74.6926193  68.7645950  63.2345772  75.7341995
  36.5988121  65.2218094  21.1676712  35.8544426  64.7267151  21.5097618
  36.8130074  64.7910461  20.3401489  29.3065548  48.6435013  15.5020971
  29.3381824  48.8448486  16.4373455  29.4450550  47.6975021  15.4559412
  69.6949921  48.0910606  35.2619286  70.2968216  47.4233017  35.5907631
  69.8100815  48.0702782  34.3118973  44.5778580  20.0331993   8.5865602
  44.4941254  19.3091278   7.9661236  43.7678452  20.5325146   8.4826746
  72.3409195  42.1705208  50.6780739  73.0099411  42.0030632  50.0143013
  71.8893051  41.3326874  50.7796478  79.6599197  66.7784500  51.2714691
  79.3642273  67.6730423  51.1026230  80.5074158  66.7190704  50.8305054
  28.2064266  69.3539124  54.1873550  28.3903542  69.9697342  54.8967018
  27.6535034  68.6838455  54.5892487  85.2621689  62.7327347  51.9593658
  84.4046860  62.4437485  52.2715187  85.7323990  61.9217682  51.7658424
  68.5382843   2.0066273  36.5827675  68.3591232   1.9198849  35.6464958
  67.7483749   2.4112525  36.9413033  78.2035065  30.5750027  34.4525070
  78.7037430  29.8100700  34.7368889  77.7086563  30.2685852  33.6925964
  63.9245377  64.9980927  74.4552536  63.9290848  65.9515610  74.3709030
  64.2494888  64.8344193  75.3406067  81.5209274  29.0889320  75.2444382
  81.0683594  29.0474796  76.0868683  80.8926620  29.5066261  74.6553345
  73.5393677   8.5527267  64.2370605  73.7808304   7.8436604  64.8330002
  72.7523041   8.2356977  63.7940483   8.5585423  46.7997856  26.7670040
   8.2314053  46.2074394  26.0899963   9.1806040  47.3657379  26.3098755
  74.7514114  31.4920521  88.3492889  74.9281769  31.7069016  87.4334106
  75.6057663  31.5470963  88.7774048  -0.2484434  68.3085556  27.3489170
  -0.0944273  68.0678406  28.2624645   0.3697164  69.0198669  27.1811695
  73.7585602  66.8142014  54.3009415  73.6424408  67.7349319  54.5354576
  74.5475693  66.5449219  54.7712479  56.7965393   7.5661030  47.3663139
  57.3524094   8.2703800  47.0327950  55.9138603   7.8021445  47.0810127
  77.0376129  50.8457527   5.8372831  77.1931839  51.5683365   5.2290874
  77.6127014  50.1453362   5.5291862  54.7669830  20.8150749  28.5409565
  55.2190819  21.6579247  28.5029602  54.6491699  20.6484222  29.4761448
  53.6139603  52.2763824  45.4616280  52.6646767  52.3399086  45.3564758
  53.8694000  53.1162262  45.8432655  49.2271271   5.7261009  41.2295761
  49.7674980   4.9406104  41.1445198  49.8383636   6.4520187  41.1044235
  34.6050377   2.8588324   5.6211004  34.9729385   3.5365555   5.0540280
  33.6643791   2.8844883   5.4457760   4.3159118  62.1884727  33.9920540
   4.0879831  61.3195915  34.3226967   5.2410841  62.1199150  33.7562828
  48.8577766  11.1769676  49.9638672  48.2169037  10.4863749  49.7947578
  48.6999550  11.4328728  50.8726234   2.8585622  47.8860817  56.9250641
   3.6445684  47.8180809  57.4671021   2.4453347  47.0253754  56.9933472
  17.0550900  51.5222511  38.4297714  16.2044621  51.5137672  38.8686218
  16.9312325  52.1023178  37.6784935  41.7842293  58.3857574  17.6615772
  42.6709061  58.3350143  18.0185947  41.2414207  57.9262085  18.3022079
  50.3106155   2.6329017  25.3596497  49.5022926   3.1288190  25.2296009
  50.2543564   1.9138708  24.7303162  71.0803680  59.9774055   7.3786645
  70.5034714  60.6905785   7.1051641  70.5444794  59.1890678   7.2916203
  32.4005394   4.6360874  14.6052256  32.0171318   4.8641109  13.7583275
  32.1122742   3.7373190  14.7644453  44.8300972  49.2872276  32.2836533
  45.3170471  49.8541145  32.8817749  44.5267944  49.8741531  31.5910072
  45.5442390  46.5243492  27.4979000  45.7455177  47.1190147  26.7753391
  45.6026154  47.0710945  28.2814159  68.1723557  30.7280216  67.4900970
  68.7694016  30.4600677  66.7915497  68.7430038  31.0953579  68.1651230
   4.7011042   4.0675058  70.8201599   4.2095394   4.2495193  70.0192413
   5.5210018   3.6791306  70.5149307  85.6519699  50.6856117  30.7385807
  85.7599487  49.7472954  30.8939323  86.3168259  51.0977859  31.2902279
  29.6082458  53.8349190  55.7170792  28.7585526  53.5100403  56.0149193
  30.0086460  54.2117081  56.5006256  25.7808895  41.5557747  59.1811867
  26.4808636  42.2083206  59.1598625  25.7836304  41.1728325  58.3039284
  68.6837463  14.9464283  76.8939285  68.7999191  15.1883459  75.9751205
  68.4638443  15.7685480  77.3320999  43.0017357  41.1044807  21.9010258
  43.1944923  41.8059883  21.2789650  42.2562523  40.6424751  21.5175629
  43.8708611   2.3826306  38.3885803  43.3257408   2.4655766  39.1710091
  43.7733040   1.4677401  38.1245880  21.6469250  48.2935562   9.0672579
  21.8558979  48.4342384   8.1438017  20.9379845  47.6504898   9.0571260
  41.0650368  48.5562401  75.7454376  41.5953941  48.6959076  76.5299377
  41.6763725  48.6757202  75.0186386  21.7524052  55.2081413  55.0520096
  21.8654232  54.4617424  54.4634972  22.5807800  55.6845245  54.9964676
  16.3524437  62.2144737   9.8948956  15.6310186  62.1202469   9.2728844
  15.9734249  61.9721146  10.7397861  76.8236923  60.1196098  71.2551956
  77.1975174  60.9155579  70.8770981  77.3216705  59.9803314  72.0607071
  84.5017929  39.5377274  48.1856422  84.7598190  38.6627197  48.4754944
  85.3124237  40.0462532  48.2082100  60.5320778  67.5232849  14.6417217
  61.4565506  67.6864319  14.4547272  60.2581024  66.8996811  13.9692020
  85.1492233  62.8291588   7.1473141  84.3952026  63.2718964   6.7578716
  85.3221436  63.3151054   7.9536557   8.4601603  33.3167381  50.5246811
   7.7522373  32.9458733  49.9978638   8.0400200  34.0058250  51.0393410
  43.7149239  44.4728317  58.4350739  43.6564941  45.0882607  57.7042770
  44.5890617  44.6147079  58.7983742   6.4357271  66.4235229  40.7670860
   5.6253548  66.5917358  40.2862167   7.0635018  67.0485916  40.4045563
  15.2938995  58.6510429  16.4364128  16.1582737  58.6141701  16.8459587
  14.6801634  58.6388855  17.1708603  40.9670143  47.8292351  29.5206146
  41.0992317  47.7358284  30.4640255  41.8291397  47.6612663  29.1401443
  42.5687828  59.6061668  68.8681107  43.2579613  59.0567398  68.4947510
  42.0284081  59.0006981  69.3756866   2.5278056  38.8812180  71.1608124
   3.0436726  39.1961098  70.4185486   2.8098884  39.4249153  71.8963776
  57.6676826  40.9648895  25.0881310  57.3015137  41.0231094  24.2056541
  58.6095047  40.8636551  24.9504547  27.0695400  43.0090981  81.0637970
  26.9524937  42.0713654  81.2160797  26.3159771  43.4169312  81.4904709
  23.8734589  66.2998047  28.0783501  23.1324825  66.6676636  28.5598736
  23.7986336  66.6745987  27.2007637  57.6854515   5.5934067  37.5364799
  57.3475533   5.5096169  36.6448288  58.3040771   6.3224030  37.4906616
  75.6308212  15.7346592  33.6806831  76.1355896  15.3114939  32.9861526
  75.5645828  15.0708237  34.3670998  53.3321228   9.0038948  44.5642166
  53.1141510   9.2822323  45.4537392  53.8778152   8.2265654  44.6834335
  41.9799652  43.5306969  24.9858780  41.6557388  42.6753731  25.2678795
  41.3563805  43.8147659  24.3175354  63.3200912   4.7819386   7.2037969
  62.5589714   5.3563552   7.2872858  63.7546692   5.0750585   6.4028878
  55.4976921  50.4979057  63.0367851  55.2641029  49.6896019  62.5803680
  56.4542618  50.4865723  63.0695953  16.3790302  51.1315269  88.9589767
  15.6148539  51.2869911  88.4039154  16.7475204  52.0022011  89.1085587
  45.3463707  50.2593994  67.0217590  46.2693672  50.1273422  67.2382431
  44.9785385  49.3761902  66.9922562  33.4982071  57.5927048  55.6757126
  34.3659134  57.9871254  55.5876808  33.6457100  56.6566963  55.5402222
  72.0482483  66.3920670  30.2062893  71.8626938  66.0547562  31.0826607
  71.3160629  66.0851822  29.6715412  11.5355511  57.1317711  51.2678413
  11.2534580  56.5537872  51.9767799  12.1788349  56.6169090  50.7806702
  84.7545624  46.5932732   1.3337893  84.1536407  46.4816551   0.5971319
  84.5407715  45.8742332   1.9283538  56.0075264  48.5233192  20.3781719
  56.0707741  47.5835037  20.5484009  55.3081703  48.6026955  19.7294598
  77.0497055  17.4252701  67.8648911  76.3540268  16.9421329  68.3108063
  77.5976944  16.7467365  67.4705124  34.9993286  50.5290146  43.1467705
  35.3772392  51.0864906  43.8269463  34.8655243  49.6842079  43.5764580
   8.3123484  34.1009750   6.3392220   8.5278692  33.6433678   7.1518588
   8.8785143  34.8727798   6.3415618  84.3483582  19.3029709  80.9010391
  84.0612183  18.6214790  80.2932968  83.5401306  19.6215153  81.3029404
  54.6854210  30.4237785  58.0496674  55.5438538  30.0342884  57.8834648
  54.7547264  31.3131943  57.7027245   8.3326149  60.9771690  64.2939606
   8.2501011  61.7348633  63.7148933   7.5071445  60.5041695  64.1885910
  52.5065002  70.4285355  14.0481758  53.3629608  70.1287918  14.3528996
  52.0744019  69.6357269  13.7304087  24.9050007  65.5600967  53.8549690
  25.4021568  64.7631760  53.6706352  24.5223923  65.8040390  53.0121536
  26.1494656  13.0948277  14.1124249  26.3518143  12.9792337  13.1840258
  26.7008533  12.4526978  14.5594959  17.9939098  14.4602880  48.1319084
  18.7760105  14.2390537  47.6263313  17.3033371  14.5545979  47.4758224
  29.2296429  25.2676601  11.0041361  29.8935013  24.6089153  10.8002300
  29.7311001  26.0505562  11.2318354  17.6635876  38.5689926  62.9625511
  17.0051346  39.0132637  63.4966812  17.9027538  37.7947998  63.4721184
  76.3952484  44.6257858  51.7447853  75.8851013  44.3527756  52.5073128
  75.7528610  45.0224571  51.1563759  54.5977859  56.2172890   0.3716931
  53.9047470  55.8692017   0.9327316  54.8703308  57.0274963   0.8024075
  29.1435356  51.4391632  12.1470938  28.6536922  50.6202316  12.0719995
  30.0527725  51.1905174  11.9806719  27.6707039  39.4298248  71.1105728
  28.2488556  38.6816597  70.9614944  27.1685371  39.5097923  70.2996140
  58.5050278  49.7760963  19.6193447  57.8120880  49.1165314  19.6515350
  58.1732063  50.4429588  19.0181637  36.4236984  36.1819611  24.4471989
  36.6146812  37.0245667  24.0351620  35.7427864  36.3787880  25.0905075
  49.7930870  48.8277817  54.4182587  49.2205276  49.1892891  53.7417068
  50.6677704  48.8528328  54.0302658  11.1218176  47.8461113  69.0252762
  11.2644978  47.1201515  69.6326065  10.9038401  48.5894623  69.5875473
  27.0914764  46.3770370  37.9855270  26.1514587  46.3614349  38.1653976
  27.4423790  47.0210304  38.6006432  67.2265701  25.0205784  18.1169586
  66.9726105  24.5193615  17.3420277  68.1617966  25.1867847  17.9988117
  83.2399979  50.3191185  62.9295349  82.3300552  50.5387230  62.7295265
  83.4825439  50.9210091  63.6331863  57.0269127  13.4785137  39.7826538
  56.8268890  14.0805292  39.0658531  56.1979256  13.3797998  40.2509155
  17.4507370  15.1276751  30.3317146  18.3375645  15.3316221  30.6286602
  16.9320507  15.8915577  30.5840626  10.6007805  62.3591194  42.6813507
   9.6538486  62.3648453  42.5416412  10.8756371  63.2571220  42.4962158
  13.8747911  25.5480194  79.2197113  13.5017653  26.3847160  78.9421844
  13.5445938  24.9152431  78.5819092  23.8979149  66.6991043  14.6777077
  23.2373238  66.1598282  15.1124945  24.1161041  66.2148972  13.8813572
  36.4796028  12.1827364  78.4238739  36.9612083  12.1964312  77.5967712
  36.1036568  11.3035402  78.4675980   8.7512283  54.3646355  75.7382050
   8.4485807  54.1274452  74.8616333   8.7933941  53.5329819  76.2102280
   6.3516560  42.3024406  77.7428284   7.0636139  42.8762093  78.0259094
   5.7294874  42.8878937  77.3111038  58.2332726  65.6977844  54.9643364
  59.0265465  66.1526260  55.2472954  57.5162048  66.2285995  55.3111496
  46.9310837  43.1466980  70.4990234  46.4622955  43.6678963  69.8472366
  47.2862663  42.4080162  70.0046234  83.0526886  68.3403244  10.4415846
  82.6136551  68.8146133   9.7355118  82.3541565  67.8421783  10.8660088
  -0.0037864   3.7853699  80.1291656   0.1981358   4.5711856  79.6212769
   0.7483918   3.6764293  80.7110519  15.3922758  44.7835236  49.6385231
  16.1281109  44.1739235  49.6948051  14.6584139  44.2462349  49.3401947
  62.5913200  41.9181938  37.7719078  62.7341156  41.1555138  38.3324089
  63.3831444  42.4453545  37.8784676  73.1245041  30.1683693   1.2396998
  73.5299149  30.4751244   2.0507319  73.7665710  30.3711700   0.5593654
  26.1502800  50.3080635  88.2161560  25.8728809  50.2874298  87.3002625
  25.7035065  51.0702057  88.5846176  81.5163727  46.7566376  30.5275173
  81.1467667  47.0923157  29.7108517  81.7659149  45.8550644  30.3247261
  41.9456825  11.5003395  78.8101044  41.6362152  12.3721170  79.0559998
  42.8913536  11.6031332  78.7034836  81.7233734  64.1164474  14.0366411
  82.6397705  64.0239334  14.2971773  81.4167328  64.8899002  14.5099010
   0.5399188  50.1206589  84.4264908  -0.0697357  50.8327217  84.2327805
   1.3217568  50.3289566  83.9150467  84.3398895   2.9225340  80.2729874
  83.9187546   3.4060235  79.5622711  85.2710342   3.1244888  80.1811981
  68.4661026  59.0546455  31.7324200  67.7485962  58.5179787  31.3956699
  68.3476334  59.9053421  31.3099136  28.4030952  33.3209152  67.5760727
  27.9816475  33.7072144  66.8083572  29.3327351  33.2921028  67.3498611
  70.4083328  18.9899788  57.9858284  71.1842728  18.7504578  57.4791031
  70.7352600  19.5920849  58.6542740  16.9313297  66.0228653  79.6739273
  17.7929573  66.4059372  79.8384933  16.4096603  66.2696838  80.4375839
   7.5173616  39.5483665  13.5835609   6.6501646  39.9525185  13.6129131
   8.1184521  40.2534065  13.8240643  25.6845760  42.9809875  37.0485954
  26.3900528  42.7574120  36.4415131  25.1919765  43.6686211  36.6005554
  74.3892593  60.5282898  10.2937889  73.5868835  60.0228806  10.1634436
  75.0889893  59.9486961   9.9926462  57.6088142  19.8473797   2.1053743
  57.8735733  20.5593910   2.6877608  56.8228073  19.4840145   2.5132856
  17.4277020  56.1578407  55.6154709  16.7702637  55.6156311  56.0513763
  17.4443722  55.8358803  54.7141953  52.0994606  26.8616600  83.6127319
  53.0456467  26.9537354  83.5009995  51.9262161  25.9370842  83.4355927
  56.0736504  22.8934650  10.8185692  55.4384918  23.2189140  11.4564457
  56.1908112  21.9711800  11.0463724  36.0282936  18.6512451   2.7599907
  36.8167114  18.1512394   2.9712255  36.3463058  19.5366631   2.5835359
  37.3107758  51.0842400  57.3553886  37.7595596  50.2598686  57.1676750
  37.9196892  51.7611122  57.0599251  67.4730377  39.1440811  81.5281372
  68.1000748  38.7111626  82.1074829  66.6559830  38.6622810  81.6567001
  79.2887039   0.1535183  10.4686069  79.7964478   0.9648676  10.4803095
  78.4121857   0.4234323  10.1945648  24.9338017  69.6647034  13.5884514
  24.4469032  69.4573517  12.7908497  25.6573086  69.0380478  13.5971317
  37.6681442  68.3067856  43.4663124  38.3956680  67.7090530  43.6385269
  36.9008980  67.8592987  43.8231277   0.0334292  29.8625336  27.3127594
   0.2323404  28.9395733  27.4702682  -0.1976523  29.9027557  26.3847427
  10.9342747  47.6730003  49.5219116  10.3698835  46.9006386  49.5558472
  10.3363285  48.4117661  49.6355743  53.2337685  53.8014488  65.4577484
  54.1364021  53.9434204  65.1725693  53.1407509  54.3468933  66.2388153
  44.5910873  66.4549713  88.3411560  44.6504135  65.8101807  87.6362000
  45.4302521  66.9147797  88.3164291  11.9891729  40.7679062   0.6224061
  12.7812204  41.0161667   1.0991246  11.5892105  40.0854568   1.1614087
  -0.1724178  34.2367401   3.6220560   0.0926503  35.1407661   3.7914896
   0.6513366  33.7636986   3.5041802  24.6442890   6.0788236   3.3034163
  24.2793465   6.2416139   4.1732144  24.7100105   6.9466748   2.9049859
  75.6816559  62.3088264  76.3296585  75.0935974  61.6528893  76.7040482
  76.3787079  62.4039001  76.9787445  44.4373474  56.2767258   1.7320374
  44.4845657  56.5373993   2.6518483  44.3175621  55.3274040   1.7579749
  54.8716278  28.0599232  17.8803482  55.7296753  27.6379471  17.8365288
  54.7940331  28.5315666  17.0510330   7.3180604  51.5369301  37.5439644
   6.7379894  51.8697052  38.2288094   6.7260427  51.2154160  36.8639832
  71.8290100  27.1908875  88.6064911  71.9581223  27.3616753  89.5394440
  71.6334534  28.0492344  88.2306900  15.5155783  -0.2259786  78.4484863
  15.8281765   0.6428780  78.7006836  14.6838140  -0.0616315  78.0042038
  41.3685989  52.2994919  80.6152115  41.2048264  51.5656166  81.2075272
  42.2994576  52.2324753  80.4025040  48.4349518  29.5434418  81.4223862
  48.5603676  30.4866295  81.5267792  49.2979965  29.1666317  81.5938492
  79.0885849  49.1850586  12.5171776  79.3505020  48.8752060  11.6502142
  78.6974258  48.4190369  12.9372215  58.6820602  23.8763924  15.2635593
  59.0145416  24.6059971  14.7407141  59.4657555  23.4708557  15.6344938
  73.7116241   1.7990967  86.5760040  74.5605087   2.1740725  86.8105698
  73.2723312   1.6575948  87.4145889  24.3462791  35.9537582  76.5811539
  23.4926090  36.2000999  76.9372406  24.9776936  36.2983894  77.2126465
  42.1345367  28.3190136   5.6215010  42.6960144  27.6612549   5.2112236
  41.2824821  28.2023659   5.2012353  75.3886642  35.4828186  62.9987602
  75.3633575  36.3565559  63.3888588  75.5136490  35.6417618  62.0631599
  11.2670813  71.3748856   5.4245543  10.4868088  71.1833420   5.9448595
  11.9848223  71.3682098   6.0578275  54.8981895   7.3937311  34.3545036
  55.4609909   7.9511538  34.8918724  54.1831932   7.9682498  34.0807457
  69.2712021  28.2431602  13.0850468  68.7392731  28.8615494  13.5859203
  68.6338348  27.6908054  12.6323853  50.6340675  22.3158855  33.2451248
  50.3193626  21.7878056  33.9788284  50.1130142  23.1177826  33.2863235
  25.1874104  47.1093292  17.0416183  24.9098911  46.3318596  16.5571041
  25.9527130  46.8210411  17.5390434   9.0569544  51.4585304  43.0719795
   8.3733263  51.9726753  43.5015602   9.6767597  52.1103363  42.7445297
   1.3781129  53.1991882  74.2831726   1.0704458  54.0090370  73.8760986
   2.1391087  52.9432373  73.7620163  62.4062004  48.9527321  31.2858696
  63.3494759  48.7975883  31.2369347  62.2328529  49.5938988  30.5966053
  61.4752960  52.9482880  61.4497337  62.4241295  52.8369446  61.3901596
  61.1165543  52.2264671  60.9334869   1.3697468  52.0509872  32.0715942
   2.2326572  51.7372284  31.8010921   1.4306173  52.1282120  33.0237312
  12.8649387  22.3617096  68.2667847  12.8207731  21.8077202  69.0461273
  12.1746321  22.0260639  67.6949005  31.6984196  32.0077934   7.3978314
  32.6336937  32.1461754   7.5473270  31.2943287  32.1591263   8.2522554
  62.0252190  47.5836678  48.8261642  61.7877197  46.8282700  49.3639336
  62.8933449  47.8373489  49.1395912  17.9504490  42.0060883  36.0463982
  17.6945305  41.4528236  35.3084030  18.7945805  42.3756065  35.7873039
  49.8530045  26.8902359  26.0271893  50.1006622  26.2614059  25.3493500
  49.9159317  27.7431030  25.5972023  19.9685841  46.9286423  24.6240673
  19.7025719  46.9095764  25.5433636  20.7433186  47.4906349  24.6105175
  62.9625702  41.0078850  47.3615532  62.3202934  40.3428535  47.6094398
  62.5195007  41.5317459  46.6941032  65.2042389  15.2748079  53.3998756
  65.7493134  15.6945066  54.0654373  65.2066574  15.8892822  52.6659508
  42.5877228  54.6566811  21.9292011  41.8367004  54.2083015  21.5404205
  43.1203384  54.9250450  21.1805134  -0.2287655  38.8792801   1.8049240
   0.2037991  38.3335838   1.1481628   0.2070377  39.7286682   1.7352890
  33.7006721  26.3975315   9.7619019  34.5463715  26.7733879   9.5174484
  33.4447708  26.8761597  10.5503569  48.6110115  42.2706490  40.9300690
  48.6629791  42.1644478  39.9802017  47.8999367  41.6883965  41.1976280
  82.0783386  29.9583912  28.2549515  82.6117096  29.8415737  29.0411453
  82.5304413  29.4505939  27.5811749  38.5751839  53.6735001  80.6991348
  38.7792473  54.5400772  81.0507584  39.4046783  53.1974831  80.7388840
  71.1248322   9.3920002  46.4813385  71.2642288   8.6991100  45.8358154
  71.8890610   9.3417301  47.0554924  59.6529312  70.1949081  26.4839211
  59.1236153  69.7421188  25.8273869  59.3773117  71.1096344  26.4244728
  65.3693695  55.0663567  13.9076204  64.8028946  54.6159248  14.5340776
  66.1796646  54.5567970  13.9079857  80.5968781   0.3044001  69.6964340
  81.0888214   0.9539847  69.1941757  80.5242386  -0.4477898  69.1089249
  79.8445053  47.6164665  28.4151344  79.5285187  48.3627968  27.9058475
  79.1939087  47.5070915  29.1086731  40.9423637  43.2092896  61.6383400
  40.9205132  43.3799133  60.6967239  41.4478340  42.4009209  61.7236099
   8.0835342  27.2584877  70.8817902   8.6690865  27.8883247  70.4614716
   8.4676609  27.1145153  71.7466278  61.4813652  12.6023169   0.6143734
  61.5622063  13.4319725   0.1438762  60.8936615  12.0759020   0.0724086
  42.6142426  49.3171577  78.2073822  43.1658363  49.6365204  77.4932480
  41.9940338  50.0284576  78.3674622   7.9600644  60.9765472  77.4579391
   8.8540468  60.6445732  77.3753586   7.4267449  60.1949654  77.6026154
  -0.0350653  20.6263103  26.8223324   0.8565528  20.5259686  27.1557713
  -0.5231497  21.0045414  27.5537338  81.7915192   2.8125286  45.5539856
  82.4655609   2.1474969  45.6940765  82.2795258   3.6283896  45.4424171
  37.3148460  42.2580452  81.1059952  36.4179268  42.0600128  80.8366470
  37.5949287  42.9546967  80.5123062  60.7125511  49.2001266  24.8967609
  60.3709145  49.6409988  24.1188507  61.5432549  49.6405296  25.0762463
  73.2926865  22.4866581  19.2713623  72.4851151  21.9855747  19.3852940
  73.9481583  21.8326397  19.0287724  38.5261383  53.4503670  76.6112823
  37.6948509  53.3799706  77.0805740  38.9198914  54.2579689  76.9413910
  65.8970947  24.3982868  49.7841797  65.9331436  23.5238552  50.1718674
  66.8076096  24.6041660  49.5725174  30.9041653  39.1437531  83.4925461
  31.3094425  38.6500816  82.7796173  31.2885647  40.0179482  83.4272995
  40.4476433  15.5022221  63.3591499  39.7673035  15.6179943  62.6958504
  40.7477417  16.3904648  63.5520096  10.9286919   4.8732629  61.4359512
  10.7823477   5.0093861  62.3720512  11.3233662   5.6912856  61.1337891
  74.3129883  68.5814896  41.7878494  74.0224533  67.6769485  41.6711121
  74.1023026  69.0097046  40.9581032   3.6230595  32.2214622  77.9986191
   2.8547046  32.0220490  77.4637375   3.4880564  31.7254772  78.8060837
  64.6985168  63.5902328  16.3709488  63.8592453  63.9889717  16.6008587
  65.2231140  64.3152695  16.0313244  65.5904160  57.5179634  52.7107162
  65.5569077  56.9658585  53.4919243  65.1985931  58.3467216  52.9861450
  36.0097733  58.9027977  12.6843958  36.4852104  58.7289886  11.8720036
  36.6725922  58.8267403  13.3707752  38.9742317  12.9070473  16.5881958
  39.0982475  12.3160143  15.8455429  39.8617287  13.1514063  16.8506317
  85.7307510  34.7836914  55.5677528  85.4001770  35.5580826  55.1124878
  85.0380249  34.5566101  56.1880722  78.6837387  40.2349091  50.9332466
  78.3516159  39.7864456  51.7109375  77.9729080  40.1671143  50.2957878
  67.7459641   9.1588840  28.0875874  68.3405685   9.3701038  28.8073540
  66.8990097   9.5067797  28.3666477  38.1384773  31.0614014   5.9506145
  38.8208580  30.9909763   5.2830625  37.3245354  30.8783512   5.4813356
  75.3692932  10.8980713  49.5480461  75.0586548  10.8889198  50.4533920
  75.4884338   9.9745493  49.3263588  76.0618973   4.3975096  69.0166931
  76.3552933   4.3319926  69.9254608  75.1090775   4.4663372  69.0769958
  61.1938591   0.8825465  46.5252457  60.9332047   0.6004112  45.6484947
  60.6331291   0.3790851  47.1154480  22.3030815  37.9581718  53.2811623
  22.3599358  37.9743996  54.2365341  22.2180862  37.0302811  53.0620155
  75.2482605  30.5490322   9.6516991  74.8349609  30.8642197   8.8479109
  76.1866455  30.5752296   9.4646893  61.2480774  21.3914604  26.7819653
  60.4017525  21.4389877  27.2266045  61.4170341  22.2879391  26.4921169
  81.8230286   2.9851892  28.8360538  82.3208008   2.2446840  28.4894886
  81.0149765   2.5954287  29.1697636  84.2852325  23.6770725  21.5019455
  83.5660324  24.2947979  21.3700714  84.8727417  23.8320637  20.7623215
   9.5069513  44.6680145  38.9824905   9.6734886  44.4720078  38.0604935
   8.5576277  44.5893021  39.0764084  66.1549225  16.2006912  55.7972488
  65.9975204  15.3394747  56.1842422  67.0164948  16.4571953  56.1260834
  68.8053360  52.4765663  46.1957626  69.2300873  53.2758904  45.8844719
  69.4903107  51.8092957  46.1534920  68.8180313  26.3162956  84.8283234
  69.2812271  26.5624199  85.6290131  68.5350494  25.4150143  84.9827423
  51.1439285  27.4101906  21.1965733  51.6762199  28.0040474  21.7259388
  50.2422218  27.6867008  21.3599834  47.0022469  38.3212814  27.9781284
  47.2915001  38.1208382  27.0879688  46.0539207  38.1930695  27.9563923
  60.4302330  38.2811165  72.7966537  61.0174789  37.5285835  72.8678436
  59.5940285  37.9656525  73.1394043  12.4644909  10.3564529  10.3511896
  12.3238955  10.0867510  11.2587824  11.5858507  10.3922396   9.9731121
  23.3302078  13.1443491  14.5156469  22.9649525  12.6018047  15.2145500
  24.2752571  13.0030766  14.5718460  62.3441849  53.8769836  72.8274384
  62.0919571  54.7479973  73.1339493  62.2746544  53.9290886  71.8741913
  76.8994904  25.2186813   2.0002389  76.9435806  25.3679008   2.9447079
  76.2822189  25.8775234   1.6822221  52.9748611  49.4252090  10.5920897
  53.3600006  50.2274742  10.9446068  53.4916649  49.2354050   9.8090687
  39.2044907  56.9233513  80.7752380  38.4511566  57.4558792  80.5200272
  39.6776886  57.4649620  81.4068832  11.9138088  44.5645256  85.8260269
  11.4982929  44.4267540  86.6772614  11.8328848  45.5053635  85.6694717
   0.4988622  50.9838486   3.0272524  -0.2518090  51.3537102   3.4919307
   0.1138253  50.5029030   2.2946742  40.3427773  39.0691948  29.1048622
  40.9906845  38.8332443  29.7687702  40.8225822  39.6214333  28.4875641
  54.9476013  10.9082546  49.4254837  55.5904388  10.8495598  50.1322708
  55.4644470  11.1224928  48.6488228  63.2891693  38.3694839  78.3433533
  63.8956375  38.5139351  77.6170197  62.4584427  38.1497269  77.9216461
  48.5086250   9.6690750  21.0405865  48.4285393  10.6159506  20.9255047
  49.4474449   9.5200109  21.1529541  77.3968887  28.5130539  51.7933617
  77.2156525  27.6222000  51.4937592  77.4507294  28.4390049  52.7461739
  26.9617729   3.0049441  85.4686661  26.0679436   2.7112808  85.2924118
  26.8655720   3.9199584  85.7327271  58.0993500  22.6235390  86.2490234
  57.9664116  22.7537518  85.3100891  58.2985382  21.6913166  86.3357086
  21.4850788  61.4690857   0.5194107  20.5712109  61.6948204   0.3458559
  21.5479393  61.4420090   1.4741604  39.2129669  48.7225609  50.2656784
  39.9809380  48.5084190  50.7953911  39.3583298  49.6269112  49.9877281
  11.0598755  41.3742371  30.3301640  11.6804657  40.9870987  30.9475975
  10.7668648  42.1788712  30.7578773  39.4769478   0.6312670  22.0919685
  38.9717064   0.6610197  21.2795181  40.0077934   1.4275594  22.0731926
  44.0530014  36.2068291  81.7362289  44.3977432  35.3138847  81.7303696
  43.3223190  36.1774292  82.3538589  64.6338959   1.7680997  16.8523560
  64.6004181   2.4013307  17.5693855  65.4747391   1.9334131  16.4258804
  31.6214371  38.2060165  68.9270554  31.3637428  38.9206352  68.3446960
  30.7964191  37.8826942  69.2890549  85.4777756  43.9830017  29.9062653
  84.8790817  44.4923401  29.3600311  86.2300339  44.5597610  30.0392666
  23.5065708  42.0957947  66.1500244  22.5716209  42.1918030  66.3313675
  23.8962364  41.8952255  67.0010071  84.4411469  46.4042892  28.4114704
  84.8973465  47.2397690  28.3110294  83.6251297  46.5168457  27.9239540
  32.3428192  23.1850338  88.1132126  32.0447197  22.2854252  88.2476425
  31.5390396  23.6849709  87.9709702  18.7263336  63.3297348  16.4620132
  18.0870953  62.7209778  16.0918503  18.7016411  64.0875320  15.8777504
  70.6118088  27.7352104  48.1395988  69.8233719  27.1963882  48.0742989
  70.4159393  28.5109787  47.6141930  42.5250587  37.5292397  25.7405930
  42.5671997  36.9732285  24.9625759  42.8189125  38.3882446  25.4372940
  72.6387177   6.1440139  54.2549171  72.2682953   5.4317970  54.7762299
  73.2490540   5.7114000  53.6577835  78.6034851  21.1252441  54.9631310
  78.2650223  21.9933681  55.1823006  79.3835297  21.0274143  55.5092049
  76.9484329  57.4698944  32.4572334  77.7415619  57.3774719  31.9293747
  76.6246338  58.3468513  32.2514839  13.9262962  63.7869873  79.0298080
  13.6846771  64.6953125  79.2109222  13.7952251  63.6877441  78.0868378
  71.4940948  13.5846243  35.2051659  72.0680847  14.3330708  35.3682365
  71.5620346  13.0533543  35.9984932  64.6694794  17.2165432  83.3083496
  64.5865784  17.5122929  82.4017639  64.2097702  16.3772259  83.3294601
  64.6056976  51.9272041   5.6663017  65.2515793  52.6123581   5.4941430
  64.0116730  52.3141747   6.3094335  55.9506035  22.0986557  34.1598701
  55.7134247  21.1959763  33.9473839  55.1159668  22.5667686  34.1818085
  79.6229172  27.1607075  81.4063034  79.4152679  26.2669735  81.6789856
  79.6059799  27.1293259  80.4497681  27.3550034  26.4335537  -0.3394578
  26.7416553  25.8536720   0.1119563  28.0049934  26.6593876   0.3259313
  28.3027248   4.6030464  69.5973587  28.6445293   3.7201610  69.7384720
  29.0825424   5.1545186  69.5341492  24.2486153  38.3085403  66.8563385
  23.4891338  38.3981667  67.4319992  24.9733582  38.6849289  67.3556519
  86.6258774  68.4636612  56.1257057  86.0329437  68.4460373  56.8769379
  87.4401779  68.8288574  56.4718056  44.2926407  36.0772820  64.8085098
  43.7361107  36.7942162  64.5043488  44.8582726  36.4769135  65.4692612
  79.5976181  22.0105362  61.1814232  79.0715790  21.3046665  61.5572777
  80.4826355  21.8501606  61.5089111  56.5337868  15.3366737  30.6300774
  56.5968513  14.6402493  31.2837200  56.6217346  14.8857031  29.7903614
  86.6301270  50.0840607  72.0810242  85.9839935  49.8886108  72.7596588
  86.2515945  50.8156891  71.5935135  77.9078903  35.4032364   1.3543013
  78.4184418  36.1628914   1.0741328  77.2945404  35.2486916   0.6358607
  47.5802307  13.3716230  83.9464188  47.4726486  14.2013941  83.4815140
  48.4022560  13.0139303  83.6109161  68.8542786   6.8019648  79.1906891
  69.2114716   6.0256753  79.6219864  67.9050980   6.6946874  79.2521286
  10.0496979  10.5307159   5.7597990   9.7677469   9.6563568   6.0285592
   9.4321365  11.1236534   6.1879058  12.3488131  34.6869354  52.9360161
  12.0099039  34.1388626  52.2282104  12.3694620  34.1081963  53.6981621
  38.8750687   9.5669203   3.8129098  38.4772339   9.9889536   3.0514324
  39.8152390   9.5878410   3.6343853  31.1643696   5.4622016  12.2416344
  32.0190315   5.4670815  11.8106356  31.0280914   6.3697777  12.5136013
  85.7112122   2.1296077  34.1407318  85.5236511   3.0569115  34.2862015
  84.8505859   1.7258911  34.0286102  46.0999374   6.9037471  59.4287567
  45.9955368   6.6732326  60.3519020  46.0884438   7.8608184  59.4180946
  26.9777756  64.6626129  19.5761623  26.2084751  64.6574020  20.1457043
  26.6514320  64.3563766  18.7300224  46.4079361  44.3311844  28.6807003
  46.3585510  44.4993706  29.6217136  45.9820595  45.0886574  28.2793331
  57.0116653  42.2402611  59.1408653  56.8934021  42.1015396  58.2011833
  57.5597458  43.0227623  59.2003441  48.4690895  14.4504547   8.5238352
  49.1977081  14.1372442   9.0597906  48.4101067  13.8187590   7.8070970
  36.2370720  25.5451069  67.3339081  35.5049667  26.1571789  67.2589417
  36.9172745  25.9152222  66.7712631  32.7414551  60.0927582  10.8506145
  32.8052368  59.8397446   9.9296656  32.1329765  59.4595108  11.2313862
  61.8169937  55.6375389  16.4580975  62.6105957  55.1943130  16.7580700
  61.4184761  55.9821167  17.2572727  71.2399826  40.6835136  87.6615524
  70.7212219  41.0134354  88.3952179  70.9394989  39.7826385  87.5417099
  42.7145004  30.1040955  24.8233356  42.2865486  30.7203999  24.2289772
  41.9926796  29.6433163  25.2509937  66.1311035  18.8828182  23.2564945
  65.4296188  18.8494453  23.9069061  66.0644836  19.7590981  22.8771172
  16.5614948  34.5488968  44.1395378  17.3382187  34.5835724  43.5812073
  16.8636036  34.8672142  44.9902039  15.4006214  65.1295166   5.3934689
  14.9132404  64.5290298   4.8294640  15.7324848  65.8013611   4.7978768
  52.1394691   3.9168303  88.4026031  51.6881981   3.5255146  87.6546326
  52.7790298   4.5121861  88.0117722  81.3566437  24.7455540  10.2448187
  81.3206940  24.0156193  10.8629904  81.9252472  24.4349270   9.5402336
  86.4188538   5.7266707  39.2857513  86.5151672   6.5877261  39.6926155
  87.1197815   5.6895294  38.6349449  74.9447784   5.5910935  29.3661060
  74.4727631   5.8057399  28.5615177  75.8688431   5.6785283  29.1322651
  40.8902740   7.6857910  86.7201462  41.5612679   7.6983080  87.4026718
  41.1414948   6.9586406  86.1506119  79.9414368  56.9781227  34.1841393
  79.8680725  56.3649521  33.4527893  80.8730011  57.1948090  34.2224922
  12.2216167  60.6872292  44.0185165  11.6174355  61.1535797  43.4408340
  12.1650972  61.1547165  44.8518791  10.8073015  47.9819946  18.6255436
  10.3626213  48.6408958  18.0923061  10.5972662  47.1496315  18.2021198
  53.7890816  36.3061447  41.9876747  53.7191086  36.7258110  41.1302261
  54.2154884  36.9608192  42.5406761  73.5649338  26.0900459  51.9514198
  74.1550446  25.6083508  52.5310478  73.0568695  25.4104710  51.5083847
  24.2016525  20.1596298   2.3890278  24.2500935  19.2591190   2.0681462
  23.5345573  20.5734863   1.8413620  60.6722183  34.9217911  85.5765686
  60.6308479  34.5898285  86.4734039  60.6528664  35.8739777  85.6724930
  15.2153997  10.4124956  58.1756821  15.0592527  11.2902927  57.8273697
  14.8956594  10.4520979  59.0770302  63.2357368   5.0785427  83.3739853
  62.2834053   5.0051136  83.3114700  63.4962158   4.3465371  83.9330444
   9.7603331  10.8157701   9.1674747   9.5002546  11.5982533   9.6535921
   9.0396576  10.6629152   8.5563335   7.6557512  57.8493423  66.2050934
   7.4441638  57.0718346  66.7217636   6.9736915  57.8841400  65.5344162
  46.9930534  25.0765381  45.9563065  46.9515953  24.1949387  46.3268394
  46.1062393  25.4216919  46.0595627  25.0840225  69.4207687  16.2963219
  24.7623234  69.4004517  15.3950281  24.8000679  70.2706680  16.6328869
  21.1743565  48.8992767  79.1426392  21.2985916  48.1833611  79.7657471
  21.2720795  48.4887085  78.2835083  49.3728371   1.2835245  33.7289505
  49.1384964   0.4469575  33.3271141  49.9286118   1.7139533  33.0792732
  10.6524000  41.0623016  57.1662025  10.9779749  41.9592438  57.2418861
   9.7006645  41.1473961  57.2226791  16.2839966  34.5372200  62.4307899
  15.4054356  34.6461067  62.7947998  16.1508274  34.5258179  61.4829674
  18.4152374  30.7616844  69.8799667  18.6919289  29.8619232  70.0534744
  19.1621532  31.2976074  70.1466827  42.4885864  55.0052376  53.8941536
  43.0128937  54.2044296  53.8877220  42.4821358  55.2946281  52.9817696
  31.4951458  19.1200142   6.4187007  30.8687344  19.3284340   5.7255907
  31.9063091  19.9582062   6.6299200  11.1296692  47.5845795  30.1801434
  10.2656288  47.3992462  29.8122864  11.3933182  48.4079323  29.7692795
  22.7396812  53.2469521  28.8417206  22.5993633  53.3019791  29.7869797
  21.8581085  53.2354202  28.4689884  38.5756950   4.6954226   8.9796829
  38.0752716   3.8890786   9.1046600  39.4698601   4.3986077   8.8105555
   9.0617371  40.8403206  17.5770111   8.9352798  40.4017639  18.4183826
   9.0155945  40.1359901  16.9304657  47.5790100  10.0291405  66.7341309
  46.8923721   9.6220217  67.2623444  47.1240311  10.7012367  66.2266769
  46.6128349  45.0292435  59.8999062  46.3986130  45.9345207  59.6744881
  47.4463768  45.0894508  60.3666153  43.6534271  44.3107491  40.2366219
  43.7182961  43.5700722  40.8394661  42.9009705  44.1033821  39.6825104
  28.2743168  52.3677139   9.6321898  28.4113750  52.2738762  10.5748672
  27.7472496  51.6063385   9.3898296  65.8111877  54.1512680  52.6452026
  65.4560623  54.4647522  53.4769783  66.5591049  54.7233620  52.4732819
  36.9908638  50.7333794  52.7399788  37.6929855  50.1841888  53.0887604
  36.2634735  50.6079254  53.3493996  78.9410477  47.4466324  20.9059925
  79.7015991  47.0525284  20.4788227  78.3946609  47.7567024  20.1838093
  38.7901115  71.3992844  43.2130585  39.1065254  71.9620132  43.9197769
  38.3705368  70.6649094  43.6612511  44.9891167  48.5016289  70.8032150
  45.4280281  48.3025475  71.6302338  45.7007599  48.7151527  70.1997223
  11.7496357  39.4679909  74.9486008  10.9682961  39.5243530  74.3985443
  11.4219923  39.1828804  75.8015976  32.6911888  70.6991119  78.0096893
  33.4361992  71.2827911  78.1529236  31.9641762  71.2855988  77.8005981
  48.1579475   4.3627906  25.5707226  47.7346268   4.3729072  24.7122746
  48.4396744   5.2670012  25.7095165  77.2521515  31.1667099  61.4121590
  76.2965088  31.1623592  61.4665337  77.5404434  31.4362278  62.2842140
  23.0373974  63.0022659  11.5352879  23.4958019  63.5361748  10.8864126
  23.5636902  63.0871925  12.3302937  27.6840248   7.8179860  29.7709751
  27.5834560   8.6520014  30.2298183  28.2944241   7.3183775  30.3132267
   4.6359224  60.3349838   7.9442725   5.4911995  60.7484322   8.0617151
   4.6959209  59.8976135   7.0949559  86.4506454  23.0905323  85.6554871
  86.9388962  23.3992538  86.4187241  86.5084381  22.1363163  85.7041016
  54.3503914  23.6347599   8.0749454  55.1116714  23.3651123   8.5887260
  54.0005341  24.3919544   8.5445099  49.3851089  51.2997742  59.0552406
  50.1367111  50.7671814  58.7950974  48.8925056  51.4308014  58.2450523
  11.1602278  65.4827728  71.5602036  10.6115026  64.7058258  71.4530029
  11.5469494  65.6239624  70.6960602  63.7104263  35.1027298  40.6165771
  63.7087097  34.1523705  40.7308121  64.4761505  35.4015427  41.1071014
  35.5513611  39.4567947  60.7792931  35.0019035  40.2402534  60.7564392
  35.9141121  39.4444084  61.6650085  43.4419937   1.3469840  60.9100914
  44.1799316   0.8687955  61.2882652  42.6767006   0.8120143  61.1207352
  50.8591881  60.3192635   1.1055602  51.6853676  60.8011589   1.1434001
  51.0852928  59.4887581   0.6867860  28.3475914  68.0983124   7.4507113
  28.9626713  68.0290985   8.1808605  28.2615719  67.2026062   7.1242828
  44.8636665  71.0534210  43.4555206  45.2065353  70.6092529  42.6800308
  44.0371742  71.4390106  43.1648865  20.5129662  32.7976875  20.6745090
  20.7171974  32.1846924  21.3807354  21.0047779  33.5888863  20.8944073
  12.9500551  18.3394070   4.5831761  12.7433567  17.6150475   5.1737785
  12.9922991  19.1078815   5.1522946  61.6205635  26.9750538  54.9216080
  60.7037430  27.2118587  54.7816162  61.8303032  27.3297081  55.7855873
  70.9701843  24.9365788  26.0682125  71.4001999  25.7551270  25.8206367
  71.6143188  24.4823914  26.6113834  60.1690292  39.4615402  55.8797684
  59.9524994  39.7614937  56.7625885  60.3300629  40.2657852  55.3863220
  80.0027466  39.0169640  47.1177711  79.6870499  38.6269951  46.3026085
  80.1956635  38.2684746  47.6823769  18.4129734   2.9891579  28.0239830
  18.7427826   2.2996171  28.6001701  17.5061131   3.1195226  28.3011856
  53.0944672  14.2233219  43.6322708  52.5513458  14.9353199  43.2941742
  52.4801216  13.6508961  44.0917740  53.6997643  50.7456856  39.2900162
  52.9423599  50.8143654  39.8712692  54.3394394  50.2378159  39.7891312
  64.3917770  40.6614761  25.0083675  64.2523270  41.1571236  24.2014484
  63.5099335  40.4797668  25.3332729  14.6483164  37.6217995  52.0214920
  14.8965445  36.8463898  51.5181427  14.5582008  37.3051605  52.9202995
  39.2923050   1.1017419   3.2391422  40.0580711   1.0945921   2.6648755
  38.6894531   0.4729946   2.8423083  65.3884354  34.2302475  86.0969238
  65.0972900  34.0339966  86.9874039  65.8802795  35.0471725  86.1803131
   0.0680893  55.5253639  89.2678680  -0.5174385  56.2743874  89.3790207
   0.6133256  55.7570839  88.5160294   7.0167475   4.4135351   6.6642857
   7.0029383   4.0906725   5.7632856   6.3824625   3.8644767   7.1252074
  48.4189224  42.5204964  44.8596611  48.7958565  42.4031410  45.7316589
  49.1764679  42.6023369  44.2803001  59.8485451  60.5954628  64.1762161
  59.5206947  60.9404526  65.0067215  59.3085442  61.0210037  63.5102272
  68.2256165  23.5930595  85.5749054  67.5562515  23.8060055  86.2251663
  69.0476151  23.6028957  86.0652542  64.6209030   7.9268827  83.0245132
  64.6788712   7.8534031  83.9771271  64.2152405   7.1061115  82.7452240
  54.4278450  19.7603607  33.6591911  53.7325325  19.9553738  34.2874718
  54.6892014  18.8622131  33.8623085  77.7013779  41.0136032   9.4559631
  76.8007965  41.0409546   9.7791157  77.7033539  40.3054581   8.8119459
  28.1105518  52.8451080  75.3977890  28.2772198  52.2128143  74.6987457
  27.3074169  53.2918587  75.1301727  65.9580231  51.5279083  75.2462540
  65.1526947  51.2739143  74.7955170  65.7101822  51.5780373  76.1694489
  33.3935852  47.4461021  59.7224121  32.8746529  47.3442993  60.5202675
  32.7467232  47.6013718  59.0341568  76.0752869  44.3562775  35.4444351
  75.3160477  43.9260979  35.8377953  75.7261505  45.1670952  35.0744286
  65.0155258  29.9156837  24.5784149  65.7481766  29.7462082  25.1706486
  64.5238495  30.6198463  25.0010662  86.7257767  43.1558914  72.8480682
  86.9748230  42.5916519  73.5800781  85.8174667  43.3970833  73.0298233
  24.9989491  42.2615471  68.8343124  25.7892590  42.0913124  68.3218079
  25.2416725  42.0334702  69.7316971  77.7196579  26.5254669  45.5154686
  78.1447983  26.1287537  46.2758026  77.5685883  25.7940388  44.9167824
  24.1463356  55.3396683  65.0791702  23.8450146  54.4455986  64.9176865
  24.3750973  55.6755257  64.2125092  75.6558914  64.0331879  24.6017933
  75.6931458  64.7590485  23.9789162  76.0722809  64.3749466  25.3930283
  46.2915459   0.8081951  74.0615158  45.9933968   1.6358294  74.4388199
  46.2962227   0.1970328  74.7981949  58.2903137  29.5071335  61.7753754
  58.5262260  30.2981586  61.2907524  59.0426445  28.9256191  61.6654968
  85.5414810  15.4729319  88.3212128  86.0119553  15.5655518  87.4927750
  84.9256668  16.2056866  88.3301544  45.3997192  44.5978699  38.2473450
  45.8451309  45.3640633  38.6089935  44.7381783  44.3742180  38.9020042
   1.4052764  11.2995481  19.5127563   2.2680590  11.7016439  19.6135387
   1.4529343  10.8367987  18.6762028  74.1114655  46.3041763  62.7820473
  75.0458603  46.2369041  62.9785690  73.7257385  46.6741600  63.5761261
  56.0689621  13.4049177  19.1667213  56.2804604  12.8077078  19.8842449
  56.9198761  13.6884642  18.8323898  79.3010712  52.2559319  12.4125061
  78.8880386  51.4993668  11.9962807  80.0254974  51.8859138  12.9170151
  39.1487274  71.0820847  18.5081749  39.2680397  70.1595230  18.7337208
  38.2056770  71.2272644  18.5843945  44.5755882  68.3762512  16.0945091
  45.4900093  68.3787003  15.8115644  44.0995331  68.7816696  15.3697720
  34.5354691   1.9110532  66.9220276  34.6513939   1.4829373  66.0737839
  35.0529938   2.7137280  66.8579102  27.7512074  47.9258881  75.5384293
  28.4706078  47.3643265  75.8271103  27.5104504  47.5832367  74.6776962
   5.0304103  69.5007553  28.4488049   5.7068210  69.9386139  28.9655037
   5.1381893  69.8531494  27.5653820  62.2327194  15.9372082  75.1371231
  61.8142776  16.2194462  75.9504318  62.5968857  15.0759020  75.3414841
  35.2297134   0.1281009   6.1075325  34.5670013  -0.2083318   5.5043254
  35.0508347   1.0669451   6.1604972  20.0787258  14.5903673  53.8305550
  20.1590652  13.8110809  53.2805634  20.0370159  15.3181086  53.2101631
  54.6704674  53.5589409  25.6896439  55.1794243  53.7835884  26.4685707
  54.0414467  52.9051781  25.9948692  38.5290642  58.5915070  54.6956520
  39.4055672  58.7938004  55.0228424  38.1860733  59.4326019  54.3937531
  62.3131409   8.3414173  11.2718143  63.0956192   8.8925695  11.2854462
  61.8239632   8.6006298  12.0526781  34.2071190  32.5975761   8.8817978
  35.1150818  32.4379387   9.1393929  33.8878212  33.2400780   9.5154161
  11.7392635  35.3499451  57.4868126  11.1680861  35.9707909  57.0345535
  12.0707779  34.7801208  56.7928162  21.1529293  47.0610695  48.1544647
  21.9824142  47.2907333  47.7356071  21.3584976  47.0240211  49.0885963
  55.6992188  71.2707291  49.6954079  55.1554031  70.6886139  50.2261009
  55.6028481  70.9403229  48.8022232  18.6090641  13.1897097  61.3226471
  18.7115345  13.6850624  62.1352692  19.2078571  12.4488659  61.4166107
  45.5090828  24.5902882  40.0922813  46.0825081  24.8555527  40.8113441
  45.2490959  25.4127731  39.6773643  19.0819454  55.5882301  52.6727142
  19.7508354  55.6002808  51.9881172  18.5327415  56.3492432  52.4843903
  38.7373047   9.9505682  24.2225418  38.3273201   9.2777452  24.7660980
  39.2426300   9.4598103  23.5744419  21.1587620  42.3560638  82.9900818
  21.1532936  42.3747520  82.0330811  21.3087502  41.4368210  83.2108307
  49.1458664  55.3033524  85.0452652  48.3080254  55.6844711  84.7825699
  49.6878891  55.3505554  84.2577286  47.3021851  19.0827713  49.7019424
  46.6170654  19.2039986  49.0445633  46.9564476  19.5042477  50.4887428
  53.6576080  53.7248650  29.4743099  53.9947662  53.8123970  30.3658772
  54.4205475  53.8689804  28.9145012  85.8976822  62.5386581  86.4636993
  85.1020737  62.1899071  86.8657227  86.4443893  62.8021088  87.2039261
  18.3793507  55.1280098  38.7517738  18.7611046  55.7283936  39.3921127
  19.1045780  54.5582161  38.4956245  58.4243240  25.5842781  86.0142670
  57.8500824  25.8702946  86.7246704  58.5675697  24.6528969  86.1823273
  79.2446289  67.4022522   8.4156256  79.8098755  66.8942490   8.9975767
  79.6356888  68.2758484   8.4044275  11.3999453  28.1262989  30.0206585
  12.0615005  27.9961090  29.3412285  10.6986275  28.6086483  29.5827961
  86.4447479  11.2144957  51.8670311  86.2576370  12.1357470  52.0473557
  85.5928421  10.7816563  51.9230003   5.5230112  51.5670586  11.9178581
   6.4466777  51.3161888  11.9062214   5.5324607  52.5074348  12.0962849
  58.4349098  24.7573738  18.0576515  58.3179512  24.2306423  17.2670155
  58.3766861  24.1273785  18.7759457  25.6733322  61.5902596  77.1437988
  25.4744167  60.8368149  77.6996613  25.7630024  61.2223053  76.2647095
  61.1322174  17.4915142  49.5672455  60.7205048  18.2363930  50.0052910
  61.6917992  17.8863068  48.8984871   1.7505507  25.0987282  21.3240700
   2.0926781  24.3091049  21.7432098   1.6434351  25.7234116  22.0413761
   5.8935509  64.0846405  51.7297020   6.6127787  64.6565552  51.9977493
   6.0326309  63.2770424  52.2243500  45.1163254  37.5288925   9.9049702
  45.0137291  38.3675766  10.3547649  44.7408981  36.8866005  10.5072527
  70.7760315   5.3464360  69.1749954  71.3196793   6.1285915  69.0805893
  70.2718811   5.5001774  69.9740143  28.4156590  16.5173721  15.5304899
  29.1860962  15.9545221  15.4539423  28.4539242  17.0820560  14.7585449
  73.0128860  36.0958328  32.1495667  72.5830765  35.2905045  32.4375648
  73.6913300  35.8011475  31.5420246  47.2404594  64.1375580  82.7955780
  47.3318787  64.3942719  83.7131729  46.3318748  64.3457947  82.5779953
  81.7610092  64.3084412  32.8673363  81.7651520  63.6367874  33.5493164
  82.6707458  64.3572159  32.5736847  42.9829216  47.3937149  32.6040230
  43.7173080  48.0066795  32.6384125  43.0880852  46.9406433  31.7674217
  56.3783836  57.1330910  24.9031296  57.3144608  57.0852585  24.7089558
  56.3129845  56.8935127  25.8275528  55.6156349  23.6944542  70.7639084
  56.3464394  24.0099316  71.2955399  54.8422089  23.8422432  71.3081589
  72.2334518  28.7674656  23.5804596  72.7249222  29.5875320  23.6271172
  71.3797684  28.9779930  23.9587936  70.0102615  27.8773479  25.2316284
  69.6290512  28.0268364  26.0968246  70.4052811  27.0074825  25.2909908
  77.5615540  15.1627417  31.8142948  78.1668930  14.4948921  32.1364365
  78.1221237  15.9047804  31.5876274  79.3781052  40.1823349  55.2465363
  79.6994095  40.9977760  54.8617630  79.7511673  39.4942169  54.6955872
  61.7937317  23.5951920  32.0238075  62.1229706  24.4499969  32.3015556
  61.6981125  23.6722698  31.0745182  12.9795055  49.9966469  61.3173752
  12.9218521  49.0489960  61.4392929  12.6091413  50.3643341  62.1197891
  77.4455185  12.4394035  49.1447182  76.5837021  12.0267839  49.0877419
  78.0558395  11.7076826  49.2359657  65.4742661  15.4499311  76.7835922
  65.4907608  14.7205286  77.4032135  66.1295471  15.2195721  76.1249771
  73.8428574  58.4100037  21.6830883  73.7882996  57.7137222  22.3376484
  74.1857147  57.9773064  20.9011345  35.5177689  32.1131744  15.0105429
  36.1880341  32.1817131  15.6904526  34.7015610  31.9770756  15.4917011
  22.6889477  41.6941109  62.5788002  21.9976349  41.2019615  62.1359596
  22.3030586  42.5546303  62.7425728   2.1187892   8.0076523  12.3897982
   2.0286367   8.9567184  12.3039083   2.5048950   7.7276573  11.5598850
  71.3622894  56.7789116  25.2438793  70.4186096  56.6186104  25.2469463
  71.6454544  56.5590897  26.1314182  13.7552185  40.3526001  43.0413437
  14.6687584  40.6383018  43.0483131  13.5283127  40.2983437  42.1130104
  60.8352318  50.9179306  74.6597900  60.5557442  51.8255768  74.5402222
  60.1343269  50.3977547  74.2668762  21.0874500  50.2508621  23.1083794
  21.9793377  50.1457863  22.7771282  21.1586876  50.9332695  23.7758198
  11.7975140  63.1569099   0.9305233  11.5444593  62.3795357   1.4284064
  12.6770020  62.9593010   0.6085249  50.5338211  56.2270546  66.1729126
  50.3490677  56.9557762  66.7654190  49.7781181  56.1979370  65.5861435
   3.6051705  68.7400208  24.9830608   3.1332331  69.3589630  25.5402107
   4.4978828  69.0834427  24.9462357  58.8712692  51.6085358   3.6794415
  58.8378601  52.2596016   2.9785659  59.7337151  51.7285767   4.0769453
  49.3833313  15.5291786  47.9798241  48.9379463  15.2247477  48.7705116
  50.2087288  15.0446043  47.9682388  80.6895752  61.8931732   3.1169107
  80.5122757  62.6004562   3.7370293  81.6249695  61.7161522   3.2165444
  16.4195194  53.8441849  28.4870472  15.7637224  54.2173653  29.0760288
  16.0669022  53.9944839  27.6099491  59.8520508  66.6928329  75.3005295
  59.9547081  67.6176682  75.5249786  59.5144463  66.2884598  76.0997391
  68.9139252  68.3825455  60.2790604  68.1814499  68.4942245  60.8850632
  68.5353851  68.5402069  59.4141464  78.2126160  31.7140255  63.7471237
  77.5395584  32.1215858  64.2922134  79.0391464  32.0391808  64.1039886
  58.5980682  49.7983932   0.9947914  58.6969986  48.9735947   1.4703455
  58.4605217  50.4540482   1.6784791  16.6841202   3.9765663  73.8061600
  16.2092686   4.6362171  73.3005829  16.5894356   4.2582397  74.7160645
   8.7204323  12.1488333  22.2268200   8.9943800  12.5390482  23.0568295
   8.0435848  11.5175028  22.4708118  70.1528397  36.9284210  58.8884697
  70.7360229  37.3340569  58.2469177  69.3851929  37.4998360  58.9093094
  20.9543056   0.8654270  69.2427902  20.1381187   1.3092117  69.4732819
  21.5325699   1.0249279  69.9887085  24.3154736  24.3119373  47.4272499
  24.9712563  24.0260849  46.7912712  24.1574936  23.5405636  47.9715424
  77.6422119   5.0485806  78.6214218  76.8001175   4.7274323  78.9438629
  77.7129517   4.6891127  77.7371063  24.2371960  36.4781914  13.2764177
  25.0836296  36.8611183  13.0458765  24.1326332  35.7453041  12.6696434
  55.5910301  43.4540062  66.8460464  55.9177818  43.6426201  67.7257614
  55.5787430  44.3047905  66.4075851  12.6048250  53.3033905  41.4694901
  12.3500910  53.8406410  40.7193527  13.0124016  53.9196320  42.0780602
  59.3015785  62.6161690  74.3986359  60.0815353  63.1678696  74.4579849
  59.6324425  61.7228279  74.4919128  71.8852081  50.5169525  53.7167816
  72.6153793  50.0559082  53.3038445  71.8388519  50.1500511  54.5996552
  27.2055473  43.7556343  39.1243668  26.7564793  43.4625664  38.3314705
  27.0098801  44.6910515  39.1785851   9.9801979  27.8325272  23.8801212
  10.8086128  27.3558388  23.9323483  10.1205502  28.6156883  24.4122791
  44.6301956  54.8141212  27.4538231  44.4432335  55.6643600  27.8517742
  45.4073563  54.9669418  26.9163284  50.3597984  51.8556824  75.2783051
  50.1329422  52.7458382  75.0092468  51.0948448  51.6150093  74.7143784
  80.4255829  21.2911873  10.8737106  80.3023911  21.7806892  11.6870022
  81.1498566  20.6940308  11.0609436  27.2660866  67.5033417  20.3106022
  27.3351135  67.4693680  19.3564987  26.5133209  66.9489746  20.5161705
  16.9932213  53.7956161  13.0126753  16.5223198  52.9734383  13.1487265
  17.0212460  54.2017632  13.8789835  63.0390625  14.9468060  83.5267563
  62.3052483  14.3332872  83.5633850  63.6657829  14.6090841  84.1665955
  66.0407639  70.3068008  57.0822487  66.5077209  71.0107574  56.6321068
  65.5435410  70.7503738  57.7694435  57.7705727   7.9823833  10.4752674
  57.6481133   8.2480631  11.3866682  57.8969803   7.0344858  10.5170231
  40.0545502   3.3695097  49.5350227  40.5799141   4.1668577  49.4682236
  39.6505165   3.2759182  48.6723366  20.7766056  40.5735970  60.9363708
  21.1559162  40.8646507  60.1071281  20.1201477  39.9240570  60.6845818
  44.3814774  57.5366898  78.0638504  44.2107430  56.8097458  77.4649963
  43.8869209  57.3176460  78.8535767   2.3744876   8.1804743  38.1374702
   2.2073536   9.0519190  37.7784691   1.5042459   7.8239779  38.3158569
  60.6339073   8.5332747  58.1395912  60.8549080   8.8893566  57.2790146
  59.9067574   7.9339752  57.9712868  37.2194824   7.4632421  17.1242561
  37.6995430   6.8400664  16.5788918  37.5028114   8.3226004  16.8120728
  34.3069763  70.9859390   8.9037533  34.6360016  70.1278229   9.1713629
  34.5586205  71.0625763   7.9834089  20.4624920  64.5343399  74.2086716
  21.2159481  64.3445511  73.6496353  19.9145565  63.7519989  74.1458664
  73.9636612  68.4147110  80.9815826  74.7206879  68.2559662  81.5454483
  73.2624969  68.6597672  81.5853577  16.8331127  62.2958527  56.2356644
  16.4640560  62.3543816  57.1169167  17.7534542  62.5350952  56.3450470
   2.1780908  42.0845222  33.4426651   2.8256950  41.3803444  33.4738884
   1.7602006  42.0639496  34.3035812  63.2794952  30.0434265  60.9978905
  62.8373032  30.7132931  60.4763794  62.9402237  30.1673355  61.8843269
   9.5448580  35.2156448  86.2169495   9.6415672  36.0300369  86.7105484
   8.6810322  34.8863106  86.4650955  65.3775787  55.6078758   2.3062773
  65.6194305  55.3086777   1.4297948  65.2430496  56.5505600   2.2089274
  56.4555817  46.5354843  58.6483269  56.7538719  46.4146004  59.5497932
  56.8028984  45.7779083  58.1774940  65.6172867  68.1653290  16.5884628
  66.1086731  67.6986618  17.2644787  65.6718826  69.0858612  16.8451080
  85.1801529  64.1059952  23.4018288  84.5049973  64.1849747  24.0757370
  85.3931961  63.1729660  23.3844204  40.3054047  69.9277420  45.3908119
  40.5191612  69.9431000  44.4579124  40.7937889  69.1804581  45.7361679
  76.8321152  28.8533077  64.2543411  77.6118393  28.7366505  64.7971573
  77.1623001  28.8450661  63.3559303   5.5584421  33.6124458  65.7874680
   5.6585207  33.5403214  66.7366867   6.1732173  34.3007355  65.5334244
  43.9375648  44.5734329   8.0427103  43.3450508  45.2032852   7.6322942
  44.6730156  44.5046120   7.4339318  65.9470139  16.0195999  47.0757675
  65.1890869  16.5502052  47.3211899  65.8961792  15.9560385  46.1220360
  51.0722618  21.3909740   0.0244464  51.8740540  21.8680878   0.2382835
  50.4323959  22.0746746  -0.1739471  81.2967682  11.4516706  18.0772762
  82.1610107  11.2561340  17.7152271  81.4783859  11.9392223  18.8807316
  63.3953629  19.7516842  85.7391891  62.9341888  18.9321518  85.9178467
  64.2892532  19.4823513  85.5278931  69.0942459  25.9394493  10.3591785
  68.9413071  26.7566471   9.8848076  68.3638306  25.8796387  10.9749298
  23.9136009  62.8789520  61.6999168  23.1619892  62.3319778  61.4715919
  23.9021358  63.5840378  61.0526505  27.4627514  49.6016502  12.4002609
  26.9590683  49.3029175  11.6430988  26.9093304  49.3939667  13.1531391
  77.2424240  46.9309502  29.8100147  77.0212555  46.5898933  28.9434128
  77.5826950  46.1733322  30.2858906   2.5568118  42.3208466  29.5461807
   3.2677228  42.9173393  29.3115940   2.1334727  42.1134186  28.7131214
  67.3720779  20.9267578  67.5516968  67.1643143  21.8388138  67.7547226
  67.5631256  20.9277000  66.6137543   5.8836250  61.9791718  88.9502716
   6.7028055  61.6343651  88.5949097   5.2632194  61.2549057  88.8680115
  19.0260906  68.5756149  24.8665791  19.6037598  68.1165619  25.4763336
  19.4795933  69.3976135  24.6797848  16.3112602  33.1739769  73.4910126
  16.0562038  33.6388702  72.6941071  15.5913515  32.5644226  73.6535187
  79.5048294  60.7679062  10.1428680  80.1398697  60.5443535  10.8232994
  80.0278320  60.8526878   9.3456774  85.0257339   2.3007636   9.8844376
  85.2151031   3.0473018   9.3160610  84.3408279   1.8164051   9.4234180
  53.5961151  15.6038570  83.6639633  54.1689224  16.0109196  84.3139038
  53.2888832  14.8009386  84.0848618  65.6418686  23.9525166  77.0051422
  65.7667236  23.8647709  76.0601883  65.6927261  23.0563812  77.3376923
   6.0112748  62.0117493  53.2368202   6.3763695  62.2348938  54.0930595
   5.0811229  61.8608665  53.4049988  76.9410477  22.5163155  80.2374344
  77.3165894  22.3723812  79.3688202  76.0133896  22.3034687  80.1355820
  22.6618347  37.4914246  60.1266975  23.2013054  36.9944115  60.7416611
  23.1175728  37.4106674  59.2888336  35.6390114   3.9050806  82.4318085
  36.1429520   3.3904285  83.0622177  36.0326385   3.6978173  81.5842667
  45.4443436  62.3982086  30.8328609  44.5532341  62.1531181  30.5836983
  45.3878593  63.3317375  31.0367317  50.9868431  57.8442001  89.0108185
  50.9767914  57.0111961  89.4822388  50.9068680  57.5987511  88.0890884
  65.5292969  51.9114151  83.2081146  64.9761276  51.3945427  83.7938461
  64.9115295  52.4086952  82.6721039   6.6211143  11.7679787  19.5594501
   7.5197825  12.0527554  19.7253685   6.0796976  12.5013714  19.8514004
  55.3083572  61.6386375   5.4923797  55.6045074  60.7728653   5.7733874
  54.8501511  61.9939079   6.2539978  66.3258362  61.6700478  15.0092754
  65.6328430  62.2212639  15.3728113  67.0826797  62.2518578  14.9391899
  55.4748001  51.8234253  88.2689667  55.8953247  52.5955658  87.8905640
  56.1451530  51.1413765  88.2280655  60.9474831  41.7612762   3.6697884
  61.2982368  42.3693390   4.3205280  61.3496017  40.9201546   3.8866944
  35.8846779  66.5539627  68.5858765  36.1169624  66.8156738  67.6949310
  35.3149300  65.7933884  68.4712448  44.5706291  54.1289825  58.1548882
  45.3524361  53.7011909  57.8055954  44.8651009  54.5390320  58.9681396
  76.1023560  23.8160496  58.7746506  76.7346573  23.9788876  59.4745903
  75.7832336  24.6855583  58.5331039  52.7410240  24.9292412  60.2142868
  52.1780777  24.9869976  59.4422836  53.1535149  24.0681782  60.1460457
  33.3863945  69.5983505  27.8620510  33.6574135  69.7986908  26.9661465
  33.5374069  68.6575470  27.9532509  43.7953453  62.4814796  37.3518829
  44.0467415  61.7625999  36.7720146  44.5643158  63.0510445  37.3745193
  80.4671021  53.3121414  66.4060516  79.5753174  53.5323524  66.1368561
  80.7231216  54.0243034  66.9921494  16.1860752  54.9097862  45.7102432
  15.5638046  55.6035461  45.9286690  16.9011803  55.0236435  46.3362541
  54.2076111  22.8998280  85.8901901  54.4001427  22.4374962  86.7059174
  53.3501854  23.2989426  86.0377197  68.0606613   0.7310652  59.8010406
  68.3117752  -0.1903512  59.8655739  68.8791275   1.2116288  59.9251404
  56.1934967  41.8001633  56.2449760  56.4589767  42.0175896  55.3514023
  55.2394218  41.7356796  56.2023964  75.1836548  31.8474598   2.5102153
  74.4238434  31.6648197   3.0630004  75.5736847  32.6340637   2.8914757
  49.4979897  25.6177673  13.8292894  49.8353615  26.2307320  14.4825010
  49.8506813  25.9354286  12.9980669  86.5477676  36.2570724  10.9081345
  86.5079041  37.2031898  10.7684727  86.7848053  35.8984909  10.0528774
  40.9141655  45.5977402   0.7831554  41.7450104  45.5476913   0.3104756
  40.6946907  46.5294380   0.7837514  59.5108986  44.7287674   1.8020350
  60.3088684  44.5149727   1.3185424  59.2571564  43.9064140   2.2210612
  48.1120453  37.9531479  39.6161613  47.2291718  37.6292000  39.4377632
  48.5563736  37.9163551  38.7691345  53.5949821  39.8099670  41.7504768
  53.3077278  40.5813751  42.2389908  54.5178757  39.9773788  41.5594902
   8.1481991  60.9556351  88.0746689   8.5599146  61.5819359  88.6700439
   7.9432564  60.2003555  88.6258316  23.3662014  13.4353409  46.2173996
  23.6122398  12.7513666  45.5946045  23.5524044  13.0556126  47.0761032
   7.8017664  66.2009811  19.6825638   7.6032853  67.0755157  20.0172729
   8.5323811  65.8982620  20.2218170  37.1511612  65.3823090  74.4033508
  36.8759270  65.9742050  73.7032547  36.5745392  64.6233139  74.3158188
  46.4740143   8.2393856  47.4336967  46.9747314   7.4467101  47.2408714
  45.6232185   7.9184551  47.7326622  55.8263206  42.4702911  33.0016747
  55.0501442  41.9380302  33.1762733  55.9258385  42.4437294  32.0500298
   1.9102944  31.1636810   7.5904260   1.3057841  30.5547028   7.1662264
   1.5258678  31.3210487   8.4527969  86.1794891  14.9589520  32.3593216
  86.5811005  14.7151356  33.1932869  86.9200821  15.1459751  31.7824516
  46.5225334   7.3674421  62.2586288  47.1607628   6.7516141  62.6186981
  46.8203468   8.2253180  62.5612640  82.5536804  40.1056404   9.6125765
  82.7232437  39.1718025   9.4883451  82.2296524  40.1728210  10.5107536
  56.5282555  66.8441086  77.3946915  55.9573631  67.4944000  76.9855118
  56.0676384  66.0132828  77.2772293  86.1169586  55.1660042  38.5237846
  85.2387924  55.2371140  38.1496124  86.4327698  56.0685806  38.5668373
  12.2153921  34.5114670  85.8514099  11.2670794  34.4641075  85.7302017
  12.4370546  35.4212914  85.6531372  75.5917358  63.1900177  61.5455704
  75.8744583  62.3080292  61.3039207  76.2041092  63.7701912  61.0932083
  62.6805458  62.9465179  70.1025391  62.9543266  63.0629425  69.1927490
  63.0908852  63.6734047  70.5710297  77.0338745   1.6318287  70.4533615
  77.7604218   1.7996750  69.8532028  76.2500687   1.8386946  69.9443588
  53.8296700  64.0179596  26.8920822  54.4328957  63.4887009  26.3703213
  54.2851334  64.8511429  27.0128937  36.1967545  51.1626968  45.5058517
  36.5689240  51.8813858  46.0169373  35.2812080  51.1213760  45.7820740
  28.0005016  64.5407181  45.2503891  28.8153648  64.8351212  44.8435059
  27.9422665  63.6121674  45.0253563  74.7593689  50.4688034  37.5960922
  74.4025116  50.1702995  38.4326210  74.0318451  50.3808708  36.9802933
  75.8154678  12.7859945  56.3515053  75.4712982  12.2598238  57.0732574
  75.2074738  13.5218792  56.2804146  22.2862167  28.4512424   9.1304798
  22.8408184  27.7049274   8.9031792  22.8008938  29.2177925   8.8780098
  81.5542755  26.9910011  23.7029076  80.8293610  27.5767326  23.9212055
  81.1920242  26.1114559  23.8097305  17.1290779  27.2967148   3.1827607
  17.9526920  27.3897057   2.7039657  16.7047901  26.5368900   2.7841651
  53.8669395  31.2324963  70.0809784  54.1386719  30.5932751  69.4223557
  53.6409187  30.7054214  70.8473587   1.3738199  18.6446457  63.9621391
   0.9783713  18.3997364  63.1255569   0.8741375  19.4091797  64.2485657
  48.3566856  64.5784454   3.5765333  47.4724236  64.4064331   3.2529175
  48.6488609  63.7393570   3.9326153  66.4918442  49.7187500  71.8186111
  66.1507645  49.3079605  72.6130600  66.2232208  49.1322479  71.1114426
  47.1890450  53.8280144  41.2535286  47.8594437  54.5040817  41.3521652
  46.7576141  54.0375748  40.4251671  37.4975700  38.7231331  35.9010162
  37.9537926  38.3651466  35.1394806  36.8094101  39.2755127  35.5301399
  31.1454182  35.5736771  83.6388397  32.0568466  35.6807251  83.9109955
  31.1634674  35.6926575  82.6892319  46.9174271  28.1699028  79.6234818
  47.1438522  28.7655315  80.3377533  47.7611275  27.8702145  79.2849655
  24.0609322  23.4787941  85.7463989  23.3162632  23.5609093  85.1506119
  23.8299656  24.0279884  86.4955826  84.9818192  68.5841293  44.0003090
  85.6494293  67.9472046  43.7456512  84.7731934  69.0493088  43.1901741
  35.6073952  48.0154915  52.0021248  36.2510872  48.6403770  51.6683388
  34.9292603  47.9866333  51.3271942  23.7585087  69.9564285  23.5428009
  23.7348061  69.0681305  23.1870003  22.8379745  70.1998520  23.6407318
  85.4957199  43.1715012   9.8340254  85.3441086  42.9933548  10.7622013
  86.4399414  43.3143501   9.7686777  64.9912872  29.8530865  35.1213455
  65.2112122  29.0555401  35.6027870  64.0441589  29.8017044  34.9926949
  17.7528419  24.1197033  87.6190643  17.0664387  24.7859135  87.5837708
  17.3158779  23.3439903  87.9705734  68.1082535  68.6319962  18.3762627
  67.8176422  68.4965210  19.2781620  68.3258209  67.7549820  18.0604362
  42.7067261  15.0964699  88.3015900  42.6819115  15.9773331  87.9278259
  42.8568344  14.5218964  87.5508804  72.9937973  35.3357697   2.2196207
  72.6723938  34.7779503   2.9279759  73.3235245  34.7225990   1.5627103
  54.6819496  20.6719627  68.2766190  54.3203278  21.5549145  68.2000961
  55.4922333  20.7871895  68.7730026  35.4612274  48.8726387   4.8557582
  36.3054047  48.7509499   5.2902579  35.1537056  47.9840393   4.6767287
  60.0187988  53.2624359  32.1101303  59.7932663  52.7626152  32.8946991
  60.1469917  54.1572838  32.4248428  51.0045738  67.9377823  52.4897804
  51.5691681  68.3702545  53.1304283  50.5361252  68.6540985  52.0612030
  53.4580917  29.4922829  14.4812851  53.1944237  30.2489014  13.9576044
  54.3936424  29.6225395  14.6362267  73.1614990  45.3447609  18.3260326
  73.8388519  45.8568344  18.7678585  72.4859695  45.9845734  18.1012402
   2.3111041  70.0994873  54.2997627   1.4695653  69.7764893  53.9777107
   2.2519484  71.0508270  54.2120857  58.2486038  67.9293823  42.1037865
  58.6694832  68.0220795  42.9584770  58.0462151  68.8263779  41.8379288
   2.9895573  41.6222038  66.3325195   3.0307765  41.9386177  65.4300690
   3.1764350  40.6857300  66.2667542  77.2574768  62.1673012  40.6984940
  78.1394501  61.8397560  40.5222015  77.1322098  62.8720093  40.0629463
  17.2782173  53.6497040  49.2427979  17.9785805  53.1030655  48.8865509
  16.4724064  53.1888618  49.0092850   3.8269804  16.2018585   3.4011536
   4.2127314  16.4916115   2.5744305   2.8920164  16.1194363   3.2133212
  75.8121185  67.3545456  84.9055099  76.0473022  66.8844223  85.7054443
  75.1558075  66.7987900  84.4852448  54.2487373  68.5684891  31.2159634
  55.0156708  68.1025620  30.8828564  54.5802650  69.4332123  31.4579868
  73.7653656  45.5347977  27.7118130  74.6244049  45.1274986  27.8231201
  73.1612778  44.9478722  28.1665955  24.3910141   2.3560944  85.9487000
  23.4502907   2.1872940  85.8959961  24.6495876   2.0069299  86.8016129
  28.2126656  65.6454239   5.9534049  28.0720863  64.8490219   6.4654632
  27.3395805  66.0259933   5.8578897  50.9942513  28.3725281   4.7340937
  50.2144203  28.6648636   5.2059364  51.2153854  27.5317402   5.1346035
  34.7344170  23.4643612  82.9623947  34.1789474  23.8268261  82.2722473
  35.1818581  24.2246914  83.3337860  48.8139725  37.5236053   5.7990103
  48.0688400  37.4948578   6.3991618  48.6911240  36.7651482   5.2281499
   0.8543034  30.2175655  75.4444122   0.0517990  30.4570465  75.9079437
   0.6787354  29.3427601  75.0978241   2.9998703  37.2001534  53.6354485
   3.1663868  36.3867226  53.1591835   3.6434979  37.1989250  54.3439522
  75.1785965  19.1379128  82.4843750  75.7677917  19.8328590  82.7778625
  74.3975830  19.2405338  83.0281677  37.3808975  45.8069153  79.6910172
  38.1962471  45.9049835  80.1827698  37.5317154  45.0492439  79.1258469
  62.9496193  21.0718327  83.3114700  63.8875504  20.9074574  83.2140274
  62.7363586  20.7340584  84.1813278  69.5520935  12.7521210  58.5458145
  69.8742447  12.8161564  59.4448967  70.3359070  12.5872564  58.0217133
  70.4443665  67.4723358   8.2466679  70.1011734  68.1484985   7.6624985
  69.9021072  66.7039719   8.0683422  60.4985352  11.9700394  50.7176514
  60.4466820  12.5063343  51.5088120  61.3113670  11.4744129  50.8171158
   4.2537332  28.6555290  32.0326538   3.7684128  27.8341942  32.1107903
   3.8911288  29.0746746  31.2522240  52.9312286  35.6413803  79.5297089
  53.3408546  34.8268204  79.2382889  53.6207581  36.2998734  79.4450607
  45.6234360  12.8858881  72.1119843  44.8026314  12.4164429  71.9632263
  45.6999245  13.4776831  71.3635483  61.9954872  10.5968361   9.3209162
  62.1923676   9.6760073   9.4928017  61.2973862  10.5743752   8.6664076
  44.7804527  19.6197739  63.1102562  45.6793518  19.4935703  63.4140472
  44.2992821  19.8909760  63.8920212  72.9456177  71.0264740  29.4456062
  72.4336624  71.6844101  28.9752178  72.4474869  70.2157898  29.3412304
  10.1826267  57.3001213  36.7932053  10.4429770  57.8504410  37.5318527
   9.6501493  57.8742943  36.2427254  72.6748428  18.8842068  19.8323631
  72.0879135  19.5476456  19.4696045  73.1220627  18.5172958  19.0697365
  56.1158638   5.4137058  21.0109158  56.4737473   4.9515848  21.7689362
  56.8639793   5.8824782  20.6410446  49.6535759  51.5144386  47.4817467
  49.9022408  51.3074989  48.3826180  49.0104103  50.8441772  47.2508240
   2.7993286  31.2196445  68.1170120   3.3636942  30.7386150  68.7222672
   1.9360660  31.2033539  68.5302277  72.2859497  47.2937889  29.1874065
  72.8628616  48.0553017  29.2465763  72.7740479  46.6641846  28.6567554
  68.4183884  22.3232517  16.5915051  68.4352570  23.0602417  15.9809370
  68.5293579  21.5506268  16.0374584   9.0935450  37.7409210  25.5666847
   9.7646837  37.3950729  24.9783020   8.5162334  36.9963112  25.7354984
   3.0441291  27.9718628  79.2799835   2.5569811  27.3936081  79.8669586
   2.6294081  27.8506908  78.4258423  76.1015549  15.4663744   4.3886333
  76.5199509  15.3816977   3.5318916  76.6638718  16.0725250   4.8709321
  10.1894608  60.6468735  49.3018646   9.6145706  60.5803566  50.0643005
  10.1641417  61.5734215  49.0629082  67.0118484   3.8353875  12.3063536
  66.5025864   4.6150823  12.0850859  66.4359283   3.1029518  12.0870609
  71.0797577  14.1147823  78.4297562  71.1757584  13.2901802  77.9532623
  70.2262039  14.4511786  78.1567688  51.4114113  47.8393898  50.1135826
  52.2563477  47.4000626  50.0171127  50.8210106  47.3518829  49.5391350
  51.6549339  52.9225159  83.8178101  51.2819939  52.9725609  84.6979523
  51.5390472  53.8020020  83.4582214  35.6809692  52.6156883   9.0070353
  35.3145218  51.8235931   9.4001408  35.8053627  52.3900642   8.0851612
  75.3350296  30.1909256  48.0266533  74.9125214  29.8692112  48.8230286
  75.1481476  29.5210037  47.3689957  66.8829727  31.5051670   4.5374584
  66.0879669  31.9953136   4.3277998  67.3305283  31.4040146   3.6974013
  58.2379189  48.4720383  64.3563538  57.3671989  48.6064911  64.7305222
  58.5267525  49.3481560  64.1009521  42.3154068  31.8307209   5.7385578
  41.9825325  31.1960526   5.1040316  43.2672920  31.7440338   5.6872149
  57.7202644  22.8636894  83.5391006  58.0822983  23.6112156  83.0633163
  56.9046822  22.6604862  83.0810928  16.1281261  40.0483208  88.0460815
  16.1578159  39.2128754  88.5123215  16.8889503  40.0258675  87.4656754
  20.1998062  10.4492645  75.8457108  20.2561836   9.9614887  76.6673737
  20.2590351  11.3679247  76.1079865  85.7585678   8.3319159  87.3139954
  85.3135071   7.6658449  86.7900620  85.2818298   9.1408682  87.1281281
  58.0988846   2.1166399  60.7481842  58.2170448   1.6785980  61.5910301
  58.5013466   1.5250911  60.1123161  73.4768524  61.8185844  80.8330841
  73.2680206  61.2299042  80.1077728  72.6256409  62.1263199  81.1444778
  65.9401093  51.2285233  78.3314896  65.7173538  52.1325951  78.5534439
  66.7390366  51.3000259  77.8091507  48.5643082  21.5982342  22.7001534
  48.5989456  20.6675053  22.9210091  47.8524246  21.9455853  23.2375546
  60.6887932  18.1209278  67.0035248  61.5881271  17.8446198  67.1798248
  60.7741280  18.8040962  66.3385162  52.3517494  60.1192741  52.4494743
  53.2807732  60.1924019  52.6681099  52.2902527  60.4474487  51.5523949
  18.1669464  66.4608917  23.3273029  18.6340790  66.5720596  22.4992561
  18.3414879  67.2682190  23.8110275  20.5533810   2.9182663  62.2850838
  20.7929268   3.2731988  63.1411629  20.7374802   3.6291111  61.6710510
  10.5972748  43.9479370  36.4483070  11.2028723  44.0717506  35.7174492
   9.9225283  43.3629150  36.1037827  77.3599701  25.9519958  50.7056046
  76.7223663  25.7580051  50.0185318  77.3890457  25.1563416  51.2369423
  15.2789793  67.8868256  62.4864159  15.6602745  67.8499146  63.3636169
  14.8796587  68.7552414  62.4351807  43.6091309  44.4454193  46.7882576
  44.1034012  44.6865387  47.5717010  43.7521782  43.5035477  46.6952591
   3.0472684  23.2478161  60.3408470   2.9250798  24.1384869  60.0122070
   3.8896074  23.2734585  60.7947655  33.1550484  71.1983337  85.2802048
  33.4690514  70.6383591  84.5702286  33.6430511  72.0150223  85.1748047
  19.8055611  62.9827843   4.3930335  19.0947170  62.6625175   3.8377292
  20.5885811  62.5493927   4.0535002  56.4977875  50.6844902  51.4640617
  57.3228111  50.7999802  51.9354744  56.3415909  51.5302429  51.0439034
  55.3011398   8.3988514  51.7800140  56.1926651   8.7158365  51.6353302
  55.3889694   7.7452331  52.4737740  68.9718323  30.8076706  84.1690598
  69.5447769  31.2525272  84.7936172  68.1407318  31.2787495  84.2288742
  17.9825382  66.8057098  48.2000618  17.1819954  66.3696136  48.4919281
  17.7878437  67.7397995  48.2762299   6.6936932  54.7960625  19.2307949
   6.1393108  54.5428886  19.9688969   7.0527468  53.9701195  18.9065609
  69.0680695  46.4026070  17.9133701  69.4868164  45.7595253  18.4854946
  69.7037354  47.1153107  17.8484840  75.4433289  63.7225113  88.0601273
  75.3393707  63.7383537  87.1087265  76.3901901  63.7481995  88.1980667
  83.6203690  36.6390190  79.7174911  83.7530746  36.7533112  78.7764511
  82.8630066  36.0574226  79.7836761  44.2989883  27.4209747  75.3153229
  44.9090118  27.3027039  76.0434113  44.8535156  27.6720848  74.5766296
  45.5596161  37.8526802  85.0927277  45.7392426  37.5722885  85.9901428
  45.9017143  37.1442566  84.5474396  80.2371292  40.1223946  40.5027046
  79.3619080  39.7607079  40.3633919  80.2475128  40.9293785  39.9880180
   4.3638678  69.4285965  21.8254128   5.2479181  69.7644653  21.6774921
   4.4956822  68.6087341  22.3015232  45.9294090  60.1296577  17.2366352
  46.1398354  60.1915588  18.1683655  46.4886971  59.4243393  16.9111252
   3.6851561  52.2887688  73.1672974   4.5474510  52.0067139  73.4724579
   3.5023785  51.7275276  72.4137497  50.7913628  59.4171715  82.3675079
  50.4898872  60.2615242  82.0322266  51.6305771  59.6110916  82.7850494
  37.1711540  37.1835442  81.8900146  38.0730743  37.1110878  81.5777283
  36.8949165  36.2788124  82.0362625  79.9212265  46.8064957  88.0967560
  79.4182205  46.0119896  88.2755814  79.2604370  47.4931374  88.0067062
  50.7710686  57.1217384  50.6615601  51.3342247  57.2871857  51.4176750
  50.4986496  57.9920731  50.3708076  55.8497047   8.9009027  55.0705986
  55.7479095   7.9908018  54.7920570  56.6825066   9.1768198  54.6877899
  60.4910164  38.3273048   8.5458689  61.0267525  38.4742928   7.7663727
  59.7361145  38.9043007   8.4299545  82.8455353  35.1306305  61.5093727
  83.1364059  35.8806152  62.0281715  82.6777954  35.4920425  60.6390419
  77.8780289  42.7778053  75.6556702  78.0183868  41.8357277  75.7506561
  77.5427170  43.0570946  76.5076065  70.2497406  14.8427982   6.8482499
  69.6589737  14.8769131   6.0958762  70.2347031  13.9260616   7.1232052
  84.0290985  50.9680176   6.4429941  83.1176224  50.8455048   6.7084012
  84.5384674  50.7237129   7.2157102  67.1416702  40.3373451  64.1143875
  67.7123337  40.9434700  64.5868073  66.5689468  40.9024620  63.5958672
  69.3298645  65.6852341  17.2846470  68.9935837  65.9645462  16.4330997
  70.2754669  65.6108856  17.1560612  80.3028870  27.2549248  86.8664703
  80.0844040  26.3668976  86.5837936  81.0137253  27.5234928  86.2843933
  84.5150452  29.6495228  38.8651924  83.7910309  29.3744183  38.3027420
  84.5711136  30.5965023  38.7374535  63.7363205  25.8487911  32.8917809
  63.9122734  26.7660389  33.1013680  63.6715126  25.4166794  33.7434349
  52.1911201  13.6277151  19.1561928  52.3768387  12.9135408  19.7658615
  52.7791252  13.4709072  18.4173470  47.4204903  68.0060654  15.7875347
  47.7735596  67.5693893  15.0123644  47.9951096  67.7289124  16.5011406
  78.3786469  19.1994877  33.9081726  77.5410156  18.7596436  34.0535812
  78.4456558  19.2785301  32.9565964   1.7436725   1.4987805  20.7842121
   1.4658688   0.5855309  20.7132740   0.9851359   2.0033710  20.4905415
  57.6206818  56.4268723  27.4574738  58.5689011  56.3607101  27.5703163
  57.3296318  56.9700127  28.1899509  66.5466843   0.6634026  82.4040833
  66.5967789  -0.0693328  81.7902222  66.5855255   0.2545840  83.2687149
  83.7630234   4.9664259  74.9198990  84.6562347   4.6571054  74.7691422
  83.2152634   4.1939983  74.7800903  76.6057434  29.4163303   3.5408499
  76.0740814  30.1545372   3.2431679  77.3534012  29.8214474   3.9803033
   5.7870650  51.0957489  67.6224670   5.3795042  50.3128891  67.9929581
   5.7432804  50.9632378  66.6754990  58.1250687  20.7226276  11.7408085
  58.9648209  20.5775280  11.3049231  57.5977974  19.9593220  11.5050545
  54.9013977   7.9121733  15.4151087  54.7425346   7.9616480  16.3577366
  54.9044304   8.8241987  15.1245375  78.8570251   8.2020054  79.2336731
  77.9133453   8.1373587  79.3803940  78.9381866   8.6354055  78.3840790
  14.2645636  67.0476456  65.9592667  14.3561401  66.7463989  66.8632050
  14.9496346  66.5808792  65.4806900  56.8472977  26.9130516  56.1505470
  56.7922401  26.2357655  56.8246994  57.4997940  27.5294456  56.4830246
  56.9883766  26.2645111  88.1617966  56.0738373  26.2914753  87.8805008
  57.0070686  26.7835999  88.9658051  42.9849625  27.4064293  23.7864170
  42.0686951  27.1855125  23.9534073  43.1071434  28.2566833  24.2087593
  65.4101868  55.4733734  33.9470024  64.8287048  55.5433578  34.7041130
  65.8346405  56.3294945  33.8910484  86.1183167  42.9121246   3.9886358
  86.7693329  43.5820084   3.7796814  85.3095703  43.4021568   4.1370883
  71.0556183  59.8558846  28.0251980  71.3071136  59.9394684  27.1054192
  71.6321793  60.4643097  28.4873962  38.3187943  44.5841866  39.7891731
  38.3381271  44.0965347  40.6126137  38.7837868  44.0237541  39.1679420
  60.2724915  40.3181114  66.4933090  59.3659859  40.0244293  66.5840073
  60.2504196  41.2428780  66.7393799  10.7224360  42.6798439  45.9893379
  11.2859001  41.9264145  45.8130417  10.8291159  43.2432556  45.2229080
  51.7033043   4.0040803  72.6893539  51.1552773   3.6554818  71.9862366
  52.3271713   4.5779061  72.2446671  10.8182678  51.4603424  79.0019989
  11.5547390  51.9350929  78.6166992  10.0467033  51.8174286  78.5622177
  71.5839615  12.6903744  44.9939575  71.5033035  13.0646296  45.8712616
  70.7174072  12.3293295  44.8069839  26.1473675   5.6743364  18.7951488
  26.1244354   5.3696084  17.8880405  26.6511402   5.0060039  19.2596664
  64.9467621  63.6037827  63.6713600  64.3859787  63.4269371  62.9160576
  65.7276688  63.0713921  63.5197563  71.2099762  54.5563087  61.1214027
  70.7299118  53.7293587  61.0776176  72.0330734  54.3327103  61.5558586
  41.1890106  66.7028809  83.6868362  41.7582092  67.0546417  83.0023575
  41.5883636  65.8658371  83.9237061   1.8290048  32.3985252   3.6156588
   1.9487182  31.6264286   4.1686230   2.6664696  32.8596001   3.6635432
  12.2394495  40.9742622  85.4840012  12.5808926  41.8684425  85.4935532
  11.7191992  40.9250984  84.6820297  12.4668179  35.3276138   7.3316393
  11.9908419  34.5266342   7.1122985  13.3659477  35.0374603   7.4852905
   1.3384106   0.8852047  35.6845589   0.7184860   1.5484005  35.3810844
   1.1426688   0.7827242  36.6159096  28.1480579  49.1085548  32.5377579
  29.0394840  49.4479713  32.6176987  27.9086838  49.2764549  31.6263065
  65.7646484   5.5174341   8.3021383  64.8839264   5.2560244   8.0333920
  66.0091705   6.2061348   7.6839705  34.0204887  58.2550392  68.0630722
  33.5636902  58.4552231  68.8800812  34.2646980  57.3331375  68.1448898
   7.7166281  11.4701910   6.9793239   6.9285951  11.3864565   6.4424591
   7.7827039  12.4072332   7.1632204  81.2208405  34.4029922  67.0307846
  81.8080826  34.4834061  67.7823944  80.3526764  34.5989609  67.3830948
  72.2170029  33.1240005  47.8031502  71.8098373  33.3271904  48.6452637
  73.1298981  33.3922272  47.9075775  33.8872757  45.5615501  20.2504253
  33.0181885  45.3139114  20.5660172  34.3118515  44.7297478  20.0404930
  56.7764473  63.8287773  12.1122103  57.6667099  63.8339081  12.4638348
  56.8646812  64.1931686  11.2314920  50.3085518  17.5020428  45.7877388
  49.5402985  18.0697365  45.7265930  50.1358299  16.9463062  46.5477104
  86.0977097  19.9921227  14.9645109  86.0704422  19.0355053  14.9837694
  85.8361282  20.2212830  14.0727196  50.6599693  71.7007828  10.8002634
  50.1250038  71.2212982  11.4328299  51.4531288  71.1728592  10.7084475
  25.8242073  54.2596970   6.8805575  26.5467091  54.6073456   7.4034009
  25.1101456  54.1420212   7.5070548  68.3654938  16.8739548  31.8397846
  67.9604034  16.7575302  32.6991920  67.8308411  17.5425472  31.4115810
   5.9574270  25.3921280  77.9368439   5.5824966  25.2912254  78.8117599
   5.9216127  24.5137520  77.5581589  11.3801880  59.2980919  81.6738510
  10.6694584  59.6300468  81.1253052  11.9183283  58.7761536  81.0786896
   2.9089329  39.6993294  39.6205750   3.2319937  39.6869278  40.5215263
   2.6060338  40.5974731  39.4870872  79.0859680   5.2254972  86.8399429
  78.2499695   5.2191167  86.3737869  79.7435303   5.1096358  86.1540756
  22.0277042  44.1525230  44.2593346  22.7465649  43.6805992  43.8389091
  22.4327164  44.5860634  45.0104942  28.4938049  19.1349983  83.1290817
  28.2824173  19.9450150  83.5932159  28.1059685  18.4434681  83.6653671
  10.1594257   1.9997619  19.7352829   9.5581226   1.4000847  20.1769314
  10.6627808   2.3996525  20.4444752  12.8333197   6.2754583  79.1133728
  12.4111443   6.5993848  78.3177185  12.3168564   5.5093975  79.3636703
  19.3239098  14.8387041  59.1873436  18.9215088  14.2141218  59.7908363
  19.0991249  14.5096684  58.3170357   7.6943340   8.9051466  73.0898972
   7.5823131   9.8408136  72.9219437   8.6422710   8.7829781  73.1420746
  38.7523041   5.0241942  86.0573349  39.0844879   5.5650196  85.3408203
  37.9014282   5.4067426  86.2715759   0.0720521   5.9809971  78.3522644
  -0.4300515   6.6915812  78.7512589   0.5716247   6.4036255  77.6536636
  60.0126038  50.7514801  77.8110733  59.1905479  51.1740227  78.0598984
  59.7601662  50.1073265  77.1495819  79.1529388   6.3849015  54.6916924
  79.7459641   6.8432131  55.2870941  78.6381378   7.0810442  54.2835350
  21.4349079  41.9850655  40.6194115  22.2738094  42.1057587  40.1745415
  21.0571251  42.8635902  40.6607018  80.7908936  26.9432659  55.1116447
  81.6257324  27.3823681  55.2743416  80.8996277  26.5321865  54.2540741
  47.0903320  47.4562416  19.1995888  47.5002518  46.6750603  19.5710106
  47.4759827  48.1839867  19.6873245  78.0993195  56.5144501  49.5943413
  77.8623505  56.6574631  48.6780281  78.6805649  55.7541656  49.5755615
  25.7117748  65.0744553   8.4147024  25.9045792  65.4218750   7.5438647
  25.1567898  65.7403107   8.8207331  15.1320381  51.3364563  34.0639877
  14.6828270  52.1794739  34.1253395  16.0620804  51.5617256  34.0415039
  71.0087891  53.6033173  56.1326942  70.8958206  53.0852509  56.9296112
  70.6820984  54.4728165  56.3639526  20.0320702  62.7490463  78.3378601
  20.1402569  63.1605492  79.1952896  20.4540653  63.3533974  77.7271881
  51.3803635  54.7767258  27.9471207  51.7734413  54.7370453  27.0752563
  52.0081100  54.3279915  28.5135155  73.9309387  43.7348328  16.2614536
  73.5280991  44.3691826  15.6685314  73.5485306  43.9301872  17.1169281
  23.9574299  12.1895676  19.7762547  24.7931156  12.4393187  20.1705704
  23.3220310  12.7953062  20.1578064  73.9392548  43.6448593  36.8510704
  73.7925568  43.3210869  37.7398224  74.1055069  44.5810127  36.9615974
   9.5921688  31.8082199  85.9980927   9.2980747  32.4469795  86.6474915
   9.2005157  32.1043472  85.1764145   6.2180495  26.9640560  68.9383011
   6.2929015  26.0629826  68.6241455   6.6009717  26.9445133  69.8153534
  64.3013000   4.7444878  23.1745052  63.6138420   4.4431844  23.7685184
  65.0888901   4.2861929  23.4675789  64.7450790  42.3419914  31.7050209
  65.6912766  42.2053108  31.7526913  64.5644684  43.0023308  32.3740158
  48.2014084  65.1016541  64.9554825  48.6871338  65.4786148  64.2218628
  48.8564873  64.9902267  65.6444550  67.8274918  61.3673019  30.8362083
  67.0391693  61.4380035  30.2978935  68.1423569  62.2674141  30.9192200
  74.0578232  38.6750183   9.5402269  74.0103149  39.3960495  10.1679916
  74.0798416  37.8864746  10.0823917  50.0478592  56.3173790  24.6179199
  50.8855247  56.1293297  25.0412197  49.4633789  55.6243629  24.9250717
   2.5037639  62.8382607  69.6943207   3.1982088  63.4950562  69.6433411
   2.9656682  62.0117111  69.8346481   9.1479616  24.2818718  10.4787540
   9.8735123  23.8410931  10.0365734   9.4998722  25.1385136  10.7207365
  36.7915039  43.1764145  61.6104584  36.2424431  43.6473083  62.2373734
  36.2257118  43.0420570  60.8501549  67.3457184  26.1944351  44.3006363
  66.7591553  26.4913063  43.6049004  66.8161316  25.5873852  44.8176117
  63.9798546  28.2890873  74.9809189  63.7384987  27.4108200  75.2752457
  63.6454811  28.8707886  75.6635971  45.2884789  57.2392807  22.6335335
  46.0364571  57.6597786  22.2093430  45.6029091  56.3642998  22.8610764
  29.1312351  63.7491684  59.7002029  29.4449844  63.3168907  60.4945145
  29.0387287  64.6689224  59.9486580  77.5373764  47.4122391  18.1797142
  76.6714783  47.1587677  18.4994164  77.7682953  46.7311401  17.5480423
  25.8907585  57.1506996  14.3573675  25.7975864  57.7019997  13.5804396
  26.8352661  57.1027107  14.5051317  65.6455002  62.2108727   6.1239491
  65.6172791  61.8670273   5.2310863  66.1208115  63.0381622   6.0470986
  68.7459412  45.4260025  41.8962555  69.3396072  45.5832787  42.6304626
  68.2055283  46.2148170  41.8519974  76.6623459  33.1926155  58.9491425
  76.9777603  33.7272034  58.2204742  77.2011719  32.4021301  58.9170723
  55.5085678  58.0478401  73.7925491  54.9170227  57.2997131  73.8738403
  56.1088219  57.9601212  74.5329742  26.9239292  58.1852913  72.6718674
  26.1360054  57.6538811  72.5578156  27.1307926  58.4989395  71.7914886
  76.1513977  35.3849945  20.2441483  76.1389694  35.5708084  19.3052387
  75.2399063  35.1899033  20.4617825  34.5014687  18.3141499   6.8305597
  33.9019089  18.2813873   7.5760016  34.1732750  17.6452541   6.2296433
  33.6166573  30.6874905  75.7132416  34.2411385  30.1044235  76.1448517
  32.8915443  30.1163864  75.4597015  38.0396347  23.8905487  74.9922714
  37.1749153  23.9226837  75.4014893  37.8641586  23.9721317  74.0548325
   6.2268653  52.4192657  31.2779102   6.7183666  52.1470871  32.0528793
   6.3279829  53.3707619  31.2521248  75.7971878  60.5998421  21.1302681
  75.3911285  59.7838707  21.4227352  76.0793381  61.0297699  21.9375992
  58.3261566  53.9183083  41.9467087  58.1586952  54.8313637  41.7132187
  57.5886154  53.4362907  41.5726471  80.4955826   0.9013698  34.3054924
  80.9122009   1.0295509  33.4533005  80.7686539   1.6595386  34.8220596
  81.6651688  45.3966942  70.4619446  82.2930603  45.8505058  69.8997803
  80.9215927  45.9963264  70.5233154  42.1492119  36.3825150  22.9324474
  41.2840042  36.4254799  22.5252628  42.6875992  36.9810638  22.4146519
  63.9840469  33.6596870  16.9533615  64.4746857  33.7743149  16.1394997
  63.2918129  33.0374374  16.7301006  18.9280663  47.2447968  46.5362167
  19.4315395  47.1154404  47.3399658  18.1200619  46.7515068  46.6777229
  42.4297867  62.5205002  53.7785454  42.2574234  62.1920967  54.6609726
  41.5672226  62.5617867  53.3656197  27.4001255  20.4582062   6.6311541
  26.4461403  20.4054832   6.6891384  27.7145634  19.8083324   7.2596650
  25.8975067  50.5524139  79.5559464  26.2980766  51.0892029  80.2397919
  26.6265182  50.0572281  79.1823654  83.5528412   5.7559752   3.1696656
  82.9331284   5.5393386   2.4730663  84.0326080   4.9423809   3.3249896
   3.9378946  36.5457039  10.9083891   4.2234759  36.2342186  10.0495224
   4.7308865  36.9004097  11.3103600   9.7015553  12.3806219  84.3521423
  10.2085438  11.8325043  84.9511108  10.0616560  13.2597599  84.4690857
   0.8954567  35.6023026  42.2287369   0.4569651  36.4482498  42.3200150
   1.6735655  35.6749840  42.7814522  47.0644264  66.8553772  20.9259739
  46.8967743  66.6879272  19.9985657  46.5883331  67.6644058  21.1131687
  12.2903776  40.1769257  37.0633240  11.5036860  40.3667908  37.5744972
  11.9658804  40.0045242  36.1794624   3.0518839  62.1610985  58.4224281
   3.2388353  63.0978661  58.3612328   2.4691384  62.0819969  59.1776657
   8.8581600  44.0637627  59.7667809   9.2209578  43.9793320  58.8850327
   9.4416676  43.5411682  60.3169136   6.8258581  70.3738327  21.9044285
   7.7343745  70.1322403  21.7242565   6.8389835  70.7014847  22.8037071
  12.8326836  60.3061752  83.7844162  13.7204132  59.9849777  83.9425354
  12.5375395  59.8239822  83.0120087  66.1697540  70.2730331  13.6966467
  65.3351898  70.7017365  13.5070190  66.3474884  70.4891586  14.6120338
  75.2598114  70.0703964  85.9629745  74.7196655  70.4679413  85.2800140
  75.5024643  69.2148895  85.6087723  10.8373871  66.5370178   2.7248487
  11.3237495  66.0690002   3.4035547   9.9264622  66.5039062   3.0169983
  34.1002541  58.2333298  33.4902115  34.3272438  58.3006439  32.5627518
  34.9436188  58.1833725  33.9401817  76.8676376  57.4016228  24.0839615
  76.4706573  56.5492172  24.2629700  76.3129044  58.0268822  24.5503845
  48.5201378  19.1526184  19.2927742  48.3571091  19.5440559  20.1509285
  49.4175491  19.4083271  19.0794640  64.1368866  70.0995331  78.5349731
  63.6404762  69.3793411  78.1462250  63.5353775  70.8438263  78.5139313
  85.9639206  29.4129086   2.6796567  85.2050171  29.1447849   3.1977394
  85.8620224  30.3591824   2.5776002  58.3147697  70.5962830  73.3203735
  58.1336784  69.7525558  72.9061661  58.7309189  71.1162186  72.6328354
  44.1122284  19.1284504  85.6083298  43.6506042  19.1461945  86.4466705
  43.4753799  18.7670803  84.9918289  59.9771614  10.4864311   7.3365483
  59.6025009  11.3648748   7.4013581  59.2486153   9.9358950   7.0495534
  35.1750259  70.6314774  14.8090477  35.3893509  71.5486984  14.9793453
  34.4221230  70.6669998  14.2190418  56.7032242  37.1321526  15.8877869
  57.6169662  36.8625984  15.7948170  56.4427986  37.4034691  15.0075598
   2.1220276   3.1929958  62.8913002   2.2268484   3.5494096  63.7734642
   1.3632346   2.6130862  62.9558754  63.3796959  59.3074417   6.7817993
  64.0521545  58.9409943   7.3560376  63.8461113  59.5237389   5.9743934
  62.3860168   0.3943804  15.9214258  62.9203720   1.0622681  16.3511009
  62.9522285   0.0387766  15.2364559  83.8055344  66.8239517   2.7521780
  82.9817505  66.3422165   2.8266029  83.5397339  67.7336273   2.6177516
  85.5199280  24.9062023  15.2098732  85.3859329  25.7546005  14.7873831
  85.2560959  24.2654572  14.5495176  29.7914677  41.3552208  22.2198639
  29.1019363  41.2534409  21.5637989  29.8206100  40.5108032  22.6696873
   0.8673771  41.4842873   1.4529237   0.3039205  42.0995255   0.9836358
   1.7575107  41.7591782   1.2330866  75.8224182  35.7118263  38.5051918
  75.4837875  35.6019020  39.3937187  76.5315247  36.3483238  38.5961647
  75.7012863   5.6956944  51.2943954  75.9987564   4.8365631  51.5937881
  75.6986771   6.2367969  52.0839767  81.6911163  14.0369854  53.2773285
  82.5634842  13.8827457  53.6398506  81.5087814  13.2577620  52.7521667
  85.2347260  63.6369362  47.9321442  85.5405731  63.9832420  48.7704544
  85.3902283  64.3465118  47.3088036   9.5218344  67.6541748  48.6737480
   9.0183086  67.7347336  47.8636818  10.4045200  67.9383240  48.4363518
  31.6639309  71.0309982   0.9420418  31.7588692  71.9263306   0.6170679
  30.9980793  71.0940857   1.6267993  48.4038391  48.2525330  64.7670364
  47.4973869  48.0657730  64.5227127  48.8209763  48.5247955  63.9496574
  76.8783722  43.6007347  60.7370644  75.9936142  43.8445320  60.4650345
  77.2640076  43.1940346  59.9611053  51.5454483  68.9242935  20.7664261
  51.7668991  69.1713562  19.8685665  52.3479309  69.0831985  21.2634201
  69.8629150  58.0122986  87.1574783  70.4738159  58.7371445  87.0247116
  69.3142014  58.2926369  87.8899841  18.4947796  49.1914597  37.5711327
  17.9135952  49.0446472  36.8248711  18.0778561  49.8982010  38.0640030
  22.8129311  40.3087234  22.0161304  22.1196442  40.0662270  22.6299553
  23.5464020  39.7381325  22.2456436  26.4637737  42.3012314  87.0344543
  26.0625057  42.1709023  86.1752548  26.2076473  43.1884727  87.2863159
  11.3093767  37.0544472  69.8635330  11.7981625  36.6127815  69.1690903
  10.6004457  36.4487762  70.0798950  23.2442055  53.0039558  64.2723389
  23.1592388  52.1040077  64.5871429  22.7579613  53.0162315  63.4479332
  14.7104635  54.4534950  30.6279678  14.3337460  55.0621796  31.2634354
  13.9559660  53.9918900  30.2620640  51.3606567  68.4304886  62.6715927
  51.0654259  68.9386978  63.4271011  51.9378357  67.7630844  63.0426292
  13.2813396  71.2680130  18.2817936  12.9593344  70.8050690  19.0552483
  14.1770544  70.9502106  18.1680756  83.5253830  16.5375729  26.0393143
  84.0226364  15.8716221  25.5644684  83.9587326  17.3622322  25.8193779
  43.4495087  54.6239891  35.1069870  43.2955170  55.2820320  35.7848473
  44.3836250  54.6961784  34.9108963  53.9447021   2.0415921  34.6956520
  54.3308792   2.9066510  34.8326683  53.8191643   1.9826238  33.7485504
  11.7834463  59.2360649  67.6888657  12.3210506  58.9437637  68.4249191
  11.4467821  58.4277077  67.3022766  52.4161301  52.2753410  26.9736195
  52.0183754  51.4303131  26.7639713  53.0006828  52.0892067  27.7083874
  20.3787155  57.2101250  59.1484375  20.6012268  58.0277557  58.7032356
  20.6036549  56.5254822  58.5184441  42.0023079  53.6863861  31.1250057
  42.0013161  53.1121216  31.8908062  42.1031609  53.0929604  30.3807583
  15.8175726  60.8875694  34.1978149  15.9226618  59.9693947  33.9485397
  16.5410404  61.3383026  33.7623062   4.3308682  25.9902267  65.0953522
   4.5671039  25.4487495  65.8484955   3.4866557  26.3743725  65.3319321
   6.4426122  65.7092667  75.4276962   5.6670623  65.1605148  75.5444336
   6.3116913  66.4404984  76.0313416   9.1777458  67.6642151  12.4135447
   9.5150251  66.8304977  12.7412500   8.3366508  67.7733459  12.8572588
  48.7888947   2.8588586  45.5077477  48.4707527   2.0308144  45.1480827
  48.4566841   2.8734968  46.4053307  25.0391827  53.5002022  67.1436768
  24.8737297  54.0162659  66.3546677  25.2822113  52.6340141  66.8167343
  12.4898329  65.4315948  59.5814095  12.8462105  64.9286652  60.3137245
  12.3570042  66.3104858  59.9365845  80.3432846  55.9896431  74.5074387
  80.7544327  55.8005867  75.3509140  79.4841614  56.3456268  74.7341995
  44.7776604  58.5527000  45.8177528  44.1167679  58.5729675  45.1256218
  45.5318489  58.1212006  45.4162064  78.0182037  28.3446198  19.3003902
  78.1530380  29.2053146  18.9038315  77.3146362  27.9507885  18.7845249
  82.8013535  56.2726135  60.3746147  82.3029785  56.1770973  61.1862373
  82.3829803  57.0045853  59.9213867   7.4676189  54.6200256  62.9752121
   7.4718695  55.0937958  62.1434937   7.0789299  55.2337723  63.5984840
  10.8072557  63.9110069  82.7357025  10.6526308  63.1780472  83.3315964
  11.2275391  63.5146408  81.9724884  39.0354309  59.1175270  42.8321724
  38.0856133  59.2361336  42.8355560  39.1888008  58.4313507  42.1826553
  43.7522049  34.8135376  24.3214722  43.2404404  35.3820648  23.7460518
  43.1021919  34.4004555  24.8898697  34.8975716  48.1979713  37.7173843
  35.3256035  48.6753998  37.0066910  35.5409203  47.5425644  37.9871521
  57.8486557  10.9884977  79.8884583  57.0350914  10.7643938  79.4366531
  57.7548981  11.9162674  80.1045227  22.5625553   8.2043066  61.4856415
  21.7439594   8.2032909  60.9895287  22.7535152   7.2782464  61.6345673
  55.0037308  27.8221111   2.9558611  55.8492165  27.7212791   2.5185730
  55.1735725  27.5762253   3.8652158  86.6639175  12.5547009   2.1849606
  87.1201096  13.2791910   1.7569050  85.7467194  12.8277922   2.2052712
  75.1900787  40.4183197  59.1268692  75.5956345  40.2404251  59.9754601
  74.8850098  39.5633392  58.8232689  30.8303089  53.1404076  18.2078762
  30.3892517  52.7680702  17.4442902  31.7606411  53.1123199  17.9844418
  35.7288170  38.8129349  71.6480484  35.8918114  39.4894753  72.3052826
  34.8170166  38.9456482  71.3887329  26.4936333  23.2740192  76.7063141
  25.9726048  22.4939766  76.8968201  27.3907261  23.0222664  76.9255753
  80.8490372  13.9056768  10.6194649  81.2535629  14.6782036  11.0141773
  81.0497513  13.9804783   9.6865387  84.6279068   0.8919331  43.7004242
  84.0879669   0.7188834  42.9292183  85.4506073   0.4355255  43.5241203
  67.7141876  59.0346375  38.6665955  68.5028992  58.5039940  38.7787933
  67.7149658  59.6268387  39.4186134  76.1028824   8.4930468  80.0726471
  75.8258743   8.9561682  79.2820740  75.6971512   8.9798937  80.7900009
  21.1559772  20.2715569   3.6095488  21.1281986  21.0274544   3.0229671
  22.0799332  20.1839943   3.8437965  10.2606659  50.2867317  57.6289520
  10.0609379  50.7604218  56.8215141   9.4055204  50.1120949  58.0219688
  63.6312485  41.4736557  85.6319580  62.8034515  41.5937042  86.0973282
  64.2732086  41.3112221  86.3231354  51.5527458   1.4273157  51.0872688
  52.0321884   1.0746334  51.8369217  50.6347237   1.4032692  51.3572540
  54.7240295  13.9201431  16.3639660  55.0081520  14.2255411  17.2254982
  55.4451714  13.3721609  16.0542870  35.2046471  65.5777969  60.6636086
  35.1779251  66.2092667  61.3824692  34.4634323  64.9951401  60.8289566
  37.4353905   9.7743587   7.9451847  37.4572639  10.0775957   8.8528194
  36.7688522   9.0874052   7.9381628  11.0119333  61.1674690  35.1367836
  11.1791353  60.4108620  35.6987648  11.8557367  61.3498268  34.7232933
   5.5181127  48.6822739  38.3107033   6.1481991  47.9635544  38.2590714
   4.7001777  48.2647934  38.5807457   3.8198698  29.4778023  84.4532166
   4.0825348  29.9883575  85.2190933   2.9313605  29.7765331  84.2594528
   0.5582681  51.1822624  52.2907982   0.5366207  50.9318047  53.2143974
  -0.1431719  51.8273697  52.2010689  22.6436920  12.2477560  85.0475616
  23.5898972  12.3573875  85.1419373  22.5339336  11.3358498  84.7780991
  54.1436615  10.8536520  14.7942953  55.0082970  11.2629242  14.7606373
  53.6698456  11.3493900  15.4621105  74.6038055  28.3466606  50.0051346
  74.4338379  27.4362888  50.2471428  74.7287521  28.7972012  50.8403778
  20.4059372  59.0811768   8.5234480  20.8481617  59.8673782   8.8436890
  19.8384151  58.8142471   9.2465658  49.9818993  21.7294312  62.4674301
  49.0892487  21.8636017  62.7858772  50.5392685  22.0800800  63.1621361
  26.2665253  42.3202362  30.3224087  25.7265835  41.5643234  30.5532570
  27.0449219  41.9424858  29.9129753  63.0000648   2.3552377  25.2716389
  63.8099556   2.5653763  25.7365532  63.1820984   1.5213828  24.8383026
  49.0339699   1.4046937  52.0348701  48.4056053   2.0529933  51.7169151
  48.8753166   1.3597223  52.9777603  59.7947235  68.1401825  82.1080704
  59.2094612  68.2572937  81.3597488  60.6735229  68.1510696  81.7288361
  60.7604294  57.6217957  39.4029732  60.3167496  56.7758560  39.3416023
  60.0933151  58.2180214  39.7431297   5.7640653  69.8946304  52.9045372
   5.3474483  69.3564835  53.5776329   5.1430464  70.6060944  52.7483711
  27.2882576  65.6594162  86.6971741  26.6366024  65.7507782  86.0020218
  26.7850361  65.3800354  87.4619904  54.4538040  25.9682827  87.2029037
  54.9951172  25.9284325  86.4144745  53.7252617  25.3739071  87.0235291
   4.7472377  57.9846306  69.1276627   4.4964013  58.0294991  68.2050018
   5.7007551  57.9020576  69.1128998  63.8564720  32.7816467  36.5996017
  63.7159500  32.3643684  35.7496796  63.1612816  32.4310684  37.1564064
  30.6970825  37.2357178   0.0426050  30.8146496  38.0903244  -0.3721927
  30.2897148  37.4328766   0.8860573   3.8366480  45.1308784   1.1370887
   3.9744411  45.9751854   1.5664978   4.4781661  44.5480537   1.5432899
  53.6383972  41.1539230  21.9679165  53.2388229  41.8819237  22.4439240
  53.2455826  40.3710213  22.3539085  14.9799128  57.1820831  65.6308823
  14.9887762  57.4822273  66.5397644  15.1624823  56.2441101  65.6866074
  40.3866997  48.9802284  32.1088448  41.2105179  48.7834549  32.5547485
  39.8059921  48.2581673  32.3489265  14.3408594  23.0112267   7.1900401
  14.8748083  22.9861965   6.3959975  14.9064541  22.6462975   7.8705997
   0.4397327  68.9403458  36.3349800   1.3090651  69.2182922  36.0464706
  -0.1520162  69.2587204  35.6532898  65.8056488  59.2717896  83.2924881
  65.1759720  59.7827530  83.8010712  65.4428177  58.3860817  83.2823410
  85.4313812  59.6310005  32.3304977  84.5632324  59.9238281  32.6076317
  85.4004517  58.6779022  32.4134216  81.6720810   1.0679191   1.7237555
  82.2138596   0.5223816   1.1535864  81.6790161   1.9299265   1.3076702
  62.1724777  25.0748329   9.6751614  62.3839226  24.4525318   8.9792700
  61.5454216  24.6103172  10.2294712  44.5108795  65.1108170  19.8134441
  44.4832802  66.0063858  19.4766579  43.8463135  64.6438675  19.3069420
  47.1453285  17.3557072   7.3297482  47.8044739  17.2636719   6.6417880
  46.4554977  17.8862095   6.9310861  51.8642807  71.0404053  66.3440018
  52.4127197  70.8366394  67.1015778  52.4564095  71.4736481  65.7292480
  34.5924454  24.7934952  15.7926378  35.1174202  25.3672504  15.2345715
  34.9760513  23.9249516  15.6713457  43.1136513  15.3152018  16.1764069
  43.0403557  16.2362061  16.4266281  43.4780006  15.3356867  15.2915010
  21.6727829  65.7607574  64.5902481  22.2670803  66.2691879  64.0383987
  21.0917492  66.4132996  64.9811707  81.1946716  44.4741402  14.5687065
  81.5197220  43.5739326  14.5828238  80.9125824  44.6410637  15.4680357
  39.3808441  59.9459229  45.6521378  39.4702606  59.6829453  44.7361259
  39.0754738  59.1565628  46.0992279   5.5531082  47.4700661  45.2373505
   4.6706696  47.1020927  45.1912079   5.7108455  47.8245583  44.3623161
  60.8741074  35.5286217  10.9138155  60.7098503  36.4707985  10.9533062
  60.4262924  35.1750107  11.6823540  27.3295670  39.1114807   4.0787582
  27.6432972  38.5332413   4.7740631  26.3913765  39.2005081   4.2463927
   3.7262132  39.5700912  51.9613457   4.2710466  39.3048248  51.2203865
   3.5477662  38.7554512  52.4311867  83.0081253  58.1648064  79.6345291
  83.9532776  58.0852547  79.7633362  82.7080307  57.2656708  79.5013962
  85.7609558  55.1103897  47.1120071  86.7019653  55.0411606  47.2730789
  85.4565964  55.7597923  47.7459412  82.6532211  25.0726051  86.6110153
  82.5609665  25.9748058  86.9172058  83.2368317  25.1348000  85.8548660
  61.4907990  13.0091476  15.2724857  62.2017593  13.1143198  14.6402636
  60.8779602  12.4099751  14.8462763  19.4974861  61.5863762  24.1596394
  19.1427956  61.1256714  24.9200191  19.1959457  62.4887962  24.2642403
  27.7794895  54.1336555  30.7518959  27.6114082  54.5417366  31.6012783
  28.6336231  53.7135429  30.8528442  36.3407898  32.5969505  70.2675171
  35.6464272  32.1658783  69.7692490  36.7153015  31.9011288  70.8077087
  80.4356766  14.4543314  79.9768753  80.4269333  15.3402205  79.6144485
  80.0756836  14.5526047  80.8583374   2.1389453   5.7565994  84.2033310
   2.0967214   5.2496419  85.0141602   2.1608238   6.6689272  84.4921341
  61.2123032  53.2864304  47.7336731  61.5357628  53.6231537  46.8980751
  61.9853745  53.2623596  48.2975998  74.0579758  22.1731262  66.8288116
  74.6580505  22.2739296  67.5677185  73.3621750  21.6058941  67.1609955
   1.0230558  54.4936829  70.8774261   1.6858951  55.1838722  70.8547440
   0.4279196  54.7094650  70.1594620  15.4240828  10.7404575  82.1331177
  15.1228123  10.8643074  83.0331955  15.7371483   9.8362608  82.1076126
  44.0046349  37.6558571  60.0706787  43.8674507  37.3656502  59.1689072
  43.8021927  38.5912666  60.0546761  70.3929596  29.2797909  62.0449791
  69.9720154  28.9865990  61.2368469  70.9393768  30.0182858  61.7761230
  70.5036621  24.5619297   1.1093880  70.0971680  24.7885590   1.9458274
  70.2483215  25.2708797   0.5191164  33.9843330  45.9023323  77.0755768
  34.6075287  46.4397392  77.5645065  33.8110428  46.4023476  76.2779617
  51.0158424  59.0669250  34.9640312  50.8011017  58.8285408  34.0622063
  50.8734283  60.0127029  35.0021553  66.7002411  24.9890633  79.3247910
  66.3872375  24.6240177  78.4971466  66.0839386  24.6609650  79.9795837
  33.5149384  52.4155540  36.5354385  33.7140808  51.7906265  37.2326012
  32.8572731  51.9736786  35.9983597  59.6492805  36.3584251  56.3230476
  59.8964424  37.2830620  56.3091507  59.2837563  36.2213249  57.1970215
   9.3055096  42.1226883  11.6161232   9.6847954  41.3179588  11.2628736
   9.2565784  41.9702568  12.5598402  44.3449745   4.7842631  25.0522633
  43.8180237   5.4431181  25.5044403  44.9117508   4.4221630  25.7333508
   1.9603797  58.7193871  14.7430191   2.4512892  58.2361908  15.4076710
   2.3221560  59.6050186  14.7747240   0.8578867  56.1247482   2.8449531
   1.0222023  55.7262955   1.9902803   0.8289695  57.0652275   2.6691785
  50.0296669  61.6376495  80.7265854  50.3013382  60.9719429  80.0947113
  50.4300537  62.4469681  80.4088974  66.5008163  45.4347534  17.3526592
  66.1894836  46.3088989  17.1177654  67.4549866  45.5035667  17.3200779
  30.3934441  58.6946983  57.8152466  29.4665680  58.8881950  57.6749115
  30.8076744  59.5536995  57.8974419  33.5358429  57.7356148   0.3273359
  33.0713234  58.5568161   0.1658226  34.4330139  57.9077148   0.0415150
  20.0893898  69.0783386  74.1860046  19.3472633  69.4646759  73.7210007
  20.6637039  68.7534866  73.4925537   2.5191200  26.9459476  83.2983093
   2.6263435  27.1081390  84.2355576   3.2924256  27.3420830  82.8966751
  71.3212280  16.6769619  14.4208403  70.8363724  16.7199860  13.5966454
  70.6755524  16.3831596  15.0635023  20.8766212  59.4272575  45.0329971
  20.6035957  58.6338844  44.5722961  21.6473064  59.1601334  45.5339165
  70.1398468   3.8281281  87.9962006  70.2962875   4.6619205  88.4395370
  69.2308502   3.8807251  87.7009125  81.1408615  24.5289516   0.5063683
  81.4169693  25.4192524   0.7239935  81.2819290  24.4584751  -0.4377531
   7.7809076  58.6382446   5.4378958   7.0427036  58.9897232   4.9401526
   7.8419533  57.7236633   5.1621304  13.7968578  21.7471294  74.7862320
  13.7397356  22.6215343  74.4010239  12.9460258  21.3486691  74.6030731
  20.1130409  68.3014984  58.9636002  20.6301022  69.0784683  59.1762009
  19.6621037  68.0833282  59.7792549   5.6661487   0.3936593   7.1254029
   5.4764209   1.3305315   7.1754603   6.0493941   0.1810940   7.9763851
  12.0566826  32.0578804  29.2536926  11.1047621  32.0283546  29.3496494
  12.2050772  32.6547699  28.5202541  29.9291954  58.7297058  60.7003365
  29.2024612  59.2473831  61.0468864  29.7654514  58.6876755  59.7581825
  33.6782875  45.6998940  54.3449860  33.7677078  45.4569702  53.4234543
  34.2848053  45.1199799  54.8054924  34.1257744  46.0383911  42.8387108
  33.9885330  45.6110001  41.9932899  33.5964775  45.5297089  43.4529724
  16.8117352   7.0539088   3.6881866  17.3223610   7.5762253   4.3067966
  17.4547997   6.7381721   3.0533566  25.1912365  62.6779976  13.4208899
  24.9631481  63.1206055  14.2383890  25.6334400  61.8756447  13.6982355
  56.0284042   8.8843012  79.2164688  56.8514938   8.4926844  78.9242477
  55.5314140   9.0263233  78.4108276  77.7648621  54.5561523  11.4959106
  78.3569565  53.8529015  11.7625561  77.5223618  54.3368759  10.5962753
  73.7615662   5.3062000  41.0872574  73.8534393   5.3128982  42.0400124
  74.5088501   4.7940826  40.7781639  57.4980965  67.3213272  65.2764206
  57.6920090  66.5999451  65.8749466  58.3272629  67.4910660  64.8293076
  74.8412781   2.3466399   3.8724434  75.0144730   2.9924750   4.5573759
  75.5043106   2.5220046   3.2047112  61.3193588  45.0634918  82.1390305
  61.7192307  45.2160606  82.9952164  61.4202805  44.1230965  81.9916992
  60.1229515  63.5703278  55.3916893  59.3334579  63.8866234  55.8308792
  60.0807495  63.9554977  54.5164223  44.8727531  31.7607327  70.4101715
  44.1180573  32.2259445  70.7710724  45.6313934  32.2044334  70.7894135
  20.6368160   9.6048851  78.4268494  21.4124699  10.1651783  78.4526062
  19.9018250  10.2081499  78.5368118   8.0774412  50.5615273   1.8946333
   8.9844074  50.6481628   2.1881270   8.1391945  50.0977745   1.0595562
  47.1084976  31.7253284  86.8381271  47.9084549  32.2221832  86.6665649
  46.8654976  31.3612137  85.9868927  38.9587784  63.9788208   3.4353013
  39.9128685  64.0542526   3.4192405  38.7453156  63.8358002   4.3573694
  48.0782700  56.8020897  14.5845776  48.7605553  57.2867279  14.1199875
  47.3900375  56.6724396  13.9320774  61.7075844  24.7709808  29.6032524
  61.0998154  25.3611622  29.1576805  62.5307159  24.8688049  29.1245899
  69.7211227  66.7806396   1.1028495  70.6023941  66.5172729   1.3678830
  69.4505615  67.4143829   1.7672274  78.1662064  66.2689972  18.4843044
  77.5606003  66.2913742  19.2252312  78.1475525  65.3592987  18.1871052
  55.9516144  45.9383354  20.9253960  56.4322128  45.4279404  21.5771255
  55.1496048  46.2056236  21.3743649   3.8387432  51.3434639  43.5961037
   4.5893121  51.2266273  43.0136719   3.8932846  52.2569656  43.8767662
  63.5673447  22.5966702  62.6559372  63.5119209  21.8976212  63.3074684
  62.7272644  23.0509720  62.7200356  72.6953430   7.0776119  57.5802841
  73.1269684   7.5285316  58.3059578  71.7739487   7.3248134  57.6587868
  70.7191925  69.1004333  29.7555981  70.9042130  68.3316727  29.2161446
  70.4886093  68.7417908  30.6125927  47.9183578  24.6360054  31.8541946
  48.6231728  25.0838585  32.3220596  47.7213135  23.8704033  32.3938789
   1.8564734  47.9869385  21.6054573   1.8938074  47.0415344  21.4603596
   2.6888869  48.1973686  22.0285854  74.5102921  21.4788666  51.6238976
  74.1160126  20.8700123  50.9993362  74.7177658  22.2549477  51.1034355
  50.8645401  21.3139496  37.4466133  49.9748383  20.9617538  37.4217491
  51.1170006  21.2620525  38.3684616  22.8213158  53.1848297  31.7651443
  23.6944256  52.9285545  32.0621834  22.6795444  54.0476990  32.1544914
  57.7814445  21.0439205  61.9185753  58.1578255  20.8311558  61.0645828
  58.3123131  21.7729645  62.2393646  73.8945084  55.6360779  85.1320877
  74.0744095  54.8593750  85.6618042  73.7210007  56.3270531  85.7713699
  69.5546188  19.8293896  87.4948120  69.6732178  19.2644196  88.2583466
  69.8106461  19.2838593  86.7511215  58.0817413  48.1196136  70.1696854
  58.8316460  47.5410767  70.3081284  58.4023056  48.7859497  69.5618439
  70.7771530  21.9560719  49.0355797  69.8225784  21.9022179  49.0816536
  70.9475174  22.6331062  48.3807259  69.4086914   9.6568451   5.7434258
  69.8338394   8.9059935   6.1577935  70.1321335  10.1893444   5.4127975
  85.8154755  46.8822746  19.7568073  85.7666092  45.9536972  19.9839363
  85.6794357  47.3393364  20.5867615  76.2579193  31.5807381   6.1807356
  76.5512314  30.6855087   6.0111423  77.0565567  32.0544891   6.4130478
  27.3305931  10.2705803  88.1464844  27.0730820  10.5091591  87.2559814
  27.7584286   9.4195213  88.0522079  20.8356323  17.7336521  13.4526424
  21.5249577  18.1472111  12.9329967  20.1128731  18.3609619  13.4343109
   8.6581593  31.2172089  77.4542313   8.1627188  31.1210823  76.6408920
   8.8508539  30.3195019  77.7248306  43.7225990  38.3677940  37.1064415
  43.8818436  37.4243584  37.1347389  42.9136505  38.4591560  36.6029701
  72.1322861   8.9131956   5.8782291  71.6381531   8.0989265   5.7831950
  72.8261566   8.7008247   6.5024681  45.9196892  64.7997894  43.5814552
  46.6589241  65.0146332  44.1503181  45.9023361  63.8429375  43.5623627
  57.6259689  27.3031311   2.3809428  57.9430733  26.6019669   2.9501929
  58.3913574  27.5579433   1.8656936  36.5999260  49.4776154  24.4321842
  35.6822662  49.6598701  24.6344509  36.5801010  48.6466141  23.9575500
  37.9884338   8.3705788  88.9766464  37.6090775   9.2196741  89.2032623
  38.1594810   8.4278898  88.0365982  74.0773849  17.1411438  77.6032791
  73.6483307  17.1793594  78.4580765  73.3899612  16.8526173  77.0029221
  35.6470070  61.7987289  67.4215622  35.4873390  61.7484398  68.3640137
  34.8788185  62.2505150  67.0722656  83.4716797  49.2657394  28.9256687
  83.2946548  50.1986771  29.0461884  83.7080460  49.1842117  28.0017014
  35.2048035  59.8433380  77.6795273  35.0482635  60.2286720  78.5416412
  34.4179001  60.0536118  77.1767349  68.8609619  48.2680702  10.1202459
  68.9030228  48.8486900   9.3604174  69.7706604  48.1793251  10.4045162
  66.0179520  35.9358177  49.2410126  65.4396896  36.0234337  49.9987526
  65.4512558  36.0991974  48.4870949  48.1548920   3.5063345  60.2725334
  48.3528099   3.4670625  61.2082253  48.8826256   3.0462286  59.8542747
   3.1022933  23.2240429  19.4484940   2.2723894  22.7924480  19.6515160
   3.6858640  22.9692879  20.1631813  30.9713402  39.1713219  11.0944500
  31.2906132  38.9268188  11.9630775  31.0492973  38.3702316  10.5763693
  37.7565193   2.4383442  30.2477207  37.0974045   2.8056948  30.8366661
  38.5383186   2.3444350  30.7919636  46.5376740   1.4354080   1.5553777
  46.0499954   1.6762595   0.7677259  46.7852821   0.5217007   1.4137417
  43.7601814  44.9511299  88.7237320  44.0338974  45.8340073  88.4750595
  44.3361435  44.7179680  89.4518356  55.0162964  60.8303947  34.2344093
  54.4767456  61.5276451  33.8616371  54.5805893  60.0212669  33.9666290
  57.7671432  24.1084805   6.1033268  57.8251801  24.7902603   6.7726851
  57.4033241  23.3518314   6.5630536  54.3593826  56.5033150  85.5302887
  54.9795532  57.0358887  86.0282745  54.5760727  56.6770401  84.6142731
  85.8956375  55.9733276  63.1316261  86.4091797  55.7264786  62.3624916
  86.5232620  55.9565659  63.8541451  68.8746109  14.5936241  34.9397697
  69.7615204  14.2864056  35.1274796  68.6238174  14.1282825  34.1417809
  70.9685745   0.5090080  82.1027374  70.6200409  -0.3614432  82.2952728
  71.2509308   0.4573495  81.1895905  25.5808678  32.5020332  18.1730576
  25.6036758  32.0486298  19.0157547  26.3449726  32.1700592  17.7017078
  70.8441544   2.3605599  62.7764473  70.9287262   2.3182158  61.8239326
  70.7873459   1.4458694  63.0527573  83.0366974  60.1727676  25.9936352
  82.4055862  60.7332306  26.4450912  82.5377502  59.3899918  25.7600880
  48.7376671  47.8974190  41.1913071  48.2936287  47.2013817  40.7069550
  48.0293922  48.3905563  41.6053047  43.0135536  50.7084160  13.4154739
  43.8463707  50.6306229  12.9500732  42.9557915  51.6346703  13.6498899
  46.6647263  51.2752609  74.0750656  47.1984749  51.1241837  73.2949829
  46.2067871  50.4466286  74.2161026  63.9950485  39.9601402  34.4074936
  63.0932121  40.0271683  34.7212257  64.3230438  40.8591690  34.4274902
  75.9068527  51.6350212  62.9884300  75.9454041  52.5626259  62.7554092
  75.2546463  51.2654495  62.3932266  15.9033623  66.6798935  73.2746124
  16.0232639  65.7540207  73.4858551  16.7912140  67.0366898  73.2492065
   4.3459587   6.3120556  20.1058826   4.3578238   7.2637749  20.2074738
   4.7117486   5.9791255  20.9253864  41.5876846  48.5653038  36.8404503
  42.3719902  48.2073479  37.2563362  40.9145813  47.9005814  36.9864464
  71.7065735  10.4515676  66.2497711  71.6239395   9.5013170  66.1695938
  72.3564682  10.5779905  66.9410629  74.1828842  70.8489380  22.7481308
  73.8403015  71.2273331  21.9383831  73.4226456  70.7937775  23.3271160
  61.5663681  26.5532150  75.0945511  61.0245056  27.0222244  74.4600067
  61.4415207  27.0301857  75.9150009  14.7321005  28.0764065  67.7999954
  15.4141245  27.4342117  67.6033707  14.4573784  28.4038677  66.9435349
  64.7574921  59.7720642  33.3851700  65.0417862  60.4442253  34.0045319
  65.4317856  59.0949249  33.4403725  76.3871384  47.5440979  22.3701935
  77.2560883  47.5015564  21.9710026  75.8974533  46.8346176  21.9541702
  27.7792130  62.5533028   3.5720921  26.8764954  62.7574730   3.8163183
  28.1170330  63.3682861   3.2007246  38.0485344  59.2561989  59.0861053
  38.7020988  58.5714455  59.2282410  37.8906441  59.6210518  59.9568443
  61.1291161  46.7370834  54.7836037  61.9637833  47.1417999  55.0197601
  60.4708595  47.2633286  55.2374687  36.8191986  29.6140785  22.3822517
  37.1661911  28.7350178  22.5341759  36.1747437  29.4997807  21.6837902
  14.2631254  66.4922562  51.9910660  14.1896963  65.5380325  52.0084801
  14.5196667  66.7290344  52.8823318  11.9974756  61.6082458  74.4232483
  12.6899729  61.7685699  73.7821732  12.3660545  61.9084129  75.2540817
  80.4310150  27.5977097   4.8863001  80.5227737  28.3481293   4.2992020
  79.5079193  27.3532848   4.8201079  67.2035675  15.3310814   5.9900570
  66.8410187  15.9885445   6.5838017  66.7762680  14.5141802   6.2475820
  44.0988846  68.2785263  34.9115067  44.4685516  67.8181000  34.1581230
  43.5965195  67.6102982  35.3776970  17.5686932  69.1306992  63.8698540
  17.6655693  70.0417633  64.1469955  17.9064522  68.6194458  64.6052246
  52.5605812  44.1357803  44.9413719  52.0573997  44.9486542  44.8936157
  53.3440666  44.3680153  45.4398193  44.0567398  23.9202976  65.9614105
  44.7097855  23.5519962  66.5564804  43.3980637  24.3070068  66.5383301
  17.5257301  23.7869225  70.7757568  18.1834106  23.1138134  70.9507217
  17.0837879  23.4890347  69.9806595  23.1927223  24.4816551  80.9217148
  23.6694489  24.4394932  81.7506790  23.5609741  25.2422028  80.4720612
  69.1941681  12.0775833  41.9946785  68.5324402  12.4521475  41.4132576
  68.7920303  11.2765408  42.3306122  11.5504904  56.7503471  19.3197708
  11.7172527  56.6150856  18.3869648  10.6073236  56.6184464  19.4160576
  65.7435989  48.9215775  79.7121582  65.8339767  49.6831245  79.1393509
  66.5671921  48.8888512  80.1988373  42.3267517  63.7787132  82.8497696
  41.6812248  63.6780624  83.5493393  41.8217163  64.0980377  82.1019745
  59.6074104   8.6868849  44.6691208  59.7330208   9.6059523  44.4329681
  58.9262619   8.3771486  44.0721893   8.1769228  15.7895098  11.1970358
   7.8089933  15.0033379  11.6005125   7.4373727  16.3936825  11.1316566
  21.9915791  48.8546677  44.6896896  22.5925369  49.1977692  44.0283546
  21.5225506  49.6251984  45.0098953  37.9987373  64.1701889  25.8377247
  37.6387939  65.0476837  25.7085972  38.5453873  64.2482071  26.6195927
  62.2468033  71.4284744  84.9315491  62.2249374  71.9626007  85.7255707
  62.7193222  70.6366730  85.1884613  15.1391907  68.0260620  71.0152512
  15.0437746  68.8579788  71.4789886  15.6643257  67.4830246  71.6031036
  77.5226364  53.0791092  83.4616470  76.8340378  52.5766068  83.8970184
  78.0825043  53.3860168  84.1747971  60.2018623   9.2488184  33.6653862
  60.4701347   8.3518238  33.8645439  60.9282799   9.6086521  33.1563988
  26.9740639  51.3694420  59.4578743  27.5150566  51.0230751  58.7482338
  27.1030731  50.7540970  60.1796341   4.9765763  22.4372063  21.2823734
   5.2555008  22.7459297  22.1444187   5.4257779  21.5993042  21.1711559
  63.5561752  44.8799553  67.1670761  63.5849152  44.6535797  66.2374725
  63.1445618  45.7438164  67.1906052  30.5044479  24.4641037  17.3338604
  29.7472858  24.3689175  16.7560387  31.0101910  23.6625252  17.1999645
  51.7583084   9.2552872  19.9131203  51.3760910   9.0205832  20.7587318
  52.4147377   9.9195509  20.1230774  79.5782394  58.2816162  30.8450336
  80.5231781  58.1324730  30.8779449  79.4496994  59.1073837  31.3117409
  46.3488884  27.5484123  73.0476761  46.4762917  26.5997295  73.0494995
  47.1615257  27.8999062  73.4114151  15.2071352  48.6829262  63.2872581
  15.3283081  47.9403648  62.6955261  16.0951004  48.9874535  63.4743805
  42.8014717  71.5415878  77.9609604  42.6918221  70.6832199  78.3701172
  43.6349602  71.8651428  78.3027802   6.2966461  64.9371796  35.6143608
   6.2041931  65.7661667  35.1448097   5.5844274  64.9434128  36.2538414
  57.1367912  34.7677460  76.0129166  56.5316772  35.4609261  76.2766876
  57.5183716  34.4576073  76.8341675  78.8705215  62.2870789  34.8191414
  78.5595551  61.3820648  34.8411789  78.6562119  62.5925713  33.9376755
  60.8088493  23.2277813  69.6115494  61.2003479  22.3614082  69.5003815
  60.0809784  23.2432327  68.9901047  51.5076790  17.3721676  26.9146328
  52.0000229  17.2832756  27.7306786  50.6389313  17.0268517  27.1202164
  82.3546600  22.3233757  61.5517197  82.7523193  22.8001194  60.8231506
  82.0968933  23.0053520  62.1719551  15.5605545  49.8524971  83.9002075
  15.9896078  50.3363571  84.6059113  16.2360039  49.7596245  83.2283630
  65.4285583  27.5727272  17.3139706  64.4946136  27.7534943  17.4202709
  65.4975815  26.6205139  17.3829460  47.5149727  61.0775604  81.1116943
  47.5270882  60.1623573  80.8315430  48.3544731  61.4297066  80.8159409
  86.7618332  67.2514877   7.6649776  87.0804443  68.1526642   7.6139770
  86.3264160  67.1991806   8.5158043  65.4382706  16.9244385  38.6800880
  66.2749329  17.3857365  38.6215057  65.2632446  16.6313267  37.7858353
  72.6784286  32.7230835  18.6441307  72.5758133  32.0160980  19.2812138
  72.9071732  32.2785835  17.8278427  74.6302261  28.5748978  73.0314865
  73.7905045  28.4191780  73.4637375  75.0240860  29.2940865  73.5253296
  71.8266754  47.6736755  64.0078506  71.9758530  48.3449821  63.3420219
  71.4529724  48.1503448  64.7490387  53.4852982  22.1845837  55.0458870
  52.6338615  22.3004570  54.6241493  53.2899628  21.7086658  55.8530884
  53.5825882  58.6444702  42.3524399  53.9069252  58.7223930  41.4552383
  53.5032654  59.5481873  42.6577835  17.3271084  35.9049339  25.6550617
  17.1866989  36.8472481  25.5625019  17.0734558  35.7125130  26.5577621
  52.7172394  26.8881817  14.7078171  51.8675079  27.0512791  15.1171942
  53.0551872  27.7597713  14.5020161  86.5767365  20.6437950  64.6372910
  85.6940079  20.7864246  64.9788895  87.0896301  21.3722305  64.9873734
  24.6421871  43.4588127  54.5066757  24.2579975  42.5886993  54.6140938
  24.8154850  43.5298958  53.5679817  60.7934914   2.0051091  86.3671112
  60.1181068   1.5352920  85.8778610  60.9916191   2.7703648  85.8273315
  24.6272354  46.4580231  62.9045906  25.5373402  46.7055511  62.7412796
  24.5213757  45.6217842  62.4510117  42.3964157  63.8568726  18.4994125
  42.1313400  63.6877251  17.5953350  42.0333557  64.7200012  18.6979618
  45.6643448  59.9760284  43.1163368  45.5856361  59.2881927  43.7773323
  46.2743683  59.6191635  42.4707756  23.3851738  47.9649429  46.9636574
  23.2353840  48.6598091  47.6047134  22.9509354  48.2746696  46.1688385
  57.5421295  59.2089767  72.1927643  58.2600479  59.0193405  72.7967987
  56.8195610  58.6615906  72.5001678   1.7444154  52.3327904   5.9192429
   1.1394075  52.6968842   6.5654888   1.2966201  52.4468994   5.0809765
  47.3657379  39.1904335  89.2238846  47.9223557  38.4117126  89.2262421
  47.7144699  39.7319603  88.5158081  44.2537460  38.2765121  28.2327557
  44.1340179  39.1932602  27.9848194  43.5282707  37.8172569  27.8096733
  83.7108154  38.3861313  65.9490280  83.9455566  37.6702156  66.5394516
  83.0465240  38.8826866  66.4269333  61.8734245  43.2889061   1.1292665
  61.4224243  42.4894943   1.4008790  62.3513794  43.5710182   1.9091387
   9.4274235  36.0238991  83.3699799   9.9567642  36.1748734  84.1530762
   8.5885668  35.7074509  83.7052612  11.2014198  53.8123550  65.2841187
  10.3723555  53.4480515  65.5942307  11.5978775  54.2025299  66.0631027
  64.1697388  53.9031906  16.5883579  64.9964523  54.3588181  16.7470703
  64.0921478  53.2870636  17.3167801  66.8354797  60.0357590  60.9174232
  67.3554306  60.5250053  61.5550156  66.0044708  59.8701057  61.3626328
  71.8006821  54.8692207  32.7686920  71.2640610  55.6220207  32.5205956
  71.8479080  54.9130821  33.7237167  16.2855778  10.9818087  88.7045670
  16.5647850  11.7117062  88.1518250  15.4462500  10.7084446  88.3343887
  63.7394867  46.1487465  29.9579697  64.1851425  45.7183228  29.2283421
  64.4343185  46.6179695  30.4197845  23.8538074  57.4576416  55.6008110
  23.1646023  58.1217384  55.5864372  24.0898075  57.3773460  56.5249825
  71.6278839  44.7991104  38.3160172  70.9470749  44.4721222  38.9040756
  72.1072845  45.4419785  38.8386307  81.6517944  44.0167351  30.0401134
  80.8005676  43.8587799  30.4484024  82.2566681  43.4520187  30.5212059
  42.6733856  40.5860405  47.8480530  42.9693451  40.3510170  48.7274857
  42.1293869  39.8479691  47.5731926  86.4793396  56.2027626  23.4974689
  86.9464645  56.9188805  23.9278278  85.6867294  56.0849915  24.0210381
  61.4211807  47.7705231   3.5060723  61.3289337  48.7231216   3.4893496
  61.8674355  47.5586739   2.6861892  51.8502235   1.4481510  36.2029419
  52.1159821   0.5300265  36.2544327  52.5968056   1.8913565  35.7999268
  17.7928028  33.8994522  86.7509766  18.1525822  33.2777367  86.1183167
  17.0382462  34.2847977  86.3055725  65.3578720  60.2263107  49.2974167
  65.5709305  60.8628006  48.6149788  65.0415802  60.7563858  50.0289955
  19.3393974  56.8740921  17.1179123  19.5509243  57.6850777  16.6555328
  20.1787395  56.5687370  17.4621449  14.3239145   2.0487261   5.7306976
  14.0436697   2.9604838   5.8106532  13.8417044   1.5888023   6.4178476
  44.7849693  19.8477440  66.4717560  44.0550308  20.0485992  65.8860245
  44.4100609  19.2621098  67.1295547  13.9486675  63.7384300  51.9604073
  13.1931686  63.9687843  52.5011368  13.8291121  62.8089752  51.7653389
  35.6857033  38.8982239   7.4503140  36.0447273  38.2223320   8.0252085
  35.6536331  38.4860649   6.5869884  51.4522095  10.8517561  40.2011299
  51.1254463  10.1202097  40.7248650  51.3323021  11.6191845  40.7605133
  79.9912643  15.5181341   5.8288202  79.9708405  14.8356390   5.1579881
  79.2997589  16.1278458   5.5713115  74.7487640  38.1403999  63.2579613
  75.6014481  38.4644241  63.5480843  74.2497940  38.0222092  64.0662308
  69.0421219   8.3215818  15.1219568  68.6304550   8.0465317  15.9411678
  69.2742767   7.5027995  14.6838570  56.7870903  36.5092735  47.8795700
  56.2845688  36.3133812  47.0887947  57.3236694  37.2652550  47.6412354
  39.8308105  49.2885628  18.0204544  39.8416481  49.9693298  17.3476429
  39.0691643  49.4981575  18.5610085  44.4520111   8.4530191  64.0392609
  44.9981499   7.8917327  63.4888802  44.4975090   9.3138180  63.6231041
  26.1744156  70.2277527  61.0528412  27.0572643  70.0759735  61.3901443
  25.9357395  69.4042358  60.6272888  51.8921051  48.4949074  52.7093658
  52.8191452  48.7278557  52.6587372  51.6786957  48.1699295  51.8346786
  19.5189228   6.3363032   5.1948910  20.0958748   5.6022992   5.4060664
  19.9864845   6.8203292   4.5142026  33.8470688  54.9112358  55.7593307
  33.0434608  54.6111031  55.3346329  34.4205360  54.1448479  55.7556458
  68.4013748  29.6317406  79.4255600  68.8860168  29.4835701  80.2375946
  67.9427414  30.4597416  79.5680389  16.1769753  71.3335800  50.5615692
  16.3108997  70.4490662  50.9020462  16.6639118  71.3493500  49.7376328
  13.8359928  24.4385757  82.0970688  13.3942118  24.6766930  81.2819824
  14.3490410  25.2133789  82.3266144  43.5244713  45.9977989  36.4466934
  44.1244087  45.3470192  36.8111000  43.0431633  46.3305588  37.2042160
  68.1352234  40.1939240  73.2654800  67.9214096  39.3147621  73.5778656
  68.1589661  40.1102142  72.3122406  48.6682663  70.7654648  12.8452330
  48.4552536  69.8355408  12.9233189  47.8634567  71.1690598  12.5202341
  77.3309402   4.4422169  53.4337311  76.8092804   4.0270562  54.1205635
  77.7429962   5.1906729  53.8653069  28.8674583  14.1582642   9.3196106
  28.1261654  14.6986780   9.5928679  29.6299534  14.7275543   9.4232473
  86.3576202  16.6985416  35.9726257  86.8837738  16.6165409  36.7680321
  86.3632965  15.8210821  35.5901794  50.2912140   6.9116068  49.0176468
  50.4246368   7.8467164  49.1725655  51.1655960   6.5293317  49.0921745
  51.3070450  12.8328342  45.3223724  51.2449303  12.0422983  45.8584938
  50.4077339  13.1559553  45.2670059  49.7400169  63.0101089  35.1636314
  49.1309280  62.5691261  34.5713730  49.5047646  62.6868629  36.0333443
  32.4927368  44.1989708  47.6080437  32.8099785  43.8526268  48.4420891
  32.8346863  45.0923615  47.5740891  19.0680466  53.0658493  23.4082184
  19.4961052  52.5677223  24.1045418  18.1709290  53.1888962  23.7184944
  31.2983990  43.2718925  56.6407013  31.7402401  43.7284126  57.3566589
  30.4060020  43.1348190  56.9586143  49.0382881  42.4300919  58.2390862
  49.0662346  41.7267418  57.5904350  49.7381058  42.2151413  58.8557587
  79.1179352  18.9953175  49.7228966  78.4483109  19.6228561  49.4508171
  79.5352478  19.4040565  50.4811897  73.9570389  13.6466322  88.5557175
  74.2620087  14.3891563  88.0342941  74.0060654  12.8992186  87.9597321
   5.2966461  49.5652618  52.2733879   5.0949802  48.8100967  52.8259125
   4.4827056  49.7407532  51.8012238  75.2376709  -0.2170186  55.6880188
  75.3932495   0.3753139  56.4236603  75.1405411   0.3611554  54.9313736
  18.7464523  26.3476143   5.3145947  18.1245995  26.6189842   4.6393991
  19.3651066  27.0753670   5.3768563  69.3249283   0.0370389  54.1115494
  68.5900879  -0.1132295  53.5168533  69.6901245   0.8770269  53.8335495
  62.0298042  24.3420029  81.7466354  61.8930130  23.4143124  81.5545120
  61.7133522  24.4500523  82.6435242  84.2392197   3.0758696  21.7522621
  84.8796616   3.3633251  22.4029789  83.4434357   3.5618918  21.9684601
  83.4488220  36.9076118  84.7535934  83.6778717  37.8126907  84.9647903
  84.2561874  36.5319023  84.4025497  11.0153027  46.7356300  14.5265245
  11.6661701  46.2252464  14.0447483  11.3764811  47.6217194  14.5516262
  50.2462959  13.4106760  33.7350960  50.1527176  12.8734465  32.9484215
  50.2032204  12.7854605  34.4586182  63.6206894  25.8255138   4.5231457
  63.2156982  26.5673370   4.0737972  64.1955719  25.4325104   3.8664167
  24.1318703  59.3277512  45.8556824  23.9164848  60.0268288  46.4730377
  24.2942448  58.5625992  46.4074097  69.5559082  50.3966522  37.3933411
  68.8594818  50.4562721  36.7393723  69.3203049  49.6367149  37.9255219
  56.8019257  21.3743038  43.3244095  56.8611031  21.4613113  42.3730125
  56.6622696  22.2676907  43.6383972  25.4242516  13.9305859  78.1777191
  25.2356606  14.8625755  78.2875366  25.0037785  13.6970243  77.3501434
  86.4787292  57.2928772  20.8550587  86.6649170  57.0180244  21.7528439
  85.5371933  57.1542282  20.7525101  40.6909332  66.1872864  63.9379349
  40.1241684  66.7073364  63.3682327  41.3219185  66.8166733  64.2871628
  56.1812897  12.0703735  67.0351639  56.5742111  12.7225599  67.6152496
  56.6278343  12.1947050  66.1976852  64.8013763  51.5198059  69.9241867
  65.5289688  51.2017632  70.4586868  64.9900360  52.4487610  69.7912064
  85.4750824  31.7159004  76.4092255  84.9431686  30.9216270  76.4584732
  85.4991455  32.0441551  77.3080597  78.3154144  67.9925232  63.4677086
  78.2861786  67.4061356  62.7117119  77.4881287  67.8371735  63.9234467
  85.2775116   5.4927087  58.3227921  85.1174622   4.6462107  57.9055901
  85.2007980   6.1286211  57.6114807  51.4578781  61.5874901   5.1875911
  51.1580162  60.8113480   4.7143893  52.2287331  61.8811150   4.7019963
  55.8010292  36.7701302  36.1810112  55.4925499  37.6710205  36.0837059
  56.4234657  36.6512871  35.4636002   7.8091507  16.6095390  87.2261047
   6.9857850  16.1857395  87.4683762   8.4425964  16.2860146  87.8666611
  44.8526382  49.3728981  61.1299553  44.1538773  49.0453453  61.6962395
  44.4916534  49.3136787  60.2454147  68.9867935  10.6863670  25.3492527
  69.0331955  11.0632381  26.2279148  69.2834625  11.3892574  24.7711830
  26.9670906  59.7673759   6.1139283  27.1827869  59.9769897   5.2052102
  27.7290554  60.0592155   6.6143999  56.4294472  56.2470322  82.3478012
  56.7076225  56.2694702  81.4321899  56.8130989  57.0343437  82.7340393
  40.0670700  66.2068634  23.5426102  40.1732788  65.2567596  23.5901222
  39.1874733  66.3669357  23.8845348  29.2754974   5.7961659   1.3518230
  28.6905251   5.1098523   1.6727769  29.2418480   6.4743824   2.0264502
  72.6196823  63.5807991  54.1461639  71.7317352  63.3233414  54.3941536
  72.4966736  64.2163925  53.4410934  10.8822527  61.4163094  78.6304932
  10.6326494  62.1246300  78.0370178  10.8834362  60.6325989  78.0809250
  45.7674675  26.1812630  80.7320557  46.3576088  25.8998203  81.4311676
  46.1212349  27.0228558  80.4443054  57.7639999  33.2172356  56.6641312
  57.3174324  33.1088028  55.8244591  58.6875496  33.3168564  56.4331245
  12.2450361   9.5000048   1.6050359  12.5780363   9.2410431   2.4642694
  11.3753529   9.8579922   1.7831582  86.6305008  12.2444811  85.3233185
  86.0204620  12.2048569  86.0598679  86.6419678  11.3535204  84.9736176
  83.6097870  41.5386734  70.2659073  83.9703827  41.8872986  69.4506378
  82.9181519  40.9395409  69.9849930  74.6054611   8.4115000  55.7314529
  74.0934753   9.0837507  55.2818069  73.9696426   7.7281766  55.9436760
  65.0833435  22.2215900  72.9459763  64.4473877  22.8755684  72.6559601
  64.7613068  21.9371891  73.8013382  45.6359253  33.2888374  41.7827263
  45.9001579  33.1693115  40.8705177  46.3763618  32.9588890  42.2917595
   7.3610492  21.5943775  73.9330902   6.7820573  22.2491398  73.5428467
   7.0804186  20.7652397  73.5457764  22.7432404   6.1525569  74.2773285
  21.9635639   6.7078185  74.2729034  22.5192661   5.4205947  73.7026062
  12.4473944  12.3906851   5.2501101  12.6814871  12.5164595   4.3305378
  11.5122547  12.1870432   5.2335138  82.4784470  20.2528877   5.0838771
  82.1238327  19.9329205   5.9133940  83.3116684  19.7920418   4.9859390
  46.8694305  16.5071964  24.0543499  46.6123276  15.9041367  24.7518082
  46.9386482  17.3582268  24.4870033  86.5147629  64.1441345  30.0156212
  86.0569992  64.9057007  30.3715591  87.3028488  64.5061340  29.6105156
  69.1925201  30.4421577  52.5813942  69.2182922  29.6026974  53.0406036
  68.2609329  30.6536770  52.5211029  43.8342171  15.1935787  65.3819199
  43.2444191  15.8024416  65.8265076  43.8194847  15.4715052  64.4660797
  33.2224693  44.9961090  88.7467575  33.1526299  45.8146973  88.2555695
  32.9167557  45.2177467  89.6263351  75.5650787  62.7840538  82.8071899
  75.6042023  61.9785423  83.3227997  74.8331451  62.6480026  82.2055283
  28.4360123  65.7815552  51.1148262  28.5138512  66.6858444  51.4188614
  28.1811409  65.8590851  50.1954422  23.9146767  47.5309982  78.5820694
  23.4092407  46.7186356  78.5532379  23.7653770  47.9364204  77.7279129
  74.1792068  64.7958374  41.0926857  74.3080826  63.9913445  40.5902748
  73.6961899  65.3728714  40.5011139  59.2906914  69.1066437   8.9256077
  59.4688606  69.0498581   7.9868522  58.3675232  69.3537750   8.9796619
  60.7533798  43.6726036  16.8180218  61.3500290  42.9251137  16.7793541
  60.2278938  43.6010895  16.0211639  78.4664764  49.5259018  34.9174919
  78.3658600  48.6550865  34.5330620  77.5705795  49.8456841  35.0239677
  22.0537663  10.6107731  48.5574646  22.2627907   9.7583494  48.9394493
  22.6069508  10.6661978  47.7782669  73.2368622  27.9879932  78.8587112
  73.6416473  28.8452282  78.7263107  73.2796097  27.8464298  79.8044205
  30.6964149   0.7562566  41.5315590  31.5305462   1.1135932  41.2269783
  30.0414238   1.3847035  41.2277946  67.4872055  60.9691811  84.6814423
  67.3367462  60.7710152  85.6057434  67.0070572  60.2888489  84.2093887
   7.1680570  43.4452438  86.9062042   7.6533685  42.6219025  86.8531189
   7.8066149  44.1157379  86.6634827  45.8432617  65.3523483   1.8825377
  45.2091637  65.3970413   1.1668875  45.5202789  64.6484909   2.4451156
  50.9865570  52.9937172  45.4298325  50.1663933  53.0711594  44.9424248
  50.7307510  52.6136017  46.2702522  69.4769211  35.7977524  32.2132339
  68.9288788  35.9263458  32.9874077  69.9278793  36.6340866  32.0974159
  78.0727921  25.2249374  13.0798273  78.0011826  25.6154613  13.9508018
  77.9129868  25.9516182  12.4776411  12.9945345   9.0264187  80.0417862
  12.1416960   9.1696091  79.6314240  13.2898026   8.1852274  79.6932983
  30.6338539  50.6241722  77.6003113  31.0405636  50.3333206  78.4165421
  31.3163166  51.1305847  77.1598358  22.2113838  53.2219543  67.3495255
  23.0883980  53.0072975  67.0317230  22.3342857  53.4165573  68.2786407
  76.0605545  49.0879059  24.8106747  76.2504959  48.7347450  23.9415188
  75.1121216  49.2171211  24.8146782   3.0427828  70.6174927  70.3214264
   2.5912831  69.8369904  70.0001678   2.8094006  70.6646271  71.2485428
  10.6739473  59.7707520  32.8825340  10.4963875  60.3292313  33.6393738
   9.9176340  59.1860924  32.8336067  23.5410004   8.1378307   5.2339573
  23.4996490   8.8051062   5.9189868  23.9782429   7.3946600   5.6495876
  56.5876045  24.4484043  50.3373337  55.8854828  24.8328056  50.8622093
  56.1517220  23.7832432  49.8046036  51.2022018  65.0034332  57.0204277
  50.2989540  64.8962631  56.7222862  51.1241455  65.2086487  57.9521103
  57.3746719  69.2033844  54.8980370  58.0993118  69.6001053  54.4145699
  57.4219971  69.5994415  55.7681694  50.0660286  69.6224060  57.8548546
  49.6789742  69.7340088  56.9865456  50.8462906  70.1767197  57.8423233
  30.0100765  24.3464508  87.1032562  30.3028965  24.2693367  86.1952133
  29.0550327  24.3743286  87.0453949  54.1357994  43.5340729  62.7998657
  54.0270576  42.8749390  63.4853973  53.9624367  43.0628891  61.9849052
  29.6941929  31.7456455  74.0211868  30.2870846  31.5202217  73.3043137
  29.2113895  32.5080261  73.7019501  65.8917313  24.7833347  23.2114048
  66.4917145  25.5260010  23.1428852  66.2657089  24.1190910  22.6324825
  31.0436287  41.3713760  38.8837013  30.7189388  42.2313232  39.1507187
  31.6898651  41.5600548  38.2032547   4.4825606  50.8179817  58.9637451
   4.6958284  50.3480988  58.1575470   4.1694865  51.6725502  58.6672211
   8.3577271  38.4866714  10.6481180   9.1226902  38.9333763  10.2854624
   7.9452119  39.1392555  11.2139788  61.2215042  32.9373398  48.3372612
  60.3380470  33.0045128  47.9750137  61.3942680  31.9965897  48.3743553
   1.3069357  53.0567741  88.8622055   0.8937742  53.8496857  89.2040024
   1.6827768  53.3249207  88.0237122  71.0508575  20.4628010  30.3497658
  70.9023819  19.7972107  31.0214634  71.2330780  21.2632942  30.8419418
  38.1776924  47.2855034  47.1666565  38.8875122  46.7584991  47.5336113
  37.7050171  46.6835861  46.5917625  66.2169800  47.3903503   9.9116001
  66.0434799  47.0338364  10.7828207  67.1713638  47.4423027   9.8597755
  24.8497887  62.0305214  65.9728241  25.1091995  62.2848091  66.8584137
  24.3400993  62.7735939  65.6498795  82.5595932  23.8070831  65.4174423
  82.0022430  23.7454815  64.6416855  81.9620819  23.6721516  66.1529694
  63.4952850  23.2006912  17.1181240  63.8128395  22.2989292  17.0710239
  63.8232346  23.5266399  17.9562397  65.4896240  67.5734177  22.6719608
  65.0046616  68.1970139  22.1314354  65.8095703  66.9176102  22.0524540
  72.4748764  37.4320412  61.3299713  71.7530365  38.0536957  61.4234085
  73.0882187  37.6709785  62.0249214  41.0711937   5.8516855  84.8552780
  40.7106323   5.5686722  84.0149612  41.8018456   5.2544951  85.0157242
  50.6801300  57.7003403  15.6008120  50.2471008  58.3436928  16.1618977
  50.2817116  57.8268166  14.7397079  43.9001923  56.2609634  37.0998955
  43.8643532  56.5734100  38.0039558  44.5272446  56.8426361  36.6701355
  27.0035229  44.7445412  64.5415115  27.2503033  45.0242424  65.4230423
  26.4222412  43.9970207  64.6813431  11.2913036  37.0013237  23.9633446
  11.9668655  37.5258904  24.3930855  11.7773294  36.4047127  23.3940792
  28.2392292   6.9737420  71.7252350  29.0039387   6.5991869  71.2880173
  27.9546928   6.2930374  72.3350830  39.2212639  27.2281036  83.0623474
  38.8384438  28.0602055  83.3403549  39.5117607  27.3863297  82.1641235
  57.6519279  61.9647064  41.9488792  57.3812370  61.9149666  41.0320969
  57.2719727  62.7837639  42.2666969   6.2643738  37.5746498  59.5743027
   6.0976620  36.8667297  60.1966248   5.4813275  37.5994415  59.0243416
  80.7274704  37.5230255  42.9599304  80.0273895  37.0569191  42.5029144
  80.3615799  37.7186546  43.8225365   3.1075358  20.8104477  83.8189468
   2.3200870  21.2159576  83.4560165   2.9468796  20.7771187  84.7619781
   9.6542511  40.8398705  65.8353424  10.5764885  40.5907021  65.8955460
   9.6462107  41.7771301  66.0295410  55.4403267  39.0340385  31.5888882
  55.6332207  39.7919312  31.0369663  56.1877327  38.9746437  32.1839371
   3.4028184   4.1209555  23.9709663   3.2549226   3.5620136  24.7338181
   2.8589849   3.7366121  23.2833920  26.3531456  16.3439426  73.2766800
  26.7636585  15.9489174  74.0458832  25.6120358  16.8376713  73.6277084
  26.1002102  52.9066200  34.7788200  26.0134888  52.6129532  35.6857224
  26.1469574  52.0980453  34.2686691  15.2175732  20.8648300   8.6167860
  15.9404716  20.2635307   8.4376478  15.4067307  21.2140541   9.4877014
  47.9019012   5.4699111  58.2410011  47.1941719   5.8645272  58.7505379
  48.1603355   4.6994090  58.7467384   6.3225904   6.7737441  74.0344925
   6.1504011   6.6050696  73.1081390   6.7387056   7.6356640  74.0476913
  23.8754444  58.8515244  62.0348053  24.3784122  58.0981445  62.3441200
  24.1047325  59.5571899  62.6395302  30.6319084  48.5649757  10.3693256
  31.0880413  48.7845802   9.5569534  31.0524483  49.1094513  11.0348492
  57.2546043  19.4767094  49.7190628  56.6451492  18.7580338  49.8872948
  57.4751625  19.3915501  48.7915230  85.0899582  40.0455017  29.6175003
  85.7296066  40.3175697  30.2755737  85.5918198  39.5106430  29.0024395
  65.3290176   1.8701304  40.9923859  64.4923553   1.5878595  40.6228600
  65.9642258   1.7145927  40.2934189  11.8521214  43.1491165  34.2161674
  11.3875036  42.3193016  34.3246498  11.6094198  43.4466629  33.3393593
  70.3478165  56.7602539  32.0126877  70.1144028  56.3885155  31.1620636
  69.9518585  57.6317177  32.0100098  74.7638168   3.7561691  13.5775957
  74.2905121   3.8271286  14.4065599  74.4331207   4.4831519  13.0499897
  58.8077850  32.1660919  50.8810577  57.8953247  32.3973389  50.7073631
  59.0633430  31.6230030  50.1354179  25.9167309   2.0055087  41.5065918
  25.1496143   2.2470891  42.0256271  25.5580597   1.7303033  40.6628799
  32.6478691  36.0645638  87.0821075  32.3116035  36.8364487  87.5374680
  33.0765495  36.4149399  86.3012772  69.3175049  11.6417770  54.6477051
  69.8137817  11.6855907  55.4650307  68.4091187  11.7894592  54.9108582
   6.7985678  42.3528023  45.6242180   7.3304644  42.7109070  46.3349075
   6.6564379  43.0934830  45.0347900  73.4991150  14.3245535  25.4548473
  74.1583939  14.8053741  25.9552422  72.8837433  14.0048494  26.1146488
  34.7917290   1.8706173  16.3330460  34.9637871   2.8098102  16.4004555
  33.9532089   1.8130044  15.8750114  39.8279991  21.6137638  83.1665268
  39.9027100  20.6614704  83.2280502  39.0346489  21.7589626  82.6510162
  24.8353271  66.9075089  72.0567551  24.5371475  67.8158569  72.1040192
  24.3519764  66.4602966  72.7514496  11.6577682  48.1789627  76.9783478
  11.9295187  47.5017204  76.3588943  11.3279734  48.8889542  76.4275513
  71.0863647  49.9112663  31.1069355  71.1097336  50.6322975  31.7360630
  71.6082306  49.2203407  31.5149975  63.0711212  57.0078163  56.4638748
  62.7789879  57.7575607  55.9454422  63.4104309  57.3929253  57.2718315
  71.7467804   0.1633326  13.6767426  71.7315979   1.0481805  13.3119888
  72.3058548  -0.3326908  13.0787230  31.9680405   7.1968656  52.0211868
  31.7398891   6.4113393  52.5183029  32.8622055   7.4019270  52.2944107
  52.5245934  33.9897232  22.2381744  52.4122658  33.8662910  21.2956352
  52.3877373  34.9271660  22.3749561  16.8877563  43.9404068  76.6840591
  16.4100304  43.5110626  77.3937607  16.8006878  43.3431778  75.9411163
  34.1793098   1.3217690  48.8623276  34.1855240   0.4403128  49.2354622
  33.4776688   1.7748561  49.3299217  54.8622971   8.8857203   7.4053187
  54.7179947   7.9795322   7.1328659  54.3936272   9.4088669   6.7550130
  10.4139862  58.7412529  85.6095963  10.0777912  59.0648994  84.7738571
  10.6557894  59.5314560  86.0926514  62.5250664   2.0516393  40.0141602
  62.5699997   1.7063500  39.1225395  61.7000389   2.5361834  40.0420647
  26.6100311   2.7908080  76.2587738  26.0566864   3.5175767  75.9726868
  26.5191364   2.1342905  75.5681610  68.0473251  57.1839142  10.5913982
  68.0598450  57.8372536  11.2908421  67.2905273  56.6331139  10.7916603
  13.3568840  56.9583054  31.9072781  13.0508595  57.6943092  31.3772945
  12.6273394  56.7681656  32.4970589  15.8390226  39.9472084  40.1892433
  16.0047703  40.0720253  41.1236839  15.1647863  39.2686806  40.1541252
  12.4645662  44.6904106  72.9855270  12.3758240  45.5193825  73.4558029
  11.6440058  44.2284966  73.1574173  44.4144211  15.8032560  13.8770256
  44.3689308  15.5124674  12.9661989  45.3424835  15.9857206  14.0241241
  17.6035023   6.7417822  76.2320099  17.6819248   6.0554867  76.8946381
  17.8561020   6.3144836  75.4135666  83.8345795   4.4077597  45.9934616
  84.6429291   4.5157976  46.4945908  83.1434097   4.6994085  46.5879822
  84.1691360   7.1377611  36.1350288  83.3343048   7.4107499  35.7545357
  83.9352722   6.4471607  36.7551994  50.0803261  43.8491707  33.4638672
  50.6422958  44.1507149  32.7500801  49.2404861  43.6616859  33.0446396
  83.3421936  15.1979885  73.2185135  83.1281967  15.5317020  74.0897598
  84.2990112  15.1825867  73.1962891  76.2347641  60.5436554  50.1357307
  76.0290070  59.6088409  50.1402702  75.4629211  60.9606476  50.5186272
  79.6463089   1.9472439  30.3794346  79.5586777   1.2782713  31.0584259
  78.8168716   2.4243443  30.4048004  11.4969091  61.4275627  65.2198105
  10.9711342  61.4277153  64.4199448  11.1161804  60.7324524  65.7565689
  82.3931046  60.1858978  77.9288025  82.7487717  59.6554909  78.6418304
  83.0553284  60.1355438  77.2394867  13.2935505   4.9693360   8.7216749
  12.8896074   5.4690447   9.4311485  14.0805387   4.5905867   9.1133766
  64.8349838  17.1214409  13.0465336  63.9997406  17.2548962  13.4946356
  64.6562805  16.4318333  12.4072046  59.5597420   4.3797674   1.6853491
  60.4989662   4.1976719   1.7158617  59.3936424   4.6297522   0.7764211
  13.5734110   8.6302795  71.5847855  13.0483522   8.5978441  70.7851028
  13.2178612   7.9310188  72.1332855  37.4568901  69.4053802  40.7506065
  37.5893822  69.3146820  41.6942444  36.5781746  69.7755661  40.6666145
   4.4594040  68.4274521  55.0540123   4.4012842  67.4761658  54.9651031
   3.5506496  68.7161179  55.1381035  77.6541290  26.3287525  34.4626312
  77.3505173  25.9942303  35.3065186  76.9781189  26.9511051  34.1944504
  36.5365982  20.3301430  62.0600128  35.6438599  20.5781651  61.8197327
  36.6867523  20.7613049  62.9013138  62.8083076  67.4912872   7.3654413
  63.5957375  67.0029297   7.1252413  63.1036530  68.1070862   8.0361099
  40.6661072  45.7499924  47.2210007  41.3082657  45.2729645  47.7466545
  40.7902679  46.6670876  47.4654388  22.1087589  61.2153015  48.2706718
  21.1977863  60.9900856  48.4594536  22.2235470  62.0867119  48.6497536
  57.3039513  37.7447510  57.8335686  57.4055443  36.8759766  58.2223320
  56.6453018  37.6254387  57.1493340  51.7972832   1.6838682   6.8280053
  50.9041443   1.9016314   7.0946803  51.8845825   2.0611250   5.9526267
  58.3277206  67.5893097  61.3449440  58.9551926  67.1988983  60.7365990
  57.6292419  66.9389877  61.4187164  26.8966942  46.2629623  12.0506811
  27.0084610  47.2125702  12.0061064  27.6194935  45.9120445  11.5304422
  58.0110474  18.5688076  78.3934555  57.4721222  18.2534962  79.1189728
  57.7669029  18.0120239  77.6541214  53.0083885  58.2469864  38.8476715
  52.6729050  59.0895653  38.5414925  53.2732048  57.7902069  38.0492592
  11.9896278  23.4311237  21.0050507  11.5229578  24.2538414  21.1519718
  12.4978113  23.2978306  21.8051853  18.3351879  46.2033157  59.9501762
  18.6797428  46.5421333  60.7764435  17.4112091  46.0290833  60.1294556
   4.3460994  32.9834938   0.5389138   4.9613738  33.5346069   1.0225909
   4.3252273  33.3621368  -0.3399642  69.9161987  11.3789635  51.9020081
  69.5810623  11.3383102  52.7976990  69.7808151  10.4970655  51.5553665
  65.2139053  50.5558510  11.3534565  65.3694839  50.5159988  10.4098253
  65.1141129  51.4892693  11.5405388  39.1837349  52.7131882  29.4328327
  39.5963478  51.9646912  29.0018673  39.8102493  53.4284019  29.3224564
  77.2524490  31.3194332  66.4937057  76.3677292  31.0067253  66.3047409
  77.8165283  30.8062668  65.9151688  50.8447838  59.2221489  43.2801895
  51.4196205  58.5862312  42.8542747  50.3799667  58.7161407  43.9466248
  17.9550629  37.5831604  51.1681862  17.2700977  37.7406693  51.8179893
  18.7517433  37.9277878  51.5716248  23.8568325  35.5003128  15.8437996
  23.6414528  34.5942841  15.6225424  23.9978905  35.9262962  14.9982977
  28.2194099  40.9123077  28.5628586  28.0530548  40.7152557  27.6410522
  28.8731937  41.6112022  28.5441780  10.4758282  59.8400002  54.9931107
  10.1344633  60.7192154  54.8297653  11.0039597  59.9316330  55.7861519
  80.2305908  66.6196442  29.3203392  79.8771057  67.0620575  30.0920563
  81.0842133  67.0291824  29.1794796  69.9084320   7.6714854  43.3657417
  69.1762009   8.2099257  43.6659813  69.8111420   7.6441512  42.4138908
  46.5478020   6.5295773  55.7104912  46.9024162   7.3575902  56.0343323
  46.1587029   6.1176200  56.4819336  21.6134033  33.0625191  85.0425110
  21.3078499  33.9534225  84.8717346  22.3935909  32.9680176  84.4960556
  53.2777939  69.2729797  80.4448624  52.6802826  69.8011627  79.9154968
  53.2440796  69.6721039  81.3142319  81.4567184  41.0024643   7.5124798
  82.2854691  41.3787079   7.2160902  81.7077866  40.3715591   8.1871319
  65.7616425  36.4963875  41.9154167  66.1753082  36.7882156  42.7277908
  66.4577103  36.0400200  41.4427071  29.9702663  57.4324760  21.7209492
  29.0553303  57.1867332  21.5840683  30.1429310  57.2126236  22.6364193
  35.2416534  39.3903313  34.2929878  35.2684326  38.8288193  33.5182495
  34.5647850  39.0017548  34.8471451  46.6923370   1.1996703  59.6905022
  46.6991234   2.1561468  59.7270851  45.8129272   0.9779261  59.3843956
  51.3169022  13.6597967  48.3508797  51.5267639  13.3237543  49.2222366
  52.0895500  13.4570398  47.8234901  63.7307358  43.3975029  43.5623970
  63.7718239  42.9870415  42.6986465  63.4222488  44.2871513  43.3903770
  13.7769327  39.3620033  67.9394302  13.3650846  38.9269676  67.1928635
  14.2752638  38.6702995  68.3746796  71.4649887   3.0569100  25.0725632
  72.2192612   3.1568689  24.4917736  70.8710785   2.4768057  24.5961456
  55.1386719  53.1138954  31.7160587  55.6694565  53.8604469  31.9938316
  54.4636345  53.0359077  32.3902054  78.2011490  14.7601185  88.1819153
  78.8408508  14.1368980  88.5263062  77.6761017  14.2488041  87.5661926
  18.6130695   0.1204670  21.5030117  18.9871750   0.6042478  20.7666473
  18.0126247  -0.5054260  21.0980968  54.2836151   0.4302189   3.7764699
  54.3913574  -0.4813775   4.0477924  55.0692291   0.6221572   3.2644129
  26.2825661  67.2801514  25.3304424  26.2836456  67.4945374  26.2633266
  27.1664543  66.9556274  25.1582432  64.0564041  66.4153442  56.1012077
  64.7784653  67.0245056  55.9470100  63.8966103  66.0123672  55.2477989
  10.1955700   3.7365012  17.2639694  11.1085453   3.9723141  17.0993500
  10.2096071   3.3070545  18.1193123  39.5918427  20.9163857  11.1762333
  38.9565430  21.5628433  10.8684711  39.8197021  21.2062111  12.0595865
  59.8277817  27.9817085  20.7271957  60.3946533  28.0723820  21.4931393
  59.3793869  28.8247089  20.6599350  13.4097929  66.5651169   9.8158808
  13.9060411  66.2219238  10.5589752  13.5577040  67.5103683   9.8451366
  51.2311134   0.3473354  48.4559059  51.2159996   0.7945892  49.3020554
  51.6489410  -0.4945154  48.6374054   1.1025797  35.7007484  30.2746658
   1.0665175  35.6138458  31.2272301   1.4691261  36.5726357  30.1274033
   4.4842687  13.1471739  10.5161304   4.7255187  12.2279749  10.6306038
   3.7205575  13.2664566  11.0807085  19.6531734  42.4936562  56.8041306
  19.1042881  42.6850166  57.5646172  20.5356655  42.7454300  57.0762558
  52.5345535  37.4296494  29.2772579  52.7669792  36.5357971  29.0257835
  52.8707504  37.5227814  30.1686230  65.4246902  30.0380611  46.4540520
  65.4272079  30.6128006  47.2194939  66.3418427  29.9956589  46.1833649
  73.0010529  58.3161087  67.0370407  72.5331955  57.5296593  67.3178253
  72.4226456  58.7209549  66.3906937  38.9570732  61.9992599  67.8386993
  39.4555931  62.8143883  67.7814560  38.0510406  62.2605705  67.6742172
  79.2376862  60.4885941  54.4097900  79.1630936  60.4041367  53.4592438
  78.8197250  61.3262787  54.6093445  77.9771194  37.7007027  60.2979507
  77.3797073  36.9922333  60.0583534  77.9128342  37.7560616  61.2513847
  49.1368561  49.4523087  25.0110092  48.5933800  49.3741570  25.7950745
  48.6284065  50.0094795  24.4217129  61.2327843  23.5909405  63.8806992
  61.3928452  23.7214870  64.8153458  60.3867378  23.1448650  63.8426018
  42.8135490  25.1274242  19.0225067  43.0748901  24.4899998  19.6870537
  43.6315613  25.3703346  18.5888214  10.8109970  13.1210375  14.2023888
  11.6955299  12.8372440  13.9715309  10.7941523  13.0980701  15.1591644
   6.5309429  54.6222763  29.0983334   5.9950466  54.8655663  28.3434448
   6.7097244  53.6900864  28.9746876  10.8251457  31.2538643  69.8912811
  10.6295662  30.9269485  69.0131531  11.7240639  31.5773335  69.8317261
  61.7135048  50.3703690  11.3440351  62.4214325  51.0066452  11.2429113
  62.1445198  49.5835342  11.6777220  47.9034729  49.7428474  51.9955482
  47.9018173  50.6178207  51.6074066  46.9926682  49.5909729  52.2477341
   7.7431836  43.9575462   0.6997143   7.7953053  43.6962814  -0.2196634
   7.4934225  44.8811836   0.6724432  72.5844955  71.0324020  52.7360039
  72.5713730  70.3099136  53.3637505  72.7713318  70.6154938  51.8948669
  46.8701057  33.6555061   9.8665867  46.6671638  33.3527679   8.9814892
  46.0881615  33.4449234  10.3769274  74.1960220  51.1859589  43.7278023
  74.1332626  51.7966423  44.4622116  73.2883759  51.0335922  43.4647560
  32.7197380  46.9278641  38.4993820  32.4014206  46.6935120  37.6276131
  33.3585205  47.6231918  38.3422012  53.2208710   4.2343154  55.8679962
  53.4255791   3.3749261  55.4995193  53.1969147   4.8198795  55.1111794
  15.7350597  20.9831905  12.9618988  15.7377224  21.8263531  13.4150028
  16.1866245  21.1540203  12.1353769  71.4322739  24.8371677  39.3027115
  71.6744537  24.6798477  38.3901176  72.2640610  25.0045891  39.7458076
  81.1240540  12.4909000  38.6320572  81.2569885  11.8495493  37.9340401
  82.0080566  12.7157259  38.9222755  44.5462952  59.7646294   7.0280519
  44.1329117  60.3760910   7.6375270  44.1287422  58.9233322   7.2127137
  32.0253181  53.2288208  80.1977844  31.5903149  54.0738449  80.3115540
  32.8212318  53.4333267  79.7069321  55.8086510  16.0520897  47.7812576
  56.3140373  16.2399254  48.5721664  55.2486153  15.3148594  48.0243378
  63.1227455  32.3164635  74.0522308  62.3764687  32.7992363  73.6969376
  63.8672638  32.6032753  73.5233994  25.6876163  37.6014442  25.2290745
  25.1953449  37.2572708  25.9743576  25.7850742  38.5349541  25.4169273
  85.1941376  16.3173962  82.9058838  84.2540512  16.4909973  82.9542694
  85.2577591  15.3666496  82.8149719  56.7443810   1.3883455  46.9044266
  57.4257889   2.0043130  47.1736870  55.9232559   1.8284361  47.1242104
  11.0333643  25.9894295  21.5783539  11.7094431  26.0300484  22.2547417
  10.5111895  26.7801285  21.7138577  70.7986069  13.5282993   3.3819523
  70.9773560  12.7545137   3.9163089  71.6455383  13.9678316   3.3060813
  37.4384155  41.4781685  54.4741096  37.3573189  40.5272827  54.4001312
  37.5458298  41.7802734  53.5722084  29.5393810   6.9697719  31.8047314
  29.6210651   6.2547431  32.4358368  30.4009533   7.0238380  31.3912067
  64.2805405  24.7620697  37.9684372  63.3992882  24.5226936  38.2553520
  64.4371796  24.2180405  37.1966019  80.5173035  14.5211954  23.0097103
  80.5842438  15.4709826  23.1079750  81.3704300  14.1905870  23.2909641
  20.5052948  13.7856226   9.3277788  20.5020237  14.6570311   9.7238455
  19.6567917  13.7183762   8.8898821   2.2792311  66.7970352  10.1236839
   3.0444517  67.3159332  10.3714933   1.9393872  67.2302933   9.3407259
  35.8782043  27.7698174   9.0855026  36.5800629  27.7817669   8.4347486
  35.1805954  28.2962646   8.6950769  74.2633362  64.1660385  29.7699795
  75.0278015  63.9478302  29.2368679  73.9668579  65.0100479  29.4294205
  78.9442825  45.6617699  25.9502983  79.7358322  45.2827187  26.3323917
  79.2670898  46.2771721  25.2920418   7.6536245  55.9491577  52.4718819
   6.8701596  56.2385063  52.9395294   7.5072498  55.0165825  52.3134232
  45.6291046  12.0075655  13.0250874  46.5296440  12.3202677  13.1115656
  45.7165527  11.0697851  12.8543463  83.4889221  67.9857635  27.6396694
  84.4321060  67.9155960  27.7869987  83.1166992  68.0887070  28.5155029
  84.2462463  26.9484081  28.9981155  84.7318115  27.0434666  28.1787090
  83.7198792  26.1585636  28.8743610  69.4626617   2.7766383  31.2810764
  69.9744949   2.9887412  30.5005188  68.8126373   2.1434522  30.9764919
  38.6529961  40.7807159  47.1812592  38.4581757  41.7153168  47.2505379
  38.0654488  40.4637871  46.4952698  82.3803406  54.1357689  21.3806934
  81.5970840  54.3995171  20.8977985  83.1075211  54.3707657  20.8043156
  67.0955429  40.4974251   6.3701444  66.4607544  40.8960304   6.9654503
  66.5610428  40.0332336   5.7258892   8.4131126  23.5014305  15.9659796
   8.5361948  23.3436775  15.0299253   7.4700937  23.6324959  16.0648155
  25.4227295  29.1408730  73.3595505  24.6252270  29.5705242  73.0503159
  25.1514816  28.2437382  73.5539856  22.6321812  11.7498016  78.2607574
  23.4711895  12.0868263  77.9465714  22.1163769  12.5328760  78.4530334
  27.6521816  57.3186150  53.8747444  27.3906040  57.2174644  54.7899361
  28.2690601  58.0504951  53.8814430   5.0985360  65.7162781  20.1864414
   6.0162978  65.7418289  19.9157162   4.6576986  65.2259521  19.4925594
  71.5530930  25.9285126  42.4985313  71.6956482  26.8091164  42.1514816
  72.4283524  25.5434093  42.5415039  14.3072453  48.5781136  43.8190193
  14.9448872  49.1278915  43.3636169  13.4621086  48.9872284  43.6330032
  63.1579056  70.1568832   3.2696018  62.4330635  70.7621841   3.1132619
  62.8118095  69.2996140   3.0215433  29.4208965  56.5292206  25.6160507
  30.1516266  57.0944824  25.8665390  29.3084965  55.9388084  26.3610420
  10.5680103  20.5954151   1.1150961  10.8894491  19.7816639   1.5033195
  11.0972500  21.2808018   1.5229951  46.5027580  63.9379578  21.5647316
  46.0890388  64.4654617  20.8815002  46.5424919  63.0558662  21.1951828
   5.3693814  21.8340321   8.8457718   5.9821658  22.4799328   8.4942923
   4.9860601  21.4215393   8.0717249   3.2829778  50.4207077  36.0007973
   2.7477572  49.7611237  35.5595207   3.0719731  50.3186226  36.9288521
  14.3220587  13.6192131  87.9727707  13.9806442  14.0056181  88.7792130
  15.1566868  14.0650120  87.8282242  40.5298691   1.1601950  44.8690605
  40.3001099   1.9690565  45.3264275  40.4957123   0.4842937  45.5459824
  42.0215721  33.4459534  26.1754436  41.4994507  32.7229958  25.8276558
  42.2194176  33.1871910  27.0755177  30.3339119  27.4468803  78.4161835
  29.6974564  27.4308548  77.7014160  31.1797600  27.3194218  77.9866180
  14.0379076   1.8999550  69.9823227  13.8678207   1.3300768  70.7323532
  14.3995380   2.6989727  70.3657608  55.9345016  63.8806343  42.7258415
  55.5644379  64.7083435  43.0327263  55.6406631  63.8089943  41.8176804
  42.3016129  45.1845703  82.7177505  42.2161942  44.4823608  83.3626099
  42.9457092  44.8564758  82.0902710  46.8504639  22.5811386  24.7501240
  47.0871201  23.4862080  24.9527950  46.8866348  22.1295567  25.5933304
  72.3201675  58.7432251   9.7317963  71.5540543  58.7063713   9.1591330
  72.1735458  58.0478554  10.3730402  22.1356106  43.4374390  86.3902664
  22.3248482  42.6369820  86.8798447  21.1946907  43.5711823  86.5043488
  33.4514275  68.0548630   4.9564557  32.9528351  67.3743439   4.5041990
  34.1638069  68.2699356   4.3543859  49.9744186  71.1689377  15.0745287
  49.5287323  71.1417084  14.2278557  50.9043159  71.1008530  14.8580017
  40.0431252  25.3955727  14.8685122  39.4623070  25.0818558  14.1753588
  39.6588478  26.2276134  15.1446867  61.6952896  62.7036934  65.6376343
  62.4475517  62.1649513  65.8827820  61.3243713  62.9909706  66.4719772
  80.9222565  18.8229752  46.3516312  80.8786621  17.8894253  46.1447067
  80.0100708  19.0823917  46.4814072  19.9631653  54.4793816  79.9543610
  19.9503670  54.8537903  80.8352051  20.6889801  53.8555298  79.9698105
  51.3842163  10.3086109  46.2093773  50.7434807   9.5981493  46.1787834
  52.0892220   9.9716787  46.7622566  73.3369293  35.1043739  84.2279129
  74.0874710  35.6625404  84.0245056  72.7877197  35.1468658  83.4450912
  75.7624207  58.8320160  66.9329834  76.2429581  58.8389511  67.7607880
  74.8777008  58.5555878  67.1719284   3.3441384  57.0647812  36.3997307
   2.4936442  56.6686363  36.2100945   3.5807576  57.5218430  35.5926781
  18.2374802  56.8056335   1.9206882  18.5036983  56.5491066   2.8036108
  17.7523594  56.0505524   1.5879147  41.1946220  67.0704041  13.5493622
  41.5822258  66.6137390  14.2959890  41.2500648  66.4421997  12.8292837
  64.6134796   6.5428820  42.6359406  64.3523483   6.0391197  41.8650513
  63.8869324   6.4352765  43.2497673  25.9850292  48.5535812  69.8417587
  26.5347290  49.2136269  70.2641373  25.6240826  48.9978065  69.0745468
  57.5958977  46.9197731   4.4495997  58.1754189  46.4115562   5.0171452
  58.0453911  46.9399529   3.6047442  63.8687477  17.8793106  66.6249161
  63.7648964  18.7290096  66.1966019  64.6876755  17.9563599  67.1144714
  83.2247162  56.4631805  83.2765808  84.0215759  56.6888161  82.7966461
  83.4397964  56.6367645  84.1930084   9.7354670  50.4655342  63.1607246
  10.5913639  50.7345848  63.4943199   9.1653767  51.2152443  63.3314934
   6.6785479  17.8161049  84.7585831   7.0535116  18.6927299  84.6739502
   6.5428371  17.5255566  83.8566971  53.1513748  63.4112854  88.4552231
  52.3237267  63.8358421  88.2294312  53.8052330  64.1063919  88.3808365
  36.6434021  32.6520119  65.8188858  36.2180405  33.1790390  66.4953079
  37.1031456  33.2894020  65.2724457  65.2259140   7.0968885  67.2988358
  65.1282883   7.8513541  66.7179031  66.1238098   6.7981787  67.1546402
  48.5510139  13.0687084  74.5412598  47.6407738  12.8290110  74.7151566
  48.5909882  13.1846619  73.5919495  44.9206276  18.3403130   6.2236605
  44.9018059  19.0123978   5.5423527  44.5096550  17.5767612   5.8182983
  48.2232323   9.2654648  63.3295670  48.3867188  10.2083340  63.3519669
  49.0933113   8.8701611  63.3837051  81.5342102  48.3388901  17.9392929
  81.8493881  49.0242691  18.5284843  81.1329498  48.8142891  17.2118187
  82.7632751   1.4799364  47.6831207  82.2882004   0.7500145  48.0802994
  83.6361313   1.4385209  48.0738182  50.7195511  34.4558525   5.4909706
  50.3826561  34.5872002   6.3772449  50.0636940  34.8602676   4.9230509
  62.4529190  69.1563492  31.2111855  61.9026222  69.5304108  30.5230789
  62.6112976  69.8836136  31.8130436  80.0335999  50.8448448  29.4010506
  79.2743225  51.4059181  29.5589466  80.4640732  50.7789001  30.2534447
  17.0154991   1.2954174   6.9217124  17.4596310   1.0754311   6.1028194
  16.0845356   1.2857840   6.6993513  55.3786430  55.2471237  14.0440207
  55.5032730  55.0605354  13.1134920  54.5051270  54.9090118  14.2412004
  46.5883827   2.7824814  51.2710609  45.9893112   3.4858212  51.5213852
  46.0170250   2.0815804  50.9571800  80.8438187   0.3428706  45.0838165
  81.1186829   1.1336372  45.5478935  80.0672607   0.6111233  44.5926514
  45.6864281  32.6668434  23.4407158  44.8457298  33.0781136  23.6415100
  46.1111107  33.2735863  22.8342991  31.3897648  42.8729401   0.4980413
  31.4543667  41.9784241   0.1635374  31.9299603  43.3912888  -0.0983972
   1.6741698  69.6184006  57.7311096   1.7816803  69.0273209  58.4762917
   2.5676675  69.8545532  57.4818649  15.4007854  50.6277542  46.2589226
  16.3115578  50.3358879  46.2981339  15.1134567  50.3979301  45.3752632
  48.5751381  64.3773193  78.6167145  48.6487427  64.7580795  79.4918365
  49.3479691  63.8188248  78.5327377  56.2151794  37.1673088   7.3743520
  55.7115211  36.3821754   7.5891218  56.3428116  37.1182823   6.4269676
  72.9760361   5.0004301  19.6413822  72.7705002   5.6992359  20.2623959
  72.1413498   4.8054633  19.2153435  66.4737320   7.2951994  54.2606201
  66.3863449   7.8816872  55.0120354  67.2022934   7.6581664  53.7569466
  57.6715355  22.1190853  31.6152363  57.4769363  22.9056263  32.1248589
  57.1078339  21.4437008  31.9925003  33.4791985  71.0957870  18.1795845
  34.1383972  70.4256973  17.9988422  32.8184547  70.6458969  18.7061253
  28.9735222  37.8737602  81.6174469  29.1676331  38.1802444  82.5032349
  29.4577618  37.0520248  81.5368347  77.3627701  27.2110481   9.3777485
  78.2862091  27.0049553   9.2327871  76.9517670  26.3632050   9.5464668
  58.0403366  60.8459244  14.2433443  58.8510590  60.7413406  13.7453213
  58.1562538  61.6680183  14.7197466  83.7947617  44.5738297  62.1807976
  84.3459625  45.2934151  62.4883804  84.0878143  44.4142342  61.2836456
  84.0583572  60.7304115  75.8702164  84.0575027  60.4913177  74.9433594
  84.0248032  61.6870232  75.8708344   6.3862333  44.2738152  52.4098358
   6.8966155  43.5145493  52.6913643   5.8415136  43.9445229  51.6949387
  84.6930771  42.3656807  47.0896492  84.4324493  42.0416260  46.2275047
  83.8993835  42.2990875  47.6205368  63.2918434  46.0548744  59.6754303
  63.7745476  46.2976608  58.8853111  63.4363174  45.1128311  59.7643814
  79.8461838  54.4912033  49.6468849  79.7750168  54.1569672  48.7527657
  80.2385864  53.7714806  50.1411057   7.4957867  67.6263123  16.6534176
   7.2596579  68.4905930  16.9903126   6.8431602  67.0359650  17.0299797
  59.2851219  60.9626427  11.2701740  59.4070549  60.4750214  12.0847855
  58.3999405  61.3209534  11.3357143   8.3946428  63.1906738   5.9487448
   7.7945933  63.7314072   5.4351516   9.2660961  63.4473419   5.6472135
   9.1192465  13.3995867   9.8995237   9.2453804  14.2256565   9.4326916
   9.2011709  13.6322174  10.8244038  74.7213593  50.2870407  71.8273773
  75.4930801  50.6389656  71.3837280  74.2505188  51.0602074  72.1384354
  65.9310226  46.0337715  61.8000870  65.7079239  45.3921928  61.1256752
  66.8773041  45.9436913  61.9126892  59.5179634  65.8823471  32.8366165
  58.8998337  66.5667419  33.0930405  59.8678970  65.5532150  33.6645355
   9.0177670  31.1050262  72.0578079   9.2030716  30.6655235  72.8877029
   9.8216019  31.0032578  71.5481720  55.2506218  34.5723495   8.7503204
  54.3229179  34.4771767   8.9660511  55.6294022  35.0131073   9.5109072
  64.2947311  46.2601128   6.0059724  64.0214310  47.1360283   6.2785754
  63.5027618  45.8645897   5.6418619  20.5117493  60.5436592  84.8291550
  19.9211483  61.0947685  85.3426666  20.1185207  60.5190926  83.9568024
  74.0835953  69.3574219   8.3030624  74.9407120  69.0317154   8.5778399
  73.4751358  69.0105209   8.9554892  61.9245872   8.8102589  74.1401520
  61.0300407   8.5654373  74.3769760  62.4500275   8.0415983  74.3622055
  79.6809540  39.4820900  18.4180603  79.4403000  40.3796577  18.6475925
  78.9071960  38.9630852  18.6375141  20.7368584  66.4955597  10.7435589
  20.3288536  67.3426056  10.9232073  20.5936794  66.3544159   9.8077116
  83.9993820  30.3753395  45.8559570  84.1754684  29.4676037  46.1034317
  84.6690063  30.5798512  45.2032585  55.9126129   8.9397535  20.2892704
  56.8350906   8.7033215  20.1924877  55.9188461   9.6908646  20.8825874
  78.0261154  63.0364037  77.6826935  78.9243469  62.7130852  77.6128311
  78.1051712  63.9856071  77.5878754  29.8257866  11.2960987  88.9370117
  30.0704632  11.9130592  88.2472839  28.9135780  11.0756283  88.7485886
  40.7312965  18.1663799  69.3828812  40.8082809  18.7193623  70.1603851
  40.2635078  18.7092094  68.7482605  16.8217258  32.0568733  59.8814354
  16.6742268  32.9336395  59.5268097  16.0032310  31.5898209  59.7136269
  28.6739655   0.3735121  11.0337143  27.8494434   0.0047011  10.7168970
  28.6398678   0.2558653  11.9830446  46.8657684  54.7908478   3.1880710
  47.4195099  54.3213081   3.8118763  45.9713058  54.5924492   3.4652150
  23.1150188  61.4182053  21.9072819  23.8607483  61.3721313  22.5056095
  22.4576321  60.8433228  22.2991829  25.6355171   5.0957870  70.4461060
  26.5364895   5.1728582  70.1321945  25.3164673   4.2798967  70.0604095
  41.6395416  37.9448662  35.6289978  40.7996178  38.4013481  35.5801468
  41.6682892  37.4105873  34.8353043   9.6581450  66.9742966  15.1422691
   8.9478521  67.1257095  15.7657986   9.8973160  66.0562897  15.2699614
  62.6544456  38.9964066  69.4504013  62.5901108  38.1014977  69.7839127
  62.8205452  38.8915100  68.5135727  11.0498590  60.1841087  29.9389915
  11.9820261  59.9701843  29.8998260  10.8730993  60.3150139  30.8705769
  54.4431496  65.6633224  34.1115646  53.7781563  65.9659042  33.4931297
  54.1313667  65.9646072  34.9649429  77.8267975  64.1706848  29.2785816
  78.2604828  64.8279648  29.8227577  78.0014801  63.3401489  29.7212219
  31.5695744  21.7762794  19.4599400  31.7175827  20.8306065  19.4543629
  32.4475708  22.1559200  19.4949970  70.2118225   7.9235325  58.2250137
  69.3413620   8.1805344  57.9208870  70.2328110   8.1901674  59.1440887
  24.7444248  45.0969582  13.0909662  24.1899471  45.7231483  12.6254845
  25.6355305  45.4190979  12.9553719   5.2126808  14.1427460  20.7011280
   4.3691001  14.5950489  20.6960526   5.8169341  14.7673550  21.1023426
  36.8396988  36.2332306  62.2667732  36.2651215  35.7918854  61.6412277
  37.6028404  36.4916496  61.7499886  26.6207809  45.1573296  45.9604034
  25.6640091  45.1654778  45.9878273  26.8601894  46.0436935  45.6897049
  30.7422237  53.1377831  24.9422436  29.9765797  53.0278397  25.5060978
  30.4849453  52.7426262  24.1092434  71.2738113  50.1069832  43.2762871
  70.9690781  50.2154121  42.3753929  71.7375946  49.2696457  43.2731094
   6.5336800  54.2852020  81.0536728   6.3250446  55.2031250  80.8801193
   7.1974635  54.0628777  80.4008408  51.1722260  56.2012596  21.7600517
  50.8295860  56.0324326  22.6377335  51.7843819  55.4830818  21.5996761
   4.1601200   9.1236639   7.9784827   4.1735344   9.8213205   7.3232527
   5.0772581   8.8666315   8.0734768  63.7132835  15.5326147   8.0384121
  64.1787872  16.3627605   7.9364405  64.3372650  14.8701162   7.7418075
  39.9132118  46.5526695  37.3541489  39.9511566  46.4708862  38.3070946
  40.0131111  45.6566124  37.0326920  15.4439182  34.2526093  10.3956099
  15.8973970  34.2969055  11.2374086  14.8687620  33.4914169  10.4731541
  82.8946533  27.2176800  39.8043976  82.6890717  27.0054359  38.8939476
  83.7669907  26.8495998  39.9450378  64.7006378  39.2969742  20.7179546
  63.8830948  39.5234489  20.2745914  64.8958511  40.0584793  21.2640591
  21.3157997  66.4887772  70.3262787  21.2039032  66.8843460  69.4618454
  20.5090408  65.9939346  70.4694824  44.0415154  62.0864105  75.7535095
  43.8043251  61.4400330  75.0885544  43.2553139  62.6223717  75.8577347
  28.9058952  46.1771317  33.2304993  29.2260609  46.1870270  34.1325111
  27.9872208  46.4369392  33.2995605   5.4061108  45.4934692  18.3199577
   5.7234821  45.7606087  17.4573212   6.1253767  45.7037964  18.9154835
  19.9215984  19.0548306  68.4640732  20.1705151  19.8184834  67.9433975
  20.6204090  18.4198055  68.3071060  29.6308346   8.1945105   4.8546796
  30.5738316   8.0373707   4.8067803  29.5168819   8.7303839   5.6395912
  70.0470810  62.3083458  51.9606552  70.3939285  62.7939491  51.2122459
  70.5415802  61.4887848  51.9643898   3.4984155  69.0236359  11.4687805
   4.2892761  68.9286880  10.9379730   3.8225906  69.1757736  12.3564711
  48.1315422  54.8746796  76.1197586  47.5607033  54.6904907  75.3738022
  47.9778290  54.1484299  76.7240524   8.7634258  48.3033752  85.7661057
   9.2655163  48.9446487  85.2632141   8.2300253  47.8510056  85.1126022
  60.0666618  28.9162979  59.2254410  60.2717514  28.5102367  60.0676308
  60.0636406  29.8561020  59.4070816  17.5953846  69.0578232  69.8688049
  16.8463459  69.3322830  69.3397980  18.3469715  69.4882965  69.4613266
   6.6074739  10.6915255  16.8808994   6.3999667   9.7595205  16.9482651
   6.6106596  11.0022430  17.7862587  86.6702576  36.7681923  48.7025871
  87.0771255  35.9109650  48.5766792  85.7420197  36.6218224  48.5204239
   3.7851295   0.0194995  88.3973999   2.9353023  -0.0063481  87.9576797
   4.3302155   0.5678296  87.8330917  60.2163734  37.5190887  86.5798798
  59.7491531  37.6836243  87.3989487  60.3432732  38.3875504  86.1979065
  86.0826645  45.1166496  44.4077110  86.9308319  45.2341270  43.9798737
  85.7519073  46.0062332  44.5321312  21.9336967  19.3957405  82.1348572
  21.0021210  19.1989365  82.2331848  22.0769882  19.4095726  81.1885452
  58.3708076  38.5012436  44.0387764  58.6111755  38.3287392  44.9491043
  58.4355049  37.6487541  43.6083031  75.6150284  52.9084702  37.6317825
  74.9557877  53.4857101  38.0170517  75.2146988  52.0392876  37.6539803
  48.5325165   5.5405679  63.5266037  48.3139763   6.1278987  64.2501450
  48.3536835   4.6640778  63.8672142  78.7754288   1.7204307  17.7110596
  79.5532303   1.6307368  18.2617092  78.9653015   2.4715016  17.1488552
  63.8917198  17.7599602  76.7814713  63.6706505  17.3870430  77.6348724
  64.1022949  17.0019875  76.2361603  72.2478790  65.7220230   1.6242727
  72.6241608  65.2357864   2.3579042  72.8767014  66.4233398   1.4540663
  72.8246155  62.0071106   8.2053442  72.0992661  62.5988426   8.0054703
  72.4922791  61.1373215   7.9834142  63.8656578  18.4332752  61.0110970
  64.3342056  17.9579678  60.3249664  64.3597641  19.2458553  61.1197510
  60.2384338  22.8386459  79.0180359  60.2234306  21.9628220  78.6321106
  61.1180496  22.9232330  79.3859329  58.2324753  15.7931662   1.7637173
  58.6020737  16.1311131   2.5794506  58.7034721  16.2622013   1.0749511
  75.1821060   4.5679960  21.6153889  74.3907928   4.7723985  21.1171246
  75.7366867   5.3412890  21.5119801  29.5375195  28.0548859  16.6274891
  30.0545807  28.4965000  17.3011799  29.5451508  28.6591854  15.8851995
  77.0450668  60.2676544  37.9702644  76.8401871  60.9957848  37.3836784
  76.2929230  59.6804276  37.8948860  32.4226303  51.4141579  41.6774330
  32.3089790  50.5563469  41.2681961  33.0203896  51.2538605  42.4076538
  33.6334076  27.6207790   5.9959793  33.9017601  27.9498558   5.1381178
  33.3851280  28.4045296   6.4862084  85.4869766  46.6648903  24.5299244
  84.8082581  46.0564651  24.2377129  85.9496460  46.1930084  25.2223816
  21.2382240  28.7067413  74.9639206  22.0373058  28.7651196  75.4876480
  20.5574322  29.0808640  75.5231934   0.7276569   9.9231091  29.3429070
  -0.0229787   9.4361572  29.6829891   0.7265375  10.7418995  29.8387032
  49.3295898  55.6085510  46.7515717  49.4302216  54.9317551  46.0822029
  49.7548103  55.2431946  47.5274124   5.8762846  20.9696484  76.1788635
   6.6392503  21.0291500  75.6039047   5.4042897  20.1958332  75.8711853
   0.7518978  34.8580055  22.5791740   1.3298773  34.4991837  21.9058094
   0.0070903  34.2571411  22.6005287  20.3422089  51.1300545   3.2530580
  19.9220924  50.9784088   2.4064543  21.2311249  51.4085693   3.0328567
  82.1757355  65.6657639  42.0633888  81.9869766  65.6710510  41.1250038
  81.9458847  66.5467148  42.3589020  15.2939596  61.6366997   4.1007199
  14.8906889  60.9244461   3.6044326  15.1888027  61.3798141   5.0167899
   9.4951448  37.2778091  60.7766876   8.7581282  37.6851921  61.2317467
   9.8843718  37.9884644  60.2670784  82.2967758  36.3254509  69.9502640
  82.7299881  36.9767570  70.5019531  82.1666412  36.7696877  69.1124420
  67.1750717  34.3037949  40.8765297  67.7179489  33.6209602  41.2705536
  66.6118088  33.8359680  40.2599983  63.7038422  48.1393242  36.5121117
  63.3156281  47.3131332  36.8000870  63.0426216  48.5278664  35.9393463
  40.4390259  23.9634743  73.6446381  39.5977211  24.0504360  74.0928345
  41.0284958  24.5430775  74.1271515  81.4447250  11.2227592  41.3860664
  81.1845093  11.7596569  42.1345711  81.1529465  11.7197809  40.6218262
  52.8574181   5.7756367  15.3310499  51.9114342   5.9185734  15.3612537
  53.2250175   6.6417446  15.1550999  55.6866035  61.6867027   2.6741860
  55.7331963  61.9407120   3.5958912  54.7823219  61.8712234   2.4203072
  49.0228577  13.4276943  43.8029137  49.7598190  13.2521162  43.2178535
  48.3399086  13.7762299  43.2299080  36.3991585  40.9613304  40.8071861
  35.4745064  41.1858597  40.9112549  36.8691216  41.6781960  41.2331810
  10.4327059  -0.1748382  59.6464043  10.9839716   0.1699210  60.3488846
   9.6676922   0.4004150  59.6380653  27.8244362  66.4028854  82.9422913
  28.4667320  66.9789200  83.3568649  27.0480461  66.9513855  82.8300247
  63.1746330  12.9618969  22.5859013  63.1010017  12.1694803  23.1177711
  62.7936249  13.6514940  23.1295204  54.4073944  39.6120186  11.7412558
  54.8442383  40.0962067  11.0405703  53.6702461  39.1796455  11.3100948
  29.3480721  39.9152641  17.5171337  28.8611412  39.7681618  16.7062740
  29.6443043  39.0438576  17.7800674  64.6833344   1.5823414  46.2663612
  63.8078804   1.9125755  46.0644531  64.5593262   0.6431512  46.4033890
   7.2523036   7.5081258  79.3997726   7.5078235   6.7035408  79.8509750
   7.7016344   7.4624882  78.5558243  71.5626068  21.9842510  39.4259758
  71.2045898  22.8719177  39.4361916  71.6681900  21.7579288  40.3500214
  71.8908691  23.0794697  60.3010216  71.5119400  23.2950916  59.4488754
  71.1712723  23.2001457  60.9205780  85.2188950  23.3436165  13.0083857
  85.4948502  22.5080776  12.6316147  84.2717209  23.3666191  12.8721437
  75.2261581  10.7092237  40.0406570  75.4931107   9.8427525  40.3475685
  74.5205231  10.9665842  40.6340179  34.2211418  46.1438942  69.4061508
  34.9417763  46.5773964  69.8633118  34.4250145  45.2107162  69.4681854
  16.3852482  22.1702499   5.3826213  16.4477558  21.2378044   5.5896688
  17.2943211  22.4604092   5.3076229  62.8350372  31.7652130   9.5613441
  61.9502716  32.1238174   9.4918633  62.9622726  31.2816715   8.7451143
  42.7566185  71.5415039  53.1308594  42.3384628  70.9354630  52.5192299
  43.6400528  71.6617584  52.7825546  59.2040405  55.2959213  57.6144371
  59.1952934  54.7064857  56.8602982  60.0850639  55.2068138  57.9778709
  63.8378448  12.3687344  62.1924019  64.0951843  12.2037220  63.0994759
  62.9991074  12.8249207  62.2605934  10.9914665  65.0273743   9.7612352
  11.8114624  65.5211639   9.7647390  11.2290239  64.1711197   9.4053965
  24.3593311  44.7844124  77.4449921  25.2057858  44.6402283  77.8680267
  24.5716324  44.9055214  76.5195236  76.9414673  11.1966810  71.3053665
  77.2495804  10.3457298  70.9936295  76.0057831  11.2012281  71.1035843
  66.3867645   9.2848158  31.3946934  66.2531433  10.2321215  31.4261646
  67.3112717   9.1806860  31.1695786  32.9693260  61.2932358  45.1589699
  32.2851295  60.7080803  44.8338585  33.6106949  60.7097893  45.5645180
  43.1849976  66.8352203  10.6486530  42.8413048  66.0202026  11.0145140
  42.4144249  67.3924789  10.5395384  55.3210030  58.7601891   1.5097927
  54.8204269  59.4295311   1.0432752  56.2321854  58.9350548   1.2744143
  50.6589203  33.3936844  47.9556007  50.7381592  32.4676056  47.7268372
  50.1641045  33.3964996  48.7749786  82.4383316  64.1115494  56.6620865
  81.4857941  64.1196899  56.7560616  82.7071838  63.2658157  57.0208130
  44.8551445  30.9443836   5.3373466  44.8564148  30.3498821   4.5871477
  45.0801201  30.3887825   6.0836196  46.6909294  18.1891823  81.9229126
  45.7360001  18.2515545  81.9441376  46.9684982  18.9411526  81.3997192
   8.6287384   7.4856586  77.1346893   9.4155207   6.9937286  76.8997192
   8.7207727   8.3192673  76.6733246  66.0852737  52.7976608  46.4931374
  65.9368134  53.1158066  47.3836288  67.0345001  52.8420258  46.3780861
  42.6636238  65.2138138  54.2215500  42.3984146  64.2948380  54.1844063
  41.9926796  65.6352081  54.7586670  83.7679138  42.4339561  67.5459061
  84.0779266  42.0306282  66.7350693  82.8358459  42.5905571  67.3943939
  61.7963524   4.0359540  15.9799280  62.4768562   4.6928043  16.1272182
  61.0668488   4.3190842  16.5311928  68.0871735  20.8000393  84.0771561
  68.8912354  20.4803467  84.4864426  67.8148422  21.5352459  84.6262817
  67.3156204  53.4974747  69.1974564  67.6254578  52.7527275  69.7128067
  67.3323059  53.1860390  68.2924957   3.0225122  35.5023651  59.5028839
   2.6049416  35.3501816  60.3506470   2.4135654  35.1292610  58.8655357
   0.4026440  54.0541878  30.4978752  -0.4348064  53.8950043  30.0624809
   0.5128614  53.3068161  31.0856857  43.2759781  28.1268635  87.3891220
  42.5641022  28.4241486  87.9557648  44.0001678  28.7223587  87.5819092
  15.9739904  35.9236908  20.2672062  16.0019798  36.7487450  20.7517033
  15.9313908  36.1870842  19.3479443  64.9211884  33.5796051  71.0861893
  65.1854019  34.4236450  70.7201080  65.4298859  33.4986725  71.8929825
  16.1185741  51.1901054  62.2093506  16.7156334  50.7691460  62.8278542
  15.4818096  50.5098076  61.9903526  61.1749687  38.9139328  64.2723999
  60.2862816  38.8702927  64.6253433  61.7224426  39.1280594  65.0278168
  64.1553879  67.8534241   0.9174891  64.4869537  68.6565323   0.5158634
  63.9740791  67.2730942   0.1781805  65.5457077  34.6051826  26.5032539
  65.6365280  34.6196632  27.4560242  64.6649017  34.9431763  26.3414574
  28.3728428  54.6638260  52.8413086  27.6538124  55.2296181  53.1225662
  28.8717327  54.4952812  53.6406403  18.9187126   3.6469584  65.6699829
  19.6696625   3.8905382  65.1287079  18.9938354   2.6980453  65.7707367
  73.2070160  32.4991226  84.4354477  73.2985153  33.4415894  84.5755234
  74.1052475  32.1832619  84.3372192  30.3847942  12.3580732  81.5412674
  29.4512749  12.1968498  81.4042130  30.5157280  12.2240238  82.4799423
  78.7651138   4.3669548   8.7301702  78.2106018   5.0283651   9.1440372
  78.7480621   3.6265647   9.3366051  51.1301231  13.0876789  54.3495865
  51.0954590  13.9942026  54.0442238  51.8641930  12.7018309  53.8715744
  78.6452866  31.5217457  28.8822727  78.9208145  31.2483292  29.7572346
  79.4540558  31.8000374  28.4525299  72.2765121  47.5907784  20.4749470
  71.5646667  47.4455833  19.8517075  72.2342148  46.8392067  21.0662041
  76.7720261  16.5803871  60.4992790  77.4029922  17.2083092  60.1473885
  75.9266129  17.0230656  60.4248199  83.1637421   7.6858907  82.9123383
  82.4871979   8.0990610  83.4488220  83.0579758   6.7483325  83.0736847
  55.3062973  12.3837938  72.9063797  55.4119644  12.2893066  71.9597397
  56.0997505  11.9962606  73.2758102   6.3358474  67.2370224  11.7125425
   6.1761942  67.8157349  12.4580851   6.3012066  67.8141174  10.9496574
  77.9477005  59.9900932  78.6593704  77.8114777  60.7270279  78.0638885
  77.7871094  60.3531342  79.5303802  15.4113197  38.5852852  72.9138565
  14.8950710  39.3705940  72.7321548  14.8100796  38.0065880  73.3827362
  84.8765182  31.1362305  25.1158562  85.3772507  30.4086685  24.7468758
  84.0615997  31.1450996  24.6137943  79.5481033  47.6490517  77.4156723
  78.9691467  46.9354095  77.6835480  80.3683472  47.2160683  77.1791229
   4.4147544  24.4249115  70.1350021   3.9490788  25.2599163  70.0886917
   3.7506492  23.7683353  69.9249954  54.2162628  36.3552437  20.2501221
  53.6850433  37.1440468  20.3588848  54.1025925  36.1148415  19.3306007
  69.9927673  44.4938774   5.5130224  70.7621613  44.8248482   5.9764047
  69.9891052  43.5542374   5.6954880  47.2591553  47.7211914  69.0020905
  48.1327591  47.7788696  69.3890228  47.1852608  46.8120232  68.7119446
  16.4481087  52.9768600  69.5676956  17.1753292  52.4246216  69.2806168
  15.8324261  52.9621696  68.8349304  84.4798126  21.7392025   3.2468140
  84.2893829  22.2887783   2.4865959  83.9283218  20.9659843   3.1275620
  75.1916122   1.5507861  72.7971268  74.7175064   0.7267554  72.6856308
  76.0377884   1.3991201  72.3761673  56.0552292  53.7429352  61.2513962
  55.2370834  53.3352356  60.9673996  56.4479332  54.0785370  60.4455528
  38.1248665  32.1952705  50.8263092  37.5612106  32.8926201  50.4913063
  38.8989258  32.2219696  50.2638588  20.8274784  37.1577759  75.1357498
  21.1177254  38.0601463  75.0026398  19.9134293  37.2379303  75.4083710
  76.7224350  64.0690918  38.8502884  76.6150665  63.7538986  37.9528732
  76.3002319  64.9281387  38.8545532  18.9998913  44.9064751  42.7594872
  18.6915379  45.8033447  42.8890152  19.7208939  44.9888878  42.1353111
  68.8514633  10.5284357   0.4962423  68.7521591  10.4301977   1.4431950
  68.7736664  11.4701920   0.3436797  60.0802078  17.3669014  21.0188885
  59.4859085  17.9832096  21.4469185  60.1660004  17.6984253  20.1250401
   0.1814679  35.6469994  33.7242088   0.6904527  36.1067505  34.3918877
  -0.4282749  36.3058434  33.3919868  16.6862965  64.1414948  22.7107754
  15.7316847  64.2054749  22.7400112  16.9894600  65.0460968  22.7882900
  82.6287689  68.2034683  30.2212410  83.4483566  68.6226349  30.4835453
  82.3324738  67.7441330  31.0070229   4.1521745  16.8098545  18.6979790
   4.8192887  16.2025070  18.3781052   3.5676420  16.2667770  19.2267723
  70.8235626   8.0024195  77.0442581  70.1301346   8.0842419  77.6990051
  70.4333725   7.4757295  76.3466949  17.6749821  46.8132629  54.2823601
  17.5392132  46.6035652  53.3583374  18.0544910  46.0175705  54.6552887
  39.7759476   8.7651672  15.6878157  39.4786644   8.8136854  14.7792444
  39.3316460   9.4919977  16.1243324  71.7925644  11.7388592   5.1964979
  72.5724411  11.3430662   4.8074312  72.0389023  11.9099360   6.1054993
  12.7883787  67.3536453  25.1079865  13.2338524  67.4818268  24.2705154
  12.9355602  68.1703491  25.5850258   2.4931383  20.1146679  27.6926918
   2.7473090  19.1918869  27.7029285   3.0662501  20.5281334  28.3383083
  54.8160973  60.3345642  59.9173775  55.5074005  60.0948448  59.3002319
  54.0767860  59.7757835  59.6777687  51.0691833  54.5253868  31.1277084
  50.4938545  55.2161484  31.4564533  51.5952682  54.9531937  30.4520988
  68.3523026  36.2482224  21.0388775  68.4861298  37.1164055  20.6586342
  67.7042389  36.3865776  21.7296066   4.3298397  12.5092211  15.6976576
   4.0823989  13.4276590  15.5905266   5.2867951  12.5196323  15.7166281
  62.1742439   7.6025991  43.6211967  61.6521912   8.3285446  43.9628067
  61.6281090   6.8288097  43.7598228  72.1964417  61.0902214  44.4281311
  72.5821075  61.1631432  45.3011589  71.7162781  61.9096909  44.3091927
   5.0575147   3.5371087  88.6167679   4.2096820   3.2560616  88.9608994
   4.8968148   4.4154859  88.2720108  70.9188614  60.4887352   4.3989697
  70.2953796  59.8120346   4.6627479  71.7436523  60.0191536   4.2746849
   4.2954059   5.9499202  68.9040451   4.6036329   6.8506141  69.0039368
   4.1044588   5.8643188  67.9699936  74.3581696  53.5929985  60.2097702
  74.5473022  52.6890831  60.4615555  74.2584381  53.5607338  59.2583237
   5.8988614  56.6115646  80.1461029   5.8420186  56.5743828  79.1913147
   5.2035952  57.2167931  80.4040451  12.3580799   6.1157990  82.2119370
  12.2614002   6.3092709  81.2794876  12.4779978   6.9718814  82.6230011
  61.6460114  28.3781185   8.9925547  61.9436874  27.9771614   8.1759434
  61.0483551  27.7337627   9.3718204  72.6412735  45.1167831  22.0161190
  72.1683426  44.3224373  22.2642860  72.4650955  45.7325325  22.7274895
  76.6524429   0.7105446   9.3960886  76.0960541   0.7576218  10.1735516
  76.0437927   0.5477686   8.6754808  13.4992723  53.4756050   9.3331432
  13.3280230  53.6010094   8.3997726  14.3962917  53.7862701   9.4559288
  46.7070427   0.9926006  39.5456047  47.2348518   1.7908351  39.5673103
  45.9259338   1.2353947  39.0484657  17.9132633  45.8964081  33.2911415
  18.4841251  45.2096596  32.9465790  18.2776566  46.7090988  32.9404526
  48.6602821   7.2281218  26.0764694  48.8452110   7.4581299  25.1659031
  48.2592773   8.0150080  26.4455738  85.9302063  52.3625793  70.7899475
  86.6340637  53.0023613  70.8971710  85.9829330  52.1002617  69.8709030
   2.9787560  57.5622177  16.9483261   2.2948649  57.0048447  17.3196259
   3.7962134  57.1935349  17.2830925  77.3276138  21.0644531  49.5076561
  76.9942703  21.5843582  50.2389679  76.6796417  20.3693123  49.3930016
  58.5658035  53.9119606  67.5912857  58.5732994  54.0368195  68.5402756
  57.6373787  53.8640022  67.3633423  32.0910454   0.3890208  27.4639587
  32.6077843  -0.3228490  27.8413925  31.7111702   0.0140520  26.6694012
  78.3598862  42.4579811   4.1974268  77.7037201  42.2040138   3.5484447
  79.1966019  42.2209625   3.7974668   3.2782147  55.0403404  22.6624947
   2.7244723  55.0139008  23.4428177   3.5544629  55.9543724  22.5956993
  69.7964401  33.9268341  58.7096977  70.1894379  33.7112389  57.8639412
  70.0187531  34.8473167  58.8494263  31.2557564  47.2830315  32.4212036
  30.5651321  46.7164383  32.7650642  30.9403419  48.1717415  32.5853462
  81.9378510  33.7857094  46.6006775  81.2132416  33.3455658  46.1563263
  82.6640625  33.7387657  45.9788780  51.5991135  67.2423401   2.5827193
  51.5787773  68.0378113   2.0506976  50.9978180  67.4221420   3.3054581
   1.8449272  64.9735260  86.8803482   1.4064068  65.8011856  86.6830978
   2.4317052  65.1807556  87.6076584  44.0986710  13.5162640   3.7951798
  43.3104897  13.0424948   4.0607920  43.9756660  13.6806517   2.8602579
  28.5065193  56.9199638  39.6032219  28.1901207  56.1925316  40.1389122
  27.7216740  57.2601814  39.1736794  44.8993492  42.8517570  61.0760345
  45.5526543  43.4488411  60.7114563  45.0040817  42.0451126  60.5714645
  41.6094742  63.2915916  42.3669777  41.2748756  63.6096916  41.5284729
  41.3869133  63.9822617  42.9912186  59.2103462  63.7588692  38.8817596
  59.2866364  64.6755447  39.1465683  60.0633736  63.5473251  38.5025177
  34.5517349  43.6573143  86.8140945  33.8252487  43.6059761  86.1929474
  34.1303940  43.6984520  87.6725845  74.6310425  58.4693871   0.4326288
  74.3802109  59.3850365   0.5546889  75.5694275  58.4510117   0.6205959
  25.1634064   0.7961749  14.4483643  25.4072037   1.4060093  13.7520199
  25.2052097  -0.0668420  14.0364351  47.7693367  32.0437698  67.2212982
  47.2430763  32.1596642  68.0124054  48.3136635  31.2783127  67.4057312
  68.8497314   8.2293568  40.7645378  69.4608383   8.9660549  40.7569427
  68.6885071   8.0423594  39.8397293  18.3963203  57.4400024  61.1512680
  18.0507584  57.8317413  60.3491707  19.2941933  57.1931076  60.9296913
  29.2129612  21.2997608  69.9500427  29.6979504  20.6359158  69.4598083
  28.6278687  20.7983189  70.5178909  28.9968624  57.5334702  88.0383987
  29.5163116  58.1448822  87.5163040  29.6452904  56.9947281  88.4917526
  11.8720388  19.7179337  74.8943253  12.1347618  19.5469418  75.7987442
  11.6065025  18.8626881  74.5562744  61.7450256   1.1424152  67.2304382
  61.2011948   1.1715088  66.4432678  62.5831261   0.7911775  66.9296875
  80.9675217  31.6521091  68.4127121  81.6644974  31.0762367  68.7270889
  81.1085129  32.4757385  68.8796082  44.0933800  49.9659386  46.9305954
  44.3668823  49.0500832  46.8792877  43.7030487  50.1475945  46.0756836
  53.1258469  35.0140038  28.9931831  53.7865753  34.7996597  29.6517639
  53.0735207  34.2323532  28.4431686  47.8827248  34.5979500  28.0298862
  47.4226913  35.1199913  27.3725643  48.5480995  34.1208076  27.5340576
   7.2736297  54.3877182  38.5763245   6.4407401  54.0210228  38.2795715
   7.0300684  55.1836929  39.0489082  56.0662918  41.7481270  47.2302246
  56.5450859  42.3395958  46.6495705  55.7624779  42.3079185  47.9447594
  63.6981773   6.5360684  15.7299776  63.9549599   6.6896496  16.6392117
  64.3612061   6.9939084  15.2132473  35.4181023  55.8163414  68.3310928
  36.2695427  55.5968170  68.7093658  35.3181915  55.2094040  67.5976868
  55.4769249   7.9952054  30.4663506  56.0707474   8.1445150  31.2020893
  55.6878853   7.1119475  30.1637230  40.5022469  68.7121429  55.4863281
  40.4300995  67.7589951  55.5366669  40.1272278  68.9360733  54.6345978
  35.8168068  44.9646454  29.4376392  35.5591393  45.7544785  29.9130421
  36.2840118  45.2899590  28.6681442  19.4718037  50.8834686  30.4376297
  19.2506943  51.1819344  31.3198204  19.5788345  49.9362946  30.5250263
  41.8459702  38.5736313  70.5799179  41.7587280  37.7923546  70.0338211
  41.8839989  39.2987633  69.9562454  51.6068535   1.6324055  39.8992386
  52.5552063   1.5144480  39.9535027  51.3774033   2.1005404  40.7020035
  11.6577759  25.4357338  11.5676517  11.5392780  25.7322636  12.4700155
  11.7435350  24.4849300  11.6372948  86.9843369  69.6014633  45.8384857
  86.7004623  70.3998718  46.2836647  86.3352890  69.4687958  45.1475601
  42.4705391  37.7936554   2.9638038  43.0349541  37.0243340   3.0400531
  41.7174644  37.5942917   3.5200133  38.8246956  60.2729073  34.7330437
  39.0439186  59.6254654  35.4031143  39.6197777  60.3504868  34.2057343
  70.5560455  16.3470955  39.8600731  70.7728500  17.2700176  39.7280045
  70.1098022  16.0881405  39.0538177  24.5916557  56.0651627  62.5021935
  25.2777119  56.1571808  61.8410645  23.7818222  55.9876862  61.9978142
  85.0889053  17.3689537  44.9335670  86.0025787  17.4969425  44.6785088
  84.6692886  18.2097130  44.7511520  75.5451508  20.1121845  12.0839863
  74.6334381  19.8458538  11.9653549  75.5605392  20.5386696  12.9407864
  36.3447838  55.1634979  30.9499702  36.3751488  56.0885887  30.7060204
  37.0539093  55.0597191  31.5844841  73.3947449  16.4885311  31.1224823
  72.8536148  16.2550659  31.8767414  73.9462967  17.2052479  31.4360752
  85.9283829  15.8298540   5.1579409  86.6001358  15.6968575   4.4891415
  85.1824875  15.3123913   4.8544507  34.1649780  49.7691078   2.0822389
  33.7214241  50.4598579   2.5745385  34.5691490  49.2186852   2.7529955
  17.9428291   9.3594131   5.5437989  18.6145096   9.4962177   6.2119026
  17.8564034  10.2099962   5.1133671  83.1001740  32.8810158  50.4755440
  83.3298645  32.4890442  51.3180580  83.7371597  32.5173073  49.8605652
   0.4750826  41.3515778  30.9083958   1.0924280  41.5260544  31.6188011
   0.6567980  42.0323944  30.2605553  81.8400955  53.9605484  17.4261017
  82.6124191  54.2786331  16.9585838  81.8083038  54.4890594  18.2235336
  55.7954597  36.8536148  29.9234295  55.5684967  37.4956512  30.5961189
  55.4698181  37.2354393  29.1083241  20.8422375  49.5594406  26.9037857
  21.4667301  49.1094933  26.3347588  20.5235081  50.2925034  26.3772316
  27.9531078   0.2251541  21.0264301  27.5416431   0.8481950  21.6253872
  28.0510902  -0.5747107  21.5430031   4.0981193  66.0573654  22.6793652
   4.3208790  65.8996506  21.7619038   3.1519721  65.9191284  22.7232876
  41.3831940  70.0083923  81.9211502  41.5571022  70.3296738  82.8058929
  42.2510033  69.8676758  81.5425415  71.7902069  12.2967606  18.1263676
  72.3087006  11.4922132  18.1165943  71.9018097  12.6428823  19.0117931
  36.2814636  41.5813560  38.0041618  35.3765030  41.2707939  37.9754181
  36.5260696  41.5213356  38.9276352   4.1099534  34.3903961  40.5881958
   3.4976783  33.6763344  40.7655869   4.1235580  34.9009209  41.3977699
   5.4883771  31.8940506  23.9698143   5.9176717  32.6113014  24.4361744
   5.3885727  32.2165375  23.0741177  76.1508560  65.8318481  45.4226379
  76.7140427  65.4073334  46.0698204  76.1829987  65.2531738  44.6608429
  25.6243896  40.0653458  76.8481674  26.3886013  40.2308998  76.2960739
  25.9720364  39.5879860  77.6014938  40.7915192  70.4424438  23.5107479
  41.6410332  70.7236938  23.8505363  40.4560852  71.2066956  23.0420914
  38.6218185  56.1849480  56.3319321  39.5589333  56.2534256  56.5145836
  38.4692459  56.8115845  55.6246262  62.1252899  31.4168644  67.2162857
  62.9495735  31.7321491  66.8456268  62.2515984  31.4730110  68.1634521
  28.2724495  49.6617584  83.9753876  29.1920376  49.4399414  84.1216354
  27.8835335  48.8570633  83.6326981  57.4466629  16.4004383  18.5787106
  57.3010597  17.1982231  19.0872116  56.9932976  16.5581741  17.7505741
  31.4017124  11.3050976  84.1219711  30.5577812  11.6669798  84.3922577
  32.0428085  11.7566957  84.6708679   7.2142606  43.6125832  29.7099037
   6.9617310  43.5543365  30.6313534   7.7935729  42.8630867  29.5724888
  60.4057541  43.2513084  67.0736084  59.7179489  43.8943863  66.9015503
  60.5677910  43.3198395  68.0144958  20.8073769  12.6498966  52.0231285
  21.3444405  11.8690376  52.1574898  19.9209461  12.3119020  51.8957367
  85.7810059  17.7422829  49.8587837  85.1978989  17.4671555  49.1513138
  86.4977722  18.1961880  49.4155502  23.8462105  34.2409554  22.5481205
  23.5325642  34.7043991  23.3246994  23.9553280  33.3351097  22.8375607
  77.8322906  22.0826664   3.9743304  78.3713913  21.3953648   4.3657603
  78.4551315  22.6370964   3.5043209   2.9409709   8.6741085  28.1418438
   2.0878553   9.0244293  28.3981667   3.4762177   9.4488487  27.9700279
  34.9137230  43.5160561  11.1279716  34.7409172  44.4529610  11.2206173
  34.2160873  43.1994247  10.5541391  78.3641205  14.1354752  60.3533058
  79.1199265  14.5041265  59.8960533  77.6078262  14.4489641  59.8573380
  34.8884468  49.1459198  83.3317642  34.2922935  49.3871574  82.6227951
  34.3328667  49.1110687  84.1104507  63.9841537   6.1533012  29.1890507
  64.2892303   6.1380363  30.0962029  63.7426605   7.0662804  29.0329018
  85.1597977   1.9794693  83.0227509  85.6520157   1.2584512  82.6302109
  84.6651459   2.3560157  82.2948990  48.9275970  30.5129414  63.8855095
  49.7173233  30.1035652  63.5319939  48.4889030  29.8112583  64.3665771
  82.1628799  63.6166191  75.2534103  81.7662506  64.4340591  74.9522324
  83.0978165  63.8124466  75.3148956  72.0957184  35.1459579  81.6616669
  72.1033020  36.0847206  81.4748459  72.1690750  34.7301903  80.8026047
  72.8818665  29.1236610  68.0347824  71.9639435  29.3031597  68.2383423
  73.1782532  28.5556374  68.7459335  49.7059174  71.1332092  87.9908752
  48.8904076  71.0606384  88.4867630  50.3506241  71.4314804  88.6324539
  62.1469345   1.8785834  70.0414581  61.2398796   2.0970967  70.2553101
  62.1412125   1.7312758  69.0956802  40.7734184  53.0045815  17.9794979
  40.8088264  52.2268791  17.4225788  39.9000397  53.3666534  17.8300133
   7.0467587  51.6679878  28.7902355   6.6742930  51.7578583  29.6674042
   6.4076920  51.1400375  28.3115997  78.0091095   6.7080421  71.9286346
  78.4888916   6.2510295  72.6194153  78.3193665   6.3077135  71.1164093
  76.3674240  31.7348518  25.1541271  75.5342941  31.5313759  25.5792446
  76.1788330  32.5007172  24.6118031  14.8190422  60.5577621  55.4942398
  15.5003958  61.2229576  55.5917358  15.1448107  59.8067284  55.9902763
  73.8454285  40.5273705  67.8207550  73.1903076  41.0512276  67.3596420
  74.1262207  41.0817375  68.5488129  20.0040150  51.3779640  45.3031006
  19.7113571  51.7944679  44.4924774  20.8970127  51.6990013  45.4284744
  48.4043198  12.6179104  13.5566025  48.5361290  12.4277306  14.4854145
  48.8957596  13.4252787  13.4053450  54.8362617  60.5769958  39.4535866
  55.5121574  60.9125366  38.8646812  54.0992203  60.3699608  38.8790131
  49.6470985  37.6335945   2.2046812  49.7245445  38.2441673   2.9377813
  49.7152214  38.1851845   1.4253597   3.9686558  63.0694580  73.8133850
   4.5446272  63.5983810  73.2613602   3.4575059  63.7095184  74.3086395
  74.6011200  17.4609337   8.2315979  74.2234268  16.5923882   8.0929985
  74.2566986  17.7392445   9.0802164  13.7082567   2.0819829  65.4738159
  13.6621294   2.8432493  64.8953934  12.8000956   1.9197447  65.7290726
  32.8600426  54.4692192  51.8301620  32.0759163  54.7796555  51.3773842
  32.6413231  54.5341034  52.7597771  68.3063583  38.6664429  55.9154625
  68.2144318  39.0027924  56.8068924  68.2509689  37.7156639  56.0113068
  41.3612556  56.4488869  56.5701103  42.0175972  56.3930931  55.8756065
  41.3289452  57.3787346  56.7949791  52.1112900  25.8991718   5.2897987
  53.0433540  25.7606812   5.1215401  51.8829002  25.2316074   5.9366565
   6.3295608  60.1557541  85.9953232   6.5436664  60.6926537  85.2323532
   6.9768572  60.4069481  86.6542206  12.3354101  55.3039665   1.4150014
  11.7801981  55.8288040   1.9916435  12.8946095  55.9434204   0.9738345
  49.5084381  18.3887844  58.1779480  49.6600342  18.0304527  57.3033943
  48.7445259  18.9563217  58.0751381  45.3778229   7.4647036  38.5817566
  44.9756432   7.9089060  37.8353195  45.2003593   6.5361109  38.4319115
  60.7622757  31.2287693  44.6341896  60.8259315  30.6345825  43.8864441
  61.4658089  30.9514771  45.2210312  11.0156937  14.6689892  84.9274826
  11.0062332  15.3436546  84.2485352  11.0499105  15.1573877  85.7499924
  53.8010674   3.0798163  65.7078934  53.9064522   3.2014771  66.6514587
  53.7144661   3.9674020  65.3601532  37.8495636  35.1135902  67.5073700
  38.2872009  34.5932617  68.1811371  37.0786285  35.4735947  67.9458771
  38.9102173  62.8203354  58.8618736  38.6367302  62.7190399  59.7735634
  38.0983810  62.9968414  58.3864822  33.4913597  50.8555641  38.7736740
  32.5723228  50.6871910  38.9816551  33.9709129  50.5514450  39.5442390
  27.2252369  69.2956619  71.3352890  27.8312111  68.6222839  71.6444473
  26.9222374  69.7296295  72.1328506  33.0787506  28.7766228   3.3946068
  33.2763138  28.4506054   2.5165904  32.6236801  29.6054363   3.2455750
  76.3996811  61.7368355  73.7056656  76.1944199  61.7088089  74.6401825
  77.2573166  61.3174782  73.6361465  21.9085274  10.2139254  20.3929844
  21.8237171  10.4383030  21.3196411  22.4758587  10.8954039  20.0324917
  70.3596878  17.4919796   6.0352950  70.5133972  16.5861454   6.3037601
  70.4777069  18.0025063   6.8363357  40.3553581  45.0777740  17.9300098
  40.9236069  45.8437843  17.8490200  40.9562073  44.3326492  17.9289894
  24.7195568  59.8851814  81.6792145  24.9454060  59.0879021  82.1583405
  25.1176052  60.5913773  82.1882095  74.6819992  39.6256447  55.7986603
  75.2468796  40.3621483  55.5647621  73.7986221  39.9941826  55.8058891
  49.9130592  26.9810925  71.7741318  49.2833328  26.6863937  72.4320297
  49.6888618  27.8992004  71.6223145  53.0219994  22.3260498  20.2368927
  53.7151184  22.1113625  20.8611717  53.3676720  22.0457172  19.3894520
  79.7961807  45.1952553   8.7629633  78.9684525  45.3488350   8.3074350
  79.8738022  44.2420845   8.8038454  33.1309395  51.8032227  51.6031876
  33.8487129  51.8955803  50.9766846  32.9781189  52.6916542  51.9250107
  39.6501999  35.9298897  83.9985962  39.6875038  36.8129883  83.6312103
  39.4373512  36.0635147  84.9222183   3.1355851  64.8619003  76.5218887
   3.5993867  64.6185226  77.3230667   2.6491942  65.6519775  76.7573090
  10.2556849   0.7738650  80.9007416  10.6320267   1.5429269  81.3286896
   9.7311258   0.3533212  81.5820694  51.1055946  62.4601097  31.0959320
  51.6515656  61.6913948  31.2609253  51.1715660  62.6025391  30.1516895
  71.0722961  50.8147011  20.5296078  71.8325806  50.9555550  19.9653759
  71.4387512  50.7378502  21.4105358  62.8907127  62.1861038  55.8211060
  62.1205368  62.7409821  55.6979256  63.5237007  62.5091667  55.1798630
  37.7543869  44.9174118  17.9313259  37.4454269  45.7430534  17.5583763
  38.6993103  45.0365486  18.0270081  47.0466003  60.8554306   6.4012861
  47.4961777  60.3354301   7.0674024  46.1293144  60.8536377   6.6748095
  42.6863976  48.0333862  62.0185547  42.0412140  47.9258957  61.3196831
  42.4202003  47.4043159  62.6891060  70.6280823  29.3300858  87.7830505
  70.6184158  30.2460537  88.0607910  69.9692383  29.2828979  87.0902863
   4.9915686   0.4958516  81.1859512   4.0866137   0.7799914  81.3146133
   5.5080957   1.2977136  81.2662582  63.3251686  11.6552229  51.5701141
  63.2188683  12.5395908  51.2196503  63.6624947  11.1448059  50.8339615
  85.7808075  26.5178528  77.5598526  86.0696716  25.9875050  76.8172073
  85.5398331  27.3598328  77.1735458  12.9178801  31.1592369  33.7325821
  12.9795341  30.2116299  33.8528862  12.1491852  31.4158325  34.2419930
  41.8383980   3.7808683  45.9366417  41.1563759   4.3473172  45.5757904
  42.5565109   3.8393157  45.3064575  62.4000130  34.3498344  22.4739056
  62.3360443  34.9551735  23.2126255  62.8875809  34.8349915  21.8082218
  81.3093262  54.9594460  26.1744137  81.9891052  54.3263359  25.9435310
  80.6809692  54.9095917  25.4540558  79.6605759  16.0870552  85.2257233
  79.3384171  15.3378925  84.7245255  80.0690536  15.6995468  85.9998169
  15.0940981  41.4535484  50.8122787  15.7183819  41.6962585  51.4960861
  15.6067724  40.9333076  50.1936150  41.5835381  53.5390739  57.1904678
  42.4358253  53.3659630  57.5903053  41.4622002  54.4838562  57.2847748
  20.3916187  44.9923325  83.1817780  19.7359505  44.9742584  82.4846344
  20.8484478  44.1549072  83.1026993   7.6154561  62.9173622  38.3524818
   7.5141587  63.0796547  37.4145927   8.1147127  62.1021767  38.4019432
  11.1511564  42.6147995  61.2457237  11.6683693  42.6869583  62.0479164
  11.5196753  41.8577423  60.7904282  72.8953629  54.0082169  38.5793991
  72.9592743  53.4106140  39.3243942  72.1321411  53.7006302  38.0904083
  83.2704239   8.3443165   3.8141260  83.3056946   7.4152651   3.5864162
  83.6649780   8.7898207   3.0644045   7.2141604   4.4063339  43.6716042
   6.3341489   4.7519236  43.8212013   7.2047577   3.5414820  44.0816917
  33.7537689   6.3260450  72.3369446  33.5500298   6.8755031  71.5801010
  32.9670982   6.3662019  72.8807907   3.1347227  31.6806812  75.0873184
   2.3452630  31.2088356  75.3525467   2.8738940  32.6016541  75.0849991
  17.3933430  46.3137932  27.3302116  17.0393162  47.1949921  27.2102566
  17.2959614  46.1419983  28.2668190   1.6030898  66.8075333  67.7283096
   1.9482101  65.9950943  67.3580856   0.9463209  66.5214386  68.3631592
  59.4154892   5.9015908  48.7991295  59.9454002   5.5309815  48.0933838
  59.3800621   6.8383260  48.6054688   2.6780879  22.6362400  51.5052948
   2.2405813  23.4676018  51.6887512   3.6116493  22.8374386  51.5702133
  52.1370544  34.2079849  42.1392746  51.6364632  34.2524033  41.3246155
  52.5596771  35.0641060  42.2076797  61.4977417  42.8030128  11.4357042
  62.4062538  43.1039276  11.4526224  61.3255730  42.5106239  12.3307438
  31.8868351  49.8726997  74.2376328  32.1171417  50.5418129  74.8822098
  32.7275085  49.5784187  73.8870697  74.5970535  15.2806683  15.5965796
  74.3819962  15.8001652  14.8219156  75.5535202  15.2896166  15.6329956
  82.2513351  28.0813866  84.5683136  81.4589539  28.4738426  84.2018051
  82.7129440  28.8125820  84.9788132  71.4821854  38.0453377  56.9847412
  71.1082535  38.8355751  56.5949516  72.0119705  37.6613045  56.2861099
  41.4217300   2.3209975  53.3493614  40.6329689   2.1288307  52.8422508
  41.9700661   1.5436440  53.2431488  10.1507378  53.5631294  61.9730759
  10.2734480  52.8177147  61.3852577   9.2113018  53.5714417  62.1564407
   1.5958052  24.0534363  87.5313644   2.1867433  23.5192986  88.0621338
   1.3642507  24.7894230  88.0978775  45.0080910  28.9379692   3.1295996
  45.5180893  28.6805210   2.3615794  44.7390594  28.1097965   3.5270727
  70.5063400  46.4777412  25.2933369  70.3506927  47.0740585  26.0257378
  70.2860336  46.9907341  24.5158157  57.4086761   8.4744244   5.4272971
  57.4959373   7.5223556   5.3805761  57.6475792   8.6929188   6.3280845
  47.4453735   6.1589389  46.2082481  48.0437775   6.0348401  45.4715347
  46.7123642   5.5719266  46.0229263  23.4630756  17.7369938  69.3214340
  22.7816029  17.4722023  69.9392548  23.0785751  17.5801067  68.4590073
  37.0423355  18.8506756  68.2978058  36.3445778  19.0772762  67.6829758
  37.8145180  18.7220783  67.7469559  52.6965332  41.9564323  37.9625969
  52.6401596  41.2276688  38.5806274  52.3632774  41.5988579  37.1396065
  14.1206779  58.9064522  39.7049179  13.9559412  58.6528435  40.6130905
  14.8776493  58.3822098  39.4433937  24.4470387  10.8218632  45.5717697
  25.1067486  10.3996267  45.0215607  23.7473354  10.1730719  45.6473846
  20.9329605  53.2422562   7.3245087  20.8213787  52.8868370   8.2062464
  21.2327480  54.1404572   7.4644885  80.9893723  61.2891808  74.3176041
  81.1544342  62.1916542  74.5906067  80.5092392  61.3721886  73.4937057
  10.9981928  43.8928795  50.8877258  10.3250113  44.1062584  50.2415619
  11.0190649  44.6513596  51.4712563   7.4733424  50.0260162  78.8503723
   7.0482273  50.8836250  78.8462677   6.8314433  49.4424400  79.2548904
  53.6583481  34.9046135  71.9648209  53.7189598  35.8596992  71.9455872
  54.5125885  34.6168480  72.2868423  42.5277596  12.2386951  59.4370995
  41.7110786  11.8147039  59.7007179  43.0199165  12.3381271  60.2520409
  36.7246933  15.1050997  89.1761322  37.5101852  14.5615873  89.1142502
  36.6911774  15.5734453  88.3420105   0.2055497  10.9588985  39.9335785
   0.5758445  10.8977346  39.0530243  -0.0854504  11.8677139  40.0084381
  58.3547630  20.9769287  19.5686684  58.6901817  21.7849483  19.9570370
  59.1317558  20.4333153  19.4383030  79.8763809  52.0441895  79.1246414
  79.5666351  51.2676277  79.5907288  80.1567841  52.6429863  79.8167801
  39.3331337  62.8589516  63.5983696  38.6336746  62.3352547  63.9891739
  39.9626350  62.2145233  63.2748451  12.7367096   2.3774059  28.9262562
  12.5670233   1.4668236  29.1676655  12.0469236   2.8743370  29.3661270
  29.5832863  67.6414566   4.3913078  28.9998875  66.8911743   4.5051107
  28.9948578  68.3833313   4.2512832  17.8223133  43.0548286  47.7889366
  18.7084637  43.2194099  47.4666252  17.7893276  43.4988480  48.6362801
  52.8703384  50.2001801  60.9730453  53.5712318  49.5912704  61.2058754
  53.3180199  51.0311356  60.8138809  12.1576385  51.1184273  10.1320505
  12.3951311  51.0188255  11.0539551  12.5335684  51.9611282   9.8775702
  12.0701942  34.8580132  71.4471893  12.2837620  34.9505997  72.3756561
  11.9274092  35.7545319  71.1437073  71.8536835   9.2047396  33.8235321
  71.0663834   8.8535147  33.4075584  72.1244583   9.9249229  33.2541046
  16.3155689  38.9062271  59.4526062  15.4663525  38.9175110  59.8941231
  16.2791538  38.1378593  58.8829460  85.0237350  34.0322647  73.9087524
  85.7871857  33.5895271  73.5381241  84.6888428  33.4223442  74.5660782
  25.3672771  47.7680588  45.1406097  24.6512794  47.7738800  45.7758598
  26.0679150  48.2633820  45.5648651   5.0603156  37.0117989  49.3035316
   5.6549711  36.7305336  48.6081848   5.6377354  37.2962646  50.0119781
   9.3575411  36.9646683  51.0258293  10.1480103  37.3701553  51.3821564
   9.0773401  36.3497543  51.7037659  71.5257034  50.3609009  45.9192123
  71.3286743  50.3381958  44.9827843  72.2721100  50.9556541  45.9925690
  67.8082047  12.1235542  65.2585220  68.3267975  12.8047590  64.8304443
  67.8082275  12.3684778  66.1838608  38.4565811  64.0941467  78.7905960
  38.8514442  64.3022079  79.6373672  39.0438728  64.4923553  78.1481400
  69.9047623  21.1969585   8.6981964  70.7905426  20.8511047   8.5886126
  69.8011551  21.2945709   9.6447525  67.0522995  19.3549004  61.6133804
  67.9107285  19.6840153  61.3469086  66.4569092  20.0890408  61.4624405
  72.3968277  33.8186455   9.3970919  72.0698776  33.1425629   9.9905987
  72.8825226  33.3358154   8.7283564  38.8220444  40.8378639  61.4749451
  38.4841003  41.7317200  61.5301399  38.5735588  40.5415039  60.5993538
  21.8283978   5.6442561  57.1810074  21.8366776   4.6886086  57.2348671
  20.8996143   5.8755250  57.1706200  27.2113419  58.7983894  64.6002579
  26.5444527  59.4816971  64.5325623  26.8552761  58.1784210  65.2367249
  52.7630653  31.2238083  19.4313717  53.2122726  31.2443657  18.5863743
  53.4687843  31.1856422  20.0769253  45.8355484  19.4715958  71.3904266
  45.2783852  19.9362907  72.0148163  45.8878288  18.5796146  71.7337494
  12.3140993  65.7768326  27.7842178  11.9100952  66.1479034  26.9997959
  12.1584549  66.4305420  28.4658852  44.0009918  61.0381775  58.7966194
  44.7590523  60.9409790  58.2203140  44.3117828  60.7440453  59.6528473
  55.6494713  55.1074982  68.0900421  54.6939545  55.0568619  68.1156921
  55.8789330  55.6771355  68.8242645  64.4228668  24.7546101  19.2752323
  65.3189468  24.9119492  18.9777145  64.0865555  25.6240063  19.4926605
  80.3462982  43.1779709  72.0380630  80.8574600  43.6293335  71.3663330
  79.8936234  42.4793968  71.5654984   4.8077178  62.3267746  55.9076195
   3.9569511  62.7648163  55.8842621   4.5982327  61.4043541  56.0542107
  73.2789917   3.3513422   8.2405167  72.4258194   3.5129397   7.8377466
  73.9124680   3.5937941   7.5651288  23.3371639  35.2682838  86.4419327
  23.5633526  35.4339981  87.3571396  23.3705597  34.3155632  86.3556824
  24.8491154  56.6809921  30.7274284  25.3954163  56.1651611  31.3204765
  25.4680901  57.2372932  30.2545338  73.3430481  23.7633972  77.0824585
  74.0804901  24.1633205  76.6215134  72.6021423  23.8684006  76.4855881
  42.3140793  18.8351135  87.7114258  41.4861412  18.4029369  87.5017166
  42.0601654  19.7111931  88.0016708  18.1958904  60.9320297  29.8952217
  19.0846806  61.1480637  29.6130638  17.6294823  61.4132538  29.2920303
  26.2479839  52.6838989   2.2809615  26.5540600  51.8293228   2.5846834
  25.7460175  53.0339737   3.0169711  67.9930496  22.1843586  49.0592346
  67.5948792  22.5021362  48.2488594  67.6260376  21.3084641  49.1789970
  73.9798737  56.5643578  30.0488338  74.7015610  55.9889870  30.3025036
  74.4002075  57.3993797  29.8431911  19.3206329  21.1036320  14.3489399
  19.1177044  21.9239120  13.8992825  18.8252430  21.1498451  15.1666708
  45.8818588   5.0894880  53.0560188  46.7464981   5.2522936  52.6790237
  45.7941284   5.7464371  53.7466354  80.2002716  15.7468328  58.3322563
  80.7908173  16.0730629  57.6532478  79.3914871  16.2426491  58.2047005
  76.1130371  38.0758286  86.1924973  75.1861343  38.3122482  86.1581039
  76.5042114  38.7248344  86.7773132   6.1544795  55.9317131   6.5174837
   5.3714981  55.4015045   6.6659760   6.7317915  55.3675079   6.0030799
  68.7857437  70.3693542  16.3052902  68.7443542  69.7322998  17.0185089
  68.1973648  71.0732346  16.5784149   8.4594784  38.5233231  16.2865543
   7.9069114  37.8186302  16.6246529   8.5506468  38.3295631  15.3536139
  64.7513123  20.2180595   4.0551105  65.3590546  20.6742153   4.6371784
  65.2341003  20.1193829   3.2344916  10.4192772  16.3976688  76.8612137
  10.1652603  16.0930729  75.9900513   9.9316902  17.2125244  76.9816437
  41.0387154  39.3030586   0.4055863  40.6893921  40.0653191  -0.0561106
  41.3262939  39.6464615   1.2515198  28.7316380  25.1030865  69.1187668
  29.6880016  25.0693932  69.1403656  28.5058746  24.9151764  68.2077484
  58.4093018  19.5644131  47.0494652  57.8866158  19.0527668  46.4320107
  59.3005753  19.5198193  46.7032356  12.7422056  21.5884495  29.3089962
  12.9249449  22.4111900  29.7628002  11.7931824  21.4833851  29.3764362
  27.3581924  58.3965683  70.0109024  26.4515591  58.3422356  69.7087555
  27.7401524  59.1071854  69.4957657  37.0885162  14.6529312  17.6732769
  36.3598518  14.0462904  17.8046970  37.7736244  14.1204014  17.2692146
  81.6761169  57.5586243  10.1418533  81.2757034  57.2298431  10.9467144
  80.9430389  57.9075890   9.6348524  47.2693176  63.8549461  24.4830055
  46.9536438  64.3813171  23.7484875  47.8438683  63.2032738  24.0812054
  13.5125046  69.8602905  68.0028458  14.3480339  69.4021606  68.0936203
  13.3181429  69.8207092  67.0664215  77.6566315  52.9575996  20.9869061
  77.3098297  52.8445854  21.8718853  77.8632584  52.0695839  20.6954193
  48.9856339  67.2669525   3.5883067  48.6744957  66.3619995   3.5662520
  48.5579567  67.6486511   4.3548756  28.8733273  61.1036873   9.2380648
  27.9937077  60.9848671   9.5963726  29.4587097  60.8361549   9.9465742
  66.6730423  37.0435944  23.3388767  67.3218536  36.6863937  23.9452496
  66.0055618  37.4324989  23.9040813  14.0708084  17.5002670  77.7013702
  13.4912586  17.7539310  78.4197083  14.4183140  18.3283768  77.3701477
  65.7579346  37.6672630  65.2797394  65.1724548  37.3194160  64.6070938
  66.1890335  38.4118690  64.8602829  15.7833128  -0.2735482  81.2688217
  15.9324627   0.1123445  82.1319962  16.3241825   0.2486041  80.6763306
  76.4786301  19.5433311  54.6338272  75.8760071  20.1145458  54.1576042
  77.2679749  20.0720482  54.7505608  44.7277031   8.6264544  83.7891388
  44.9584122   9.4868097  84.1395569  45.4515305   8.0584087  84.0530167
  20.4102840  61.3329697  28.2449207  20.9830112  60.8905334  27.6184521
  20.4543686  62.2569008  27.9986610  45.3364143  63.1796265   6.8995862
  45.7604179  64.0377274   6.9103966  45.8550568  62.6485672   7.5039191
  43.1332970  54.2515640  17.6653309  43.0107040  54.6404572  16.7993259
  42.2984657  53.8239555  17.8562222  77.8193741  43.0647278  85.7762680
  77.5617218  43.4019356  84.9182816  77.9674606  42.1301651  85.6316986
  66.6678772  14.6510592   3.3848417  66.9773407  15.1916533   4.1116304
  66.6641693  13.7597866   3.7339141  19.3183823  61.9204483  74.2441788
  18.6910305  61.6916809  73.5583801  18.8702583  61.7019501  75.0612946
  20.8913631  35.5940399  84.3126984  20.7112846  36.0940361  85.1088181
  21.6956329  35.9791718  83.9647675  77.2251587  45.8338242  86.2226486
  77.9659348  46.3360786  86.5620880  77.5543518  44.9375610  86.1549911
  10.4979458  62.7689171  70.6714630  10.3827305  61.8623619  70.9562683
  10.7679262  62.6998062  69.7557297  60.1167336  40.3154831  79.7885895
  59.6275063  39.7542610  79.1869965  60.7630768  40.7538338  79.2351303
  67.6631241  29.8752403   9.7559662  67.1855545  30.0705357  10.5622072
  67.1144028  29.2360878   9.3014069  73.2568054  61.8125114   2.6210177
  73.0305634  61.5475426   1.7294821  73.5615463  61.0076561   3.0400426
  76.1525803  37.7759552  57.0450020  75.9180298  37.6394348  57.9629211
  75.7435226  38.6101646  56.8147850  54.3713226  48.5787201  37.1720200
  54.8482895  48.7715607  36.3648376  54.9220200  48.9384613  37.8674011
  46.6795731  17.4496441  67.9720383  47.0138512  18.2612915  67.5903091
  46.1438522  17.7357769  68.7118835  48.1684990  43.1606636  17.2800159
  48.3934479  43.0432625  16.3570595  47.5088921  43.8543129  17.2794170
  73.6941605  45.8384018  10.6451511  73.6973038  46.0758591  11.5724239
  74.1005249  44.9721603  10.6183577  69.6466904  59.5780373  35.6313667
  69.1908875  58.7520676  35.4693451  69.8126984  59.5790787  36.5740585
  11.7175751  32.3750610   4.6071949  12.5909357  32.7468300   4.4836588
  11.5741339  32.4096298   5.5529547  77.7714844  52.1211014  45.4048042
  78.2514572  52.2992134  44.5960197  76.8599854  52.0297432  45.1272202
  76.7567368  71.4843597  74.3298569  77.1526108  70.6708984  74.6425781
  76.7271271  71.3859406  73.3781967  23.0293598  13.0908947  33.0097466
  22.6232204  13.9568768  33.0465660  22.7143822  12.7133522  32.1884766
  62.1622124  14.1336422  78.3889999  62.6633987  14.7827873  78.8826141
  61.4796295  14.6412373  77.9500732  73.9385986  20.1720428  85.2956543
  74.8575974  20.3955078  85.4430771  73.4495773  20.8744698  85.7242432
  23.0017948   4.1018806  23.6091900  22.9887924   4.9525027  24.0479431
  23.7035675   4.1766319  22.9625378   4.1804881  43.6932678  80.6139145
   3.2758908  43.8847504  80.3663788   4.2488122  42.7404327  80.5533371
   5.2428808  22.7014408  72.0569153   5.1883550  23.3538074  71.3585739
   4.4003110  22.2481785  72.0275726   3.5545564  10.4286013  14.0558376
   2.6648037  10.5715704  14.3785324   4.0785742  11.0999479  14.4927950
  48.5027275   6.5509663  20.7391472  48.2211723   5.7453508  20.3056221
  47.9087029   7.2230153  20.4049034  50.0680962  22.5220566  28.7538528
  50.5959625  22.1242733  28.0614986  50.3384056  22.0679779  29.5519619
  82.1735382   4.2823310  64.0842667  82.4045944   4.9588957  63.4477882
  82.2618179   3.4599965  63.6023903  42.5187988  36.2195473  57.8565102
  42.9869232  35.4085808  57.6579552  42.2243843  36.5409508  57.0043068
  68.4256287  48.0372963  44.4388161  68.0912628  47.6532288  43.6283035
  69.3775482  47.9813538  44.3554840   9.3549223  28.6774979  68.8107071
   8.7862711  28.4919205  68.0634232  10.1800184  28.2414093  68.5979309
  68.2380447   7.8638573   0.1011142  69.1739273   7.8592687  -0.0997312
  67.9780731   8.7805824   0.0102338  50.9460487  35.2051468  68.2205734
  51.5291824  34.5435410  68.5926819  50.9615593  35.0355682  67.2786407
  55.3220520  42.5000458  15.9066515  54.5422020  42.6341476  16.4452457
  55.8555260  43.2800179  16.0592251  36.2128868  68.9914322  59.4707909
  35.7568893  69.8198090  59.6194267  36.5264397  68.7318268  60.3371201
  68.5460129   0.1272942  75.0098114  68.4176559   0.1754302  75.9571457
  68.5321045   1.0393265  74.7195740  37.3729324  34.5610542  85.1155396
  36.5591965  34.0700836  85.2296295  37.0887375  35.4570808  84.9349823
  86.3460999  69.7947388  53.8135185  85.5987244  70.3837357  53.9171791
  86.3056793  69.2197113  54.5776787  54.2028275  51.5201645  83.7556534
  54.7756424  52.2794724  83.8631897  53.3504868  51.8159370  84.0754471
  28.4707985  62.8736954  57.1984596  27.5180244  62.9646988  57.2115440
  28.7363968  63.0042801  58.1087570  72.8600235  33.2136078  22.3672314
  73.0578995  33.5703850  21.5013275  72.3249817  33.8870850  22.7872181
  17.8581390  66.4865036  52.2449608  17.3074055  65.7089920  52.3366165
  18.7394428  66.1405106  52.1041489  82.1697617   6.2317185  15.0272160
  82.1784515   6.9256182  14.3679285  82.4954300   5.4588714  14.5658255
  23.7718620  31.8042202  28.3213730  23.3575554  31.9105244  29.1776905
  23.7438087  32.6780167  27.9315968  58.1660576   3.1848326  48.4367676
  59.0468941   3.5509951  48.5160103  57.9691620   2.8435760  49.3091240
  13.0162516  42.5911713  12.1078691  13.9117098  42.2530365  12.1007195
  12.7559605  42.5993538  11.1867762  44.6709557   7.4290171  71.3979492
  44.9081841   7.8818974  72.2071762  43.7221222   7.3166823  71.4556580
   3.1096838   1.0607940  33.6062775   2.5570822   0.8007715  34.3433342
   2.5067163   1.4760514  32.9896545  55.4358025  66.5290833  43.3658218
  54.8662186  66.1603851  44.0410042  56.0581093  67.0732269  43.8483849
   5.9101496  50.7209625  40.1254539   6.5399342  50.3296547  40.7308311
   5.7562380  50.0423164  39.4682007  35.3424110   1.9575551  69.6777649
  34.4948120   1.7558266  70.0741425  35.1856194   1.9007869  68.7352066
  67.5214462  63.9625168  31.7207050  67.3183594  64.7894363  31.2834492
  68.2113953  64.1852036  32.3456955  76.8102188  44.5869331  32.5927696
  76.2945786  43.8798065  32.2050591  76.8276520  44.3854599  33.5283623
  40.1156654  59.9427528  77.8395386  40.6006508  59.8367844  78.6579437
  39.2891579  60.3482056  78.1016922  59.6729355  21.9417839  29.7765980
  58.9486122  21.9315243  30.4022846  60.3279114  21.3577175  30.1588345
  56.1612473  48.3159409  45.1271133  55.4989319  47.7300148  44.7607002
  56.1432648  48.1393433  46.0677071  15.5205822  41.1836624  29.6199551
  14.8075705  41.6467476  29.1801834  15.9440632  41.8521042  30.1585503
  39.9984550   9.9306831   6.3748851  39.2308731   9.8486919   6.9408574
  39.7917442   9.3916540   5.6113744  84.5110550  57.0372887  42.9912491
  84.6253052  57.9694786  42.8063126  85.0287094  56.5944977  42.3187904
  60.4863014  19.9621258  23.5174770  60.7056618  19.4584541  24.3013306
  59.5324059  20.0380917  23.5407524  57.8888969  51.3462448  55.7817535
  57.0361938  51.7637405  55.9034996  57.6813431  50.4558334  55.4983521
  85.7933884  47.3550911   9.1294098  86.6183548  47.1856194   9.5843172
  85.7583389  48.3078232   9.0439234   1.8093328  12.6722841  64.5636978
   1.7633724  12.2522745  65.4225998   2.6896281  12.4716806  64.2457809
  50.6592064   8.3407545  62.7875519  50.4736366   8.9801102  62.0997887
  50.6716919   7.4979157  62.3340111  15.6358633  55.4326477  83.5459061
  16.0795193  54.6949539  83.9644852  15.0377293  55.7638245  84.2158203
  56.7061272  21.1656399  17.3370609  57.4516678  20.9721241  17.9053478
  56.9166908  20.7324371  16.5098801  13.2167120  63.1784286  31.1890469
  12.4771347  63.7772636  31.0858154  13.8087358  63.4030037  30.4711990
  42.5246925  22.5111809  83.4721832  42.8838348  21.7778778  83.9716949
  41.5946503  22.3048534  83.3790131  64.8076401  43.4178543  16.2886391
  65.4278259  44.0645752  16.6253166  65.3462982  42.8113289  15.7805033
   5.9698987  24.2430458  23.5797253   5.3071294  24.8397789  23.2320480
   6.6199660  24.8169823  23.9849930  54.9283562  15.0649281  55.9684029
  55.1754456  14.2882404  56.4703331  55.1992302  14.8669395  55.0719337
  57.8795319  56.5438194   5.8656883  57.7384186  57.4629364   6.0927224
  57.0097427  56.2180023   5.6342945  45.8140373  56.0060310  52.4073181
  46.1428986  56.3906822  53.2197990  46.3334351  56.4208183  51.7185440
  16.2088451  41.6775436  56.6883049  15.6391058  42.3930664  56.4060631
  15.7332106  41.2621498  57.4076424  62.9596939  38.5699005  66.5462723
  62.1370735  38.1059647  66.7021332  63.4543190  37.9918747  65.9653549
  20.3501930  50.1809311  48.9083748  21.2242451  50.1813736  48.5181618
  20.1356773  49.2541199  49.0143471  41.8884087  54.2789879   4.8774033
  41.3167839  53.5224686   5.0083785  41.5034828  54.7443085   4.1347442
  24.7299576  61.6610489  19.9827003  25.4801426  61.7084427  20.5753288
  24.0030098  61.3802528  20.5385170  38.0762024  16.3423862   5.8727379
  37.9039421  15.6298933   6.4882975  37.2491531  16.4604797   5.4055390
  12.6078987  18.0763016  80.0307465  13.0305967  17.6011581  80.7461472
  12.0917978  18.7548981  80.4659195  52.3344879  59.0043297  59.8147545
  51.7292938  58.7387428  59.1223412  51.7699661  59.2145844  60.5586243
  32.0536499  56.7395287  13.2336016  31.6463795  57.6037560  13.1746531
  32.7556877  56.7607307  12.5832748  59.6983643  42.1792984  54.5425758
  58.8070297  42.0938721  54.2042656  59.6074371  42.7287941  55.3210487
  18.9797039  12.2622881  22.2718220  19.1174431  11.7844381  21.4539471
  19.0630016  13.1840553  22.0276127  58.2590446  40.4560738  38.4928856
  58.4282646  39.7698402  39.1383934  58.8256798  41.1801949  38.7589874
  56.4713860  36.5862999  86.2985001  56.1019058  36.3242340  87.1417389
  56.2670059  37.5186729  86.2268372  20.3327255  17.5448246  75.5236969
  20.3480854  16.8853149  74.8301239  19.8069096  17.1491699  76.2188263
   5.1117210   4.8168879  36.4534454   4.9664216   3.8958254  36.6696930
   5.7455044   4.7974639  35.7363853  70.3575516  44.9546471  19.9111977
  70.2983322  44.4076347  20.6944618  71.2573166  44.8390007  19.6057644
  68.9629135   4.6569953  84.3513718  69.8655853   4.5282044  84.6426239
  68.6271439   3.7713292  84.2132187  56.6174889  32.1280479  54.2118340
  56.6893120  32.7509575  53.4886055  56.2794838  31.3291492  53.8071785
  62.1538048  52.5884438  54.3829536  62.7141304  53.2775688  54.7398529
  62.6940346  52.1605377  53.7186623   3.1983724  33.0771484  57.3482704
   3.6207201  32.4101486  56.8070068   2.3077023  33.1372147  57.0028305
   1.1137100  63.7752380  73.0642471   0.2959089  64.1738892  72.7667389
   1.5505649  63.4958725  72.2596741  39.9609795  55.0478897  28.5813026
  40.6865349  55.2806129  28.0019588  39.6884003  55.8792419  28.9696121
  58.6619797  54.2920074  25.9176006  58.0310287  53.8368874  25.3599319
  58.1367149  54.9265480  26.4051361  19.1365910  48.9756622   4.7429256
  19.3273201  49.4564972   3.9375355  18.7386703  49.6260376   5.3216352
  63.2287979  35.6869583  18.3514099  63.5275002  35.0021782  17.7530098
  63.7349739  35.5437317  19.1511002  46.4556046   3.0881879  30.3753757
  45.9564285   3.0995080  31.1920300  47.3702087   3.1398287  30.6529770
  24.1346188  50.1299667  63.9962959  24.8445950  50.1228371  64.6382599
  23.3580189  49.8766174  64.4952316  38.2539139  40.6609268  68.1396713
  38.4838753  40.3148880  69.0019913  37.6758041  39.9980736  67.7619781
  11.7793379  45.2281189  56.3782387  11.5703449  46.1587296  56.2975197
  12.0848579  44.9748268  55.5071869  40.6463928  11.6898108  38.1947441
  40.1472969  12.4980450  38.0768776  40.0547523  11.1109104  38.6754379
  69.6811142  46.5921783  75.8192291  70.2989578  46.8028336  75.1191406
  70.2122955  46.1526680  76.4832382  46.8675537   7.4744291  69.2823639
  46.3250198   7.8405180  69.9808350  46.3910751   7.6777425  68.4774704
  58.4794693  20.7800179  81.4398804  58.2707367  20.6671886  82.3672104
  58.0550385  20.0392799  81.0069885  64.8609467  21.4198875  53.4660721
  64.9213181  22.2757683  53.0417442  65.6657486  21.3497963  53.9795036
  63.1144218  70.8541870  18.8509483  62.1630058  70.9336624  18.9196682
  63.2518921  70.0553131  18.3418922  58.9230614  50.0985489  29.8387718
  59.7103500  49.7543373  29.4169617  59.0440407  49.9027290  30.7678852
  50.2762527  57.5857658  86.0780640  49.7545242  58.0959663  85.4586029
  50.0016556  56.6802444  85.9336243  55.7779007  23.9339390  44.1434174
  55.3888168  24.5318375  44.7816658  55.1698456  23.9438744  43.4042282
  26.8976955  68.0481415  13.7565718  27.1943283  68.1819534  12.8563852
  27.1505623  67.1478043  13.9607420   0.9934602   3.3424714  11.6184788
   0.4333096   2.5828965  11.7781954   1.8771510   3.0351219  11.8206139
  86.2836456  40.2161484  54.5604897  86.6156082  40.3603401  53.6743546
  86.3923187  39.2764931  54.7070236  73.2720947  42.0066261  55.1847992
  73.3865128  42.8546333  55.6137772  72.3657532  41.7632141  55.3732834
  75.8596344  53.4958611  13.7614946  74.9458084  53.2115593  13.7434912
  75.9044266  54.1992989  13.1138840  17.3490257  44.1924667   4.9211507
  16.4543056  44.4804268   5.1022239  17.8938675  44.7245483   5.5010376
  46.9704247  56.7478371  67.6356049  47.1221619  57.0348091  66.7351303
  46.9456825  55.7924843  67.5815735   1.5217639  38.1943550  31.0967846
   0.9263474  38.4389343  31.8052273   2.3099828  38.7134476  31.2564278
  23.0758324  67.8582840  57.5806961  22.5719547  67.3101959  58.1823082
  23.7046776  67.2582932  57.1796989  19.9140263  20.0759735   6.9292059
  19.7152367  19.7656479   6.0457969  20.8549461  19.9306030   7.0280590
  20.2275009  56.5690002  68.4363861  19.6138325  57.3001213  68.3649445
  21.0149441  56.8722115  67.9844742  11.2396402  12.6580009  78.2734299
  11.6020365  13.5382605  78.3736496  10.6022997  12.7407045  77.5640717
  35.5736046  51.9835091  31.3028278  35.4506721  51.5879822  30.4398804
  35.4646111  52.9226952  31.1535587  74.1347580  42.2975540   5.0975571
  73.6614151  41.4794273   4.9464183  75.0025558  42.1447678   4.7236381
  70.6715088  71.3718796  63.3361855  70.0937271  70.7600250  63.7922935
  71.5126038  70.9173584  63.2892609  73.6553268  48.8349762  73.5626450
  74.0571976  49.2875175  72.8210678  72.8160324  49.2779999  73.6873322
   1.7045810  20.1765137  11.3135576   2.4193833  20.7385063  11.6126432
   1.8739444  20.0499859  10.3799953  58.3329048   6.4054942   7.4590292
  57.6970253   5.7478075   7.7406917  58.0443268   7.2142324   7.8819890
  39.3859673  67.8417358  53.0239487  39.9666138  67.2387085  52.5597954
  38.6133499  67.9097443  52.4629936  81.0219879  29.2644787  22.1266403
  81.5232849  29.7962685  21.5084705  81.5536804  28.4785557  22.2525768
  26.5628033  38.0160522  45.6560860  27.3201656  38.0609398  46.2397118
  25.8160629  38.2285614  46.2159500  66.3593521  32.0867729  63.7025414
  66.3513947  31.7873077  62.7934265  66.0644379  32.9963036  63.6576996
  26.8511353  31.9396515  30.7740746  26.9461327  32.3915672  29.9356365
  26.3377705  32.5410652  31.3135090  38.5231895  59.0103340  62.1592026
  37.7877731  58.3986626  62.1237717  38.5185738  59.3386154  63.0583344
  12.6370487  56.3444366  34.8094559  13.2786655  57.0140228  35.0465508
  11.9256315  56.4607582  35.4392090  79.6100235   4.3820004  60.6410942
  79.5623932   3.7261579  61.3366776  79.9212418   3.8978117  59.8762856
  62.9581223  11.6659641  32.8034058  62.3737488  11.2305641  32.1827888
  62.6133156  12.5561924  32.8729362  74.3445511  12.0316448  28.5506153
  74.9765320  12.4125986  29.1602898  74.1986847  12.7164173  27.8978958
  46.7535286  30.8273182  16.8132725  46.2006149  30.3665428  16.1822357
  46.5483589  30.4191227  17.6544094  53.2453613  24.8324184  72.5680008
  52.4819069  24.4177246  72.1662521  53.2105789  24.5607510  73.4851837
  60.5209160  58.8854904  80.9191513  60.6467476  59.8339310  80.9483643
  60.4559479  58.6811142  79.9862823  79.2683792  65.5243530  35.6824112
  78.8875046  66.3435287  35.9988289  79.3025513  64.9615860  36.4559479
  77.3115234   1.5792598  47.3519249  77.9129028   2.1131089  46.8327179
  76.9064865   0.9885190  46.7169418  60.3873787  58.1205826  43.2359924
  60.4133339  57.8550377  44.1552544  59.5745583  58.6193504  43.1536217
  70.7166138  30.8493767  25.7948742  71.4451294  31.0478172  25.2065544
  69.9393387  30.8975811  25.2383251  22.7890930  47.0192032  11.7830591
  22.4098167  47.6477356  11.1687908  22.3905220  47.2373123  12.6255560
  82.7915573  14.6067858  47.1203995  83.4725418  14.0714941  46.7130280
  82.7920151  14.3367796  48.0387306  17.4315643  70.8994980  74.8735962
  18.3665447  70.9974670  75.0537262  17.1176834  70.3039017  75.5540237
  52.0471001  28.7444801  78.4938202  51.3838959  29.3241444  78.8684921
  52.6676788  29.3350239  78.0667648  79.0818863   3.9865000  71.3035507
  78.2410049   3.5886519  71.0780106  79.3327484   4.4764862  70.5204773
  33.1114616  67.1605911  60.1505890  33.8548660  66.6094742  60.3952217
  33.1731873  67.2372208  59.1984596  86.2268524  70.1540146  79.2806549
  86.8576126  69.9935455  78.5787888  85.6473846  69.3924026  79.2606735
  23.4906483  45.7633133   7.4892955  22.9181538  45.5387383   8.2228117
  23.0031185  45.4894867   6.7124014  62.8827438  39.8617287  18.4055824
  62.3991051  39.2147026  18.9190826  63.6193542  39.3735352  18.0377445
  20.6070862  52.1907578  25.4512501  21.5223942  52.3549576  25.2243557
  20.6008587  52.1507378  26.4075928  32.0368729  49.9551544   0.5522962
  31.4933434  50.2406082   1.2866819  32.8759537  49.7242699   0.9508773
  83.6405716  45.4070854  23.3180008  84.1229248  44.8954391  22.6685543
  82.8379364  44.9076691  23.4683247  68.8887024   7.1226578  26.5213242
  68.6549225   7.8809757  27.0566120  68.4771347   7.2916942  25.6738167
  48.8383865  44.9139023  20.1939964  48.8334084  44.2854195  19.4720421
  49.5613403  44.6301994  20.7535362  12.5887642  30.3500862   1.1057379
  13.3471956  30.8720379   0.8438623  12.9442959  29.4766884   1.2700744
  53.7249260  12.2478676   6.7073045  54.4250832  12.4862728   6.0997071
  53.4615517  11.3684874   6.4360895   4.3236661  50.2806473  75.5428162
   4.8279829  50.3207245  74.7302322   3.4307384  50.0819588  75.2609711
  23.0998592   7.3419824  12.8719511  22.6976509   8.1836720  12.6574316
  22.4626560   6.6904769  12.5791311  59.0409470  23.2534809   9.6634264
  58.6794281  22.9934807  10.5107365  58.9774284  22.4653683   9.1239138
  23.9503078  32.8465424   7.0366292  23.8824177  31.9002724   7.1638989
  24.5958824  33.1295967   7.6841979  60.6073685  46.7843399  70.5466614
  60.9542313  46.2993355  71.2954483  61.3749886  46.9721603  70.0065536
  47.4092102  27.5376740  15.9897366  48.0673180  27.7203770  16.6603680
  47.3015442  26.5868225  16.0125771  37.3893013  65.8678513  65.7461853
  37.9149132  65.1697083  66.1367798  36.7384415  65.4090576  65.2150269
  36.0302124  44.8174210  35.4804573  36.3142967  44.1224174  34.8867416
  36.3304291  45.6254768  35.0643387  62.7331047  32.5781136  69.6536102
  62.2623138  32.5558891  70.4867325  63.4873428  33.1435890  69.8197250
  34.0008850  40.3695717  84.5692673  33.5587997  41.1060028  84.1468201
  34.2025261  39.7681122  83.8524551   3.0569625  64.8156509   8.5344162
   2.5960445  63.9798813   8.6070242   2.6884432  65.3540421   9.2348166
  56.8604698  44.4774399  56.8752747  57.1986237  44.5859375  55.9863930
  56.0074921  44.0593109  56.7576637   9.5560331  42.7015724  83.9696350
  10.3604660  43.0363464  83.5733414   8.9397058  42.6344261  83.2403412
  37.9376564  34.6332588   5.7307835  37.3849411  34.3796959   6.4700036
  37.4007835  34.4559479   4.9584088  47.0823555  46.5075760  85.2344742
  46.5105400  45.7978020  85.5268402  47.1355705  47.0974503  85.9864426
  47.4088821  36.3768730  69.0708466  47.4366417  37.1390076  68.4923859
  47.6808586  35.6454353  68.5165405  39.1231766  54.5071373  11.4943991
  39.3999023  55.3680763  11.1806488  38.8224983  54.0510483  10.7083921
  35.3949432  61.0675659  46.9827423  36.0572433  61.3667908  46.3598061
  35.4160042  61.7173538  47.6852875  63.1304741  53.0419312   7.4480090
  63.4660950  53.8885307   7.7427287  62.2370682  53.0063324   7.7897625
  37.3680725  65.4389725   1.7266122  37.9722519  66.0556946   1.3132631
  37.9122620  64.9453049   2.3401093  83.8117828  47.7961197  53.5627899
  83.8452301  48.6996803  53.2486382  83.0041122  47.4426727  53.1900063
  27.2128468   4.9311781   2.9134924  27.5069256   4.7391615   3.8039298
  26.4237595   5.4601736   3.0307040  67.2570419   0.5741377  43.7824059
  67.4904175   0.6066204  44.7101479  66.3369675   0.8369612  43.7575340
  85.4516830  56.1755562  27.2016258  84.9177399  56.5571556  26.5048351
  85.6893845  56.9190369  27.7556705   5.5213628  23.9333572  15.5432062
   5.1452885  24.6039524  14.9730282   4.7995448  23.6733379  16.1155701
  81.2980881  32.3534889   9.4020014  81.8089676  31.5485802   9.4877777
  80.7708740  32.3887482  10.2001495  11.7947855  52.8441467  57.7646942
  10.8621826  52.6642380  57.8835068  12.2324696  52.0471611  58.0638275
  48.6007881  35.3509064   3.9321187  48.7145500  35.4045296   2.9832170
  47.9011307  34.7090645   4.0535722  66.6753845  65.1523514  48.5022354
  67.6291428  65.2034225  48.5652008  66.3618317  65.4793777  49.3454208
  28.9527245  26.7405891   8.4368715  29.6995945  26.1638012   8.2764540
  28.6912823  26.5490360   9.3375311   8.9908953  30.8322754  61.7457886
   9.0272532  31.7787819  61.6078186   8.2287273  30.7015648  62.3099213
  62.3246231  43.4278069  35.0136032  61.7734528  42.6888351  34.7559929
  62.6066933  43.2173538  35.9037590  38.7366943  64.3839417  42.0289192
  37.9742279  64.8815384  41.7334900  38.5986900  64.2700195  42.9692421
  66.1845703  60.5865364  28.4101429  66.4365158  59.7442284  28.7886543
  66.8810577  60.7859077  27.7845268  58.8988228  51.0714188  59.1706123
  58.1781235  51.5888176  58.8112717  58.8054199  50.2123184  58.7589607
  20.2069874  40.4784698  55.0810127  19.4573822  40.0234146  54.6972771
  19.8314724  41.0071144  55.7851105   0.3459537   5.9291062  12.3885727
   1.0944722   6.5125337  12.5133286   0.7308542   5.1076488  12.0831356
  68.9791412  65.0369492  65.3418961  69.9179840  65.1634598  65.2047958
  68.8641739  65.1050873  66.2897186  25.9338570  71.1004257   2.5728111
  25.0331306  70.7766647   2.5832002  25.9087563  71.8597031   1.9904900
  82.9920959  44.7687798  36.4227180  83.0994492  43.9587555  36.9212875
  83.6492233  44.7119408  35.7290421  52.2540512   8.0897856  57.3233337
  51.9398003   8.9745693  57.1372261  51.4604568   7.5879183  57.5092621
  63.1544991   7.3302889  56.2179680  63.0979843   6.4149170  55.9438667
  63.2632179   7.2895226  57.1681023  29.1647167  67.4845047  66.3906174
  28.5740108  67.9794846  65.8229141  28.9592667  67.7896652  67.2743073
  36.9816093  39.1477509  24.0591679  37.2590981  39.3887978  24.9429817
  36.0422935  39.3313408  24.0446129   6.7648406  48.1536827  50.0682831
   6.0116258  48.2338867  50.6534882   6.4283028  48.4067764  49.2086792
  56.6774025  19.7524757  71.6825638  56.8424263  19.3874283  70.8132324
  56.9775772  19.0745182  72.2879486  83.8006744  12.1469812  61.5358620
  83.5975494  12.7296839  62.2675934  84.3627548  11.4719400  61.9161415
  68.7277145  44.1499367  74.6923828  68.9746552  45.0240402  74.9943619
  69.4908981  43.6053810  74.8853531  27.0763092  61.0553856  15.4883766
  26.7084255  61.5893173  16.1925144  27.5733795  60.3731918  15.9397783
  19.1726971  33.3520622  88.8924484  18.4917965  32.7379837  89.1672440
  18.8431358  33.7249260  88.0747757  69.9038925  26.8836632  60.4381065
  70.7649231  27.1275730  60.0984497  69.3680878  26.7471046  59.6567650
  12.9846087  49.8275414   7.2776141  12.6089230  48.9637108   7.4475780
  13.2073517  50.1666489   8.1445770  21.4880676  65.2029572  21.1146545
  21.0326691  64.3903198  21.3347950  22.2005367  64.9293137  20.5369511
  14.6039038  15.5356741   5.1309309  15.0788565  15.9218540   5.8668094
  14.0076237  14.9053011   5.5350485  61.9891052  51.4599152  43.8358269
  62.8445282  51.1946602  44.1736450  61.8721352  52.3544540  44.1557541
  59.5860367  44.3420601  10.2613020  60.3632622  43.9326019  10.6414270
  58.9067917  44.2300720  10.9263735   4.7565660  35.0745506  56.0137329
   4.0193019  34.4998779  56.2197075   4.7298813  35.7504654  56.6909790
  44.3176613  11.6783190  23.5340843  44.7616196  12.5176992  23.4133682
  44.0694122  11.4092941  22.6496487  14.8756332  31.4313774  67.0412140
  15.0533056  31.5743408  67.9708557  15.1643400  30.5335579  66.8774948
   2.8387761  52.4666557  77.4593887   1.9932386  52.7150612  77.0857697
   3.2262371  53.2936783  77.7459946  64.0781631   0.3317834  23.5309982
  63.5779648  -0.4207059  23.8468990  63.6853714   0.5418733  22.6837616
  78.9359894  42.8537064  49.9815636  78.2546463  43.2609253  50.5165100
  78.9594040  41.9431953  50.2759285  26.9360943   6.7240429   7.5703120
  26.7850361   6.8728719   8.5037270  27.4858780   7.4582458   7.2966051
  66.4670258  63.2014046  54.2090797  67.0084457  62.7448006  53.5651817
  66.4698944  64.1140289  53.9203796  59.5829582  48.5517426  17.1212349
  58.7626839  49.0413361  17.1818829  59.4976463  47.8593559  17.7766399
  53.7411270   5.4932189  58.2083359  53.5960846   4.8636727  57.5020294
  53.1650467   6.2277279  57.9965439  36.1365433   9.2660303  74.5121689
  35.7831917   8.4161329  74.7749329  35.7172813   9.4502163  73.6716156
  17.9683075  35.6318703  74.1573792  17.3943996  34.9414291  73.8254852
  18.8149605  35.2020149  74.2783508  55.5490913  36.3475342  39.3992538
  55.8723297  36.4532890  38.5045128  54.6438332  36.0549011  39.2938576
  62.0391998   4.4492340  31.8273563  61.2082520   4.9093986  31.7090092
  62.1757469   3.9851630  31.0013866  69.3585434   0.3942142  77.6079254
  69.3196869   0.2558199  78.5542755  70.1114197   0.9715306  77.4810104
  29.3847466   7.6214452  12.8748198  29.1591339   8.4955444  13.1930666
  28.7828941   7.0363240  13.3348618  77.3127823  54.6625404  38.9384499
  77.9366684  55.2067032  38.4579430  77.0573044  53.9831390  38.3144493
  51.4657784  67.6371460  76.8475647  51.9062767  66.7873764  76.8382034
  51.0480804  67.6998749  75.9885941  57.8656921   2.1065342   8.3761501
  57.3266220   2.1568496   9.1655188  58.7112350   2.4693885   8.6400185
  63.9999466  56.3272095  36.4409904  63.7613983  55.4123764  36.5906944
  64.6718979  56.5100632  37.0977097  53.2941246   4.8065085   7.9168057
  52.7855110   4.8821816   7.1094551  54.0681114   5.3485637   7.7639832
  40.8953590  38.5194244  47.1402435  40.2393188  38.6569252  47.8235741
  40.4331970  38.7070541  46.3232765  20.2968884  42.9587288  13.7576685
  20.9999275  42.5382500  14.2528095  19.5041561  42.4938736  14.0254698
   9.4819174  59.6770210   3.4974461   8.9713478  59.4964523   4.2867141
   9.1215572  59.0839500   2.8381753  34.1395912  51.4966164  12.5465403
  34.9886169  51.9127464  12.6956167  33.5028191  52.1191101  12.8976135
  77.7133789  57.4609146   4.8708963  77.8458405  58.3945847   5.0350475
  77.3023071  57.4255371   4.0071831  52.3261032  34.7043953  74.3505707
  52.5509987  35.0110779  73.4721680  52.2102776  35.5054398  74.8615952
  40.0410728  17.4181213  87.9599915  39.3803444  17.5121136  88.6461639
  39.7829056  16.6278896  87.4855270  50.9861526  23.3552227  13.7313461
  50.4205704  24.1165276  13.8608255  50.6907310  22.7231560  14.3866701
  71.6584854  15.5141058  72.7756271  71.7155762  16.3814831  73.1764069
  70.7240829  15.3066835  72.7855988   9.2434206  57.5594978  75.3381271
   8.3241425  57.8081169  75.2414398   9.2156296  56.6492386  75.6329041
   4.6955957  60.2070084  46.8300781   5.5233169  60.6685257  46.9646568
   4.4827037  59.8416634  47.6888161  32.7114563  67.2951202  80.6844482
  33.3714714  67.4719162  80.0141144  32.1708908  66.5991974  80.3106689
  25.7193756  40.5334435  56.6860886  26.5260525  40.6935577  56.1963272
  25.0531673  40.3973160  56.0123940  17.2588711   0.7937956  63.1578178
  17.4974136   1.7191960  63.1033783  17.7871151   0.3700912  62.4813080
  81.7438736  48.7501411  66.4101257  82.4642334  48.9083481  67.0202713
  82.1460114  48.2754021  65.6827011  20.4705067   7.9070716  80.3850784
  19.9363194   8.3166199  81.0656281  20.4769821   8.5436049  79.6702271
  24.3299065  56.2402840  16.3487167  24.8618031  56.7001457  15.6992245
  23.4400406  56.2753868  15.9978065  43.2711258  61.5782356  72.8065643
  42.9680557  62.0771713  72.0479813  42.7780800  60.7587471  72.7667694
   5.7738204  51.8986320  54.3217506   6.0563669  51.6696587  55.2071724
   5.8850484  51.0919037  53.8187065  67.2097321  42.6050301  28.5669575
  68.1634598  42.6582069  28.5052624  67.0413361  41.7357712  28.9306393
  15.9478064  16.5634823  13.3642359  15.9080334  17.2824535  13.9948931
  15.9110613  16.9924660  12.5093355  56.4489098  40.6664238  36.5145340
  55.5569382  40.4074249  36.7459145  56.9472771  40.5590172  37.3246727
  67.7786942  42.6437950  61.8594437  67.4711609  43.1140213  61.0844955
  67.1013870  42.7984390  62.5179024  67.0452194  14.0484085  51.3065720
  66.3203964  14.6703243  51.2427254  66.8047028  13.4740820  52.0335693
   1.1305428  28.5773335   0.9483378   1.5678529  29.3489513   0.5883406
   0.2563656  28.8865070   1.1859459  32.8156204  42.9916344  77.0742416
  33.4116096  43.4849358  77.6378708  32.7821465  43.4960365  76.2614136
  23.3904114   1.7557074  27.5437279  24.2389774   1.6921543  27.1054058
  22.9509430   0.9312361  27.3355274   3.2738364   7.5243149  52.4227791
   3.5799227   7.1341848  51.6040344   3.9651389   8.1391954  52.6682472
  57.9453430  24.7279358  11.8990326  57.6816139  24.4785709  11.0133152
  57.1682053  24.5676842  12.4343920   7.2058358  57.2640877  39.1851463
   7.5883594  57.6208458  39.9867859   6.3030586  57.0535164  39.4236488
  23.2065449   2.7329259  50.6599693  23.4318333   1.8878365  50.2709961
  22.2614174   2.6859405  50.8040466  68.1968231  58.2199440  20.4173241
  68.8908157  58.2119217  19.7581253  67.4485626  58.6180344  19.9725113
  40.0139542  71.2410812  40.5586777  39.3234253  70.8810654  40.0020905
  39.5879936  71.3897629  41.4028816  34.6667061  18.8968391  -0.0504126
  34.7418137  18.0278416   0.3438402  34.2544060  19.4324989   0.6273083
   1.0281045  59.6006126  11.6682415   1.2678922  59.0211029  10.9451227
   1.5827481  60.3718987  11.5510969  21.3285046  26.2254238  74.2948990
  20.9548683  27.0815811  74.0860367  21.2220173  26.1423454  75.2425232
  53.5363922  12.0419493   9.9165850  53.0584831  12.2589130   9.1161089
  53.4896202  11.0875130   9.9722204  23.4065228  49.3202591  30.8891621
  23.1984062  48.7690887  31.6435699  22.6048660  49.3230057  30.3661232
  57.6206017  44.8456268  63.2167854  58.1567154  44.1267128  63.5514183
  56.9540443  44.9809570  63.8902969  20.5027428  56.6897316  78.3977585
  20.3908367  56.0905685  79.1358032  21.3550701  57.0985413  78.5482407
  73.0040054  66.9254227  39.6500587  72.4391708  67.3535919  39.0067368
  73.8628235  66.8900528  39.2288551   0.1129212  25.4792671  29.6974888
   0.8865302  25.6761303  29.1692791  -0.4354959  26.2598763  29.6192493
  13.8772583  36.5437126  54.3934402  13.2172508  35.9265099  54.0777130
  14.6431303  36.0007172  54.5800552  79.0839691  38.3109779  83.6724854
  79.7027740  38.1774330  82.9545135  78.3498611  38.7770805  83.2723923
  64.1299896  29.8769093  78.4382782  64.0580521  29.3055305  79.2028580
  64.9253235  30.3862782  78.5939102  81.6850357  45.8015366  77.0072708
  82.0188980  44.9044495  77.0088806  82.0333252  46.1852722  76.2024918
  69.6285400  31.7739925  69.7953339  69.9138565  32.6865807  69.7504959
  70.3707123  31.3097591  70.1825104  67.1578445   2.5698068  21.4065514
  66.9463577   2.2027073  22.2648888  67.7026062   1.9029648  20.9884796
  63.9891815  36.2602043  51.2243385  63.0724945  36.0740776  51.0211792
  63.9840889  37.1596565  51.5517464  30.5922909  46.1392670  26.8044567
  30.8214588  46.3420372  27.7114296  30.9123898  46.8892288  26.3031330
  69.1786880   7.8814173  47.5480423  69.6620560   8.6955843  47.4076195
  69.8570786   7.2227259  47.6968231  48.8179131  49.7858696  76.5434113
  49.5210190  50.4274521  76.4421921  48.0602188  50.1925583  76.1230087
  61.7728539  47.1606407  40.5634880  62.1020050  47.3335266  41.4455299
  62.0246925  47.9335480  40.0580940  64.5329819  21.5366249  78.8889999
  63.6826553  21.8971863  78.6376495  64.8574142  22.1350365  79.5619659
  79.1125641  42.4997025  80.6344376  80.0323486  42.7086258  80.4713821
  78.6354218  42.9687920  79.9499512  52.6857567   9.9401417   6.0104513
  52.5495110   9.4745169   5.1853075  52.1137619   9.4936399   6.6347017
  54.8308830  18.6920223  47.2755814  54.8878136  17.9249821  47.8453560
  55.1116486  18.3742886  46.4174194   2.7939851  58.0595245  88.0762405
   3.4656377  57.4520645  87.7662277   1.9727293  57.7001648  87.7406311
  37.7891617  61.4258614  54.8471642  38.0102844  62.2698708  55.2408485
  37.2537270  60.9863739  55.5077629  40.6862335  26.1958237  44.8676224
  41.5260429  26.4489326  45.2508812  40.7066078  25.2389030  44.8567581
  11.5703468  47.0489845  85.2319717  12.3314323  47.4951859  85.6033020
  11.2053890  47.6767159  84.6082840  60.4930916  25.7174587  78.4504089
  60.7440376  26.3945961  77.8221207  61.0111618  24.9530506  78.1983871
  66.4389267   3.8749113  17.9446793  66.7250366   4.5876212  17.3733463
  66.2047729   4.3060846  18.7665615  52.0176811  41.0777931  12.2601929
  51.8209114  40.7592888  13.1411400  52.7901955  40.5799904  11.9925213
   3.4200740   3.4559886  65.3492813   2.9347684   3.1169291  66.1014404
   4.3320513   3.2285299  65.5303650  83.2159576  29.5711231   0.8640437
  82.4795532  30.1819401   0.8350297  83.8135834  29.8840370   0.1849580
  62.1686668  68.5420303  77.0991974  61.2974815  68.9004440  76.9294662
  62.3930779  68.0685043  76.2981720  81.5300446  16.3113117  45.5543327
  81.8799133  15.5944519  46.0834198  82.1548233  16.4053421  44.8352737
  80.0507278  37.2774086  65.3018646  79.5732574  36.5386696  64.9243469
  80.5652313  37.6269989  64.5743332   2.1167471  33.0359077  33.3326035
   2.0537212  33.9902611  33.3709068   1.9557043  32.8219337  32.4136276
  78.2281723  10.4500303  40.7075157  78.4437866  11.3203468  41.0426140
  78.1321335  10.5739737  39.7632446  14.4207687  35.1421051   4.6588845
  14.4667101  34.2336998   4.3606873  15.0610886  35.6044044   4.1180487
  82.1176605  64.8972626  53.9978561  82.4092789  64.4107285  54.7688789
  82.7692108  65.5903625  53.8914413  42.5880547  68.0277176  65.4590454
  43.3895645  68.1990967  64.9646301  42.8920631  67.6527863  66.2856216
  64.9120331  37.8721809  25.4391327  64.5845184  38.7414932  25.2083454
  65.0851288  37.9232330  26.3791656  27.9361858  59.7038994  42.9290848
  28.5816097  59.4543457  42.2677345  27.3070717  58.9824944  42.9339867
  45.1986275  67.6337891   3.6526947  45.4827499  67.2631302   4.4882312
  45.5248604  67.0196533   2.9949355  34.7102890  23.8061275  10.9998817
  34.3390579  23.8672581  11.8800430  34.5181503  24.6540585  10.5994740
  31.1763325  64.4163513  64.5478897  31.1262131  65.1836777  63.9778671
  30.4261513  64.5052567  65.1357269  83.3282242  22.7890778   1.0051302
  83.0507050  22.0400066   0.4777694  82.6625595  23.4571133   0.8412715
  55.7826424  46.6833038  71.4646835  56.0492821  46.2903595  72.2957840
  56.5909386  47.0435486  71.0998306  82.4697342  50.5351868  59.5347672
  83.0806503  49.7986488  59.5577812  82.2527924  50.6952171  60.4532204
  19.6367893  47.9961357  31.6671581  18.8553829  48.5240402  31.8313274
  19.7269440  47.9916420  30.7142239   1.8350196   5.8757682  56.9447823
   2.0210750   5.8280602  56.0070534   1.3018615   6.6646018  57.0433502
  67.9044113  38.4812546  11.5704451  67.5656738  37.8227425  10.9639387
  67.2644958  38.5032616  12.2819557  10.4660101   4.5605359  71.7427979
  11.2446642   4.4991293  72.2961197  10.1478376   3.6602166  71.6762924
  20.4388943  55.2725372  47.7692146  19.8425102  55.4150162  47.0341911
  20.1951561  54.4127922  48.1122322  16.8377743  36.8296928  70.7740707
  17.6734676  37.2033234  70.4943466  16.4559269  37.4970360  71.3442307
  44.2998466  61.3351097  88.3216324  44.9212074  60.6294479  88.1422348
  43.4481239  60.9000626  88.3608093  50.7864914  35.4491844   0.8987628
  50.2291298  34.7382965   1.2153352  50.3547592  36.2466393   1.2052020
  73.2792206  34.9247131  26.8174706  74.1563644  35.0460930  26.4539986
  73.3246994  35.3175316  27.6891670  52.6937103  44.4115715  48.3098450
  53.3660583  44.7551956  47.7215424  51.9315987  44.2728767  47.7475471
  47.5654182  58.4658852  69.6164246  47.1338310  57.9167519  68.9618912
  47.4648972  57.9839363  70.4373093  22.2871971  57.3451920  52.3788528
  23.0905075  57.7771149  52.0883942  21.9850502  56.8600121  51.6110420
  56.2755051  29.4756107  87.4303894  55.9563751  30.3676662  87.5668716
  57.1052895  29.5864677  86.9662781  64.6211777  71.0335083  27.6335354
  64.3210220  70.1812439  27.9494381  64.5829239  70.9624481  26.6797447
  81.1995163  68.2403412  37.5176048  81.4544449  68.1165314  38.4318924
  80.2602310  68.4211655  37.5532341  74.4926529  40.2789650  24.9992981
  75.1401596  40.5821381  24.3628597  74.1304398  41.0820580  25.3735676
  43.3734322  56.7188988  47.2817802  43.7087288  57.1253967  46.4826775
  42.6828079  57.3107910  47.5799904  63.6526489  23.2167187  55.5967789
  64.2203522  23.0552444  54.8432045  63.7651482  22.4445915  56.1512108
   3.5759571  68.7753448  64.6015854   3.5394471  68.4636230  63.6973000
   2.6638699  68.9543839  64.8302231  83.9630203  11.6493063  73.0630417
  83.1169434  12.0739861  72.9215088  84.2146988  11.9064903  73.9500351
  46.2520332  70.3797455  79.2878952  46.1548538  70.0410461  78.3979111
  46.0319061  71.3085175  79.2160797  68.0902710  11.6499386  83.6535492
  68.4624329  11.8598976  82.7970200  68.8407974  11.6512871  84.2476425
  18.8005047  68.3761520   6.0244298  18.3791485  67.5392380   5.8288355
  18.1872959  69.0349655   5.6985826  72.4898148   1.6398726  10.2941532
  73.3282547   1.5028120  10.7351322  72.7062302   2.1711962   9.5279341
  47.5994530   7.1660757   2.1534019  47.9906158   7.1078744   3.0250881
  47.5866547   8.1031780   1.9587057  78.7897720  47.4564323  56.7757530
  78.2373962  47.2350616  57.5254898  79.6209412  47.0156898  56.9522057
  81.8775177  34.3113594  13.1758699  82.6503220  34.8356247  12.9657440
  82.1756516  33.4048119  13.1015530  20.0827293   0.8223423  57.8372688
  20.3703728   1.6373543  57.4258690  19.1268730   0.8707030  57.8220291
  56.3138275  31.5194645  60.2459068  55.7095528  30.8451900  60.5564499
  56.7659569  31.1136227  59.5062447  78.5692062  67.6085892  31.4697571
  77.9602127  67.3622894  32.1659584  78.2607956  68.4650040  31.1736546
  63.3334846  37.4663277  58.8538017  63.1110573  38.2115364  58.2957497
  62.6980553  37.5043411  59.5686531  72.4521027   8.6126451  12.9282417
  72.8132248   9.2400331  12.3019762  72.8534775   7.7772756  12.6888933
   1.0924387  62.9535408   9.0535774   0.4186308  63.5944786   9.2803183
   1.2419628  62.4663887   9.8638601  31.7920284  53.4839783  47.5256310
  30.9924564  53.8304367  47.9217148  31.8601875  53.9390945  46.6863136
  65.7984848  45.4305153  87.9246140  66.6346817  45.8147545  88.1879730
  65.6070786  44.7844353  88.6044464  62.0929489  66.0622330  31.3564301
  62.4294281  66.9136581  31.6358700  61.2611389  65.9692764  31.8208504
  45.1562996  28.3145981  29.2625008  45.6365280  29.0269451  28.8403931
  44.3631020  28.2154846  28.7359619  75.2456436  41.0428047  44.0562363
  74.5963593  41.6377106  44.4314003  75.2221680  40.2731972  44.6249123
  13.1039867   4.4246044   5.5740857  12.5603914   4.2147050   4.8146920
  12.7826290   5.2760720   5.8706732  13.8318176   3.5830731  21.0253830
  14.3365345   3.6922767  21.8313408  13.3083220   4.3818083  20.9605312
  85.6057281  28.1306267  17.9135056  85.8077698  27.1988640  17.9985123
  86.1100540  28.4165497  17.1518402  82.6269379  50.7632980  73.3426514
  82.2647095  51.1065063  74.1595001  82.5367661  49.8135834  73.4210358
  13.3924952  30.5706062  12.0814753  13.0937691  29.6835766  11.8810482
  14.1753225  30.4442883  12.6176243  76.1474380  38.2591133  71.9967957
  75.9091949  39.0889931  72.4100418  76.9875031  38.0269508  72.3925552
  25.9892521  35.3303833   9.6794739  25.2453575  35.0877228  10.2308083
  26.5746536  35.8107643  10.2649403   2.3942845  35.1664467  62.3409767
   2.4839375  35.5906258  63.1943588   2.6297047  34.2526932  62.5017815
  77.9862671  19.2584152  31.1141376  77.4878769  20.0629120  30.9705315
  78.1639557  18.9264336  30.2341118  35.0585480  30.6576862  72.5635681
  35.0664711  31.4247093  73.1361465  35.9590187  30.5858078  72.2469940
  81.4492722  10.0961685  82.0955353  81.5089264   9.4140339  81.4266815
  81.3158951   9.6180763  82.9139938  38.8713264  36.7060394  57.6341553
  39.6662903  36.1991692  57.7995224  39.0413055  37.1547241  56.8058929
  68.7690659   1.2032943  33.5320435  67.8521957   1.3893594  33.3296318
  69.2644882   1.7316304  32.9062233  81.0904617  32.8971291   5.0803065
  81.6598358  33.2980843   5.7370186  81.3576126  33.2995148   4.2539001
  34.2259789  52.6877327  58.1952362  34.6641769  53.0432816  58.9684143
  34.1482506  53.4332581  57.5999374  83.5138016  48.4634590   2.9851851
  84.1630554  48.2354240   3.6505389  83.7973404  47.9915047   2.2021818
  32.5434532  58.9753418  70.4179764  32.4223633  59.8552780  70.7747421
  32.9904633  58.4940262  71.1142197  61.1897697  33.0657043  65.3317947
  61.4661827  32.3536377  65.9086685  62.0058327  33.4908905  65.0681839
  10.6748133  39.9188194  10.3967695  10.9089527  40.2584648   9.5330267
  11.4921465  39.9455070  10.8942490  76.5615234  63.3585281  13.4954357
  76.6460037  63.6774788  14.3939695  75.7113266  63.6874046  13.2034817
  71.0268555  39.7691193  50.9740715  70.6491165  39.9461403  51.8355865
  71.0402298  38.8141556  50.9100418  84.1623230  58.0236588   3.2867749
  83.7408371  57.2383728   3.6359324  83.4508514  58.6577415   3.1974332
  26.1713619  28.8102551  79.0096512  26.6853981  29.6175232  78.9918976
  26.6481380  28.2100620  78.4363403  13.6375351  51.1006203  58.8772163
  13.4302511  50.6831779  59.7132797  13.5183344  50.4078369  58.2275429
  53.7769966  68.9417343  22.4080696  53.3078957  68.5882339  23.1638565
  53.8144989  69.8845596  22.5689888  73.7588501  56.4398689  10.3274841
  73.1095810  55.7371559  10.3572474  74.2417755  56.3547363  11.1495314
  62.4172287  42.5009537  64.7559967  61.7875481  42.8655777  65.3779144
  61.9015503  41.9012909  64.2168198  65.4325790  15.9004669  36.0335732
  64.6170731  15.3993988  36.0230827  66.1136703  15.2462492  36.1896248
  51.5731201  18.6084728  34.8149261  52.0009460  17.8909988  34.3475571
  51.0459824  19.0482178  34.1478577  70.8621521   7.3997779  72.5415039
  71.5989838   6.8577714  72.2594833  70.1250076   7.0963817  72.0115967
  38.9240952  37.0248375  14.9227610  39.3725777  37.8694344  14.9645815
  38.0156403  37.2245979  15.1486750  73.7545319  67.9318619   0.4991094
  74.6778870  67.7161713   0.6299825  73.7670441  68.7845764   0.0644218
  21.7539616  36.7214127  77.6306076  21.1889172  36.6801529  76.8590775
  21.2058620  36.3997116  78.3463745  84.3407364  19.6887341  19.7928619
  83.5324554  19.5917110  19.2893696  85.0181656  19.3078327  19.2340870
  67.8890686  10.1740475  43.5409355  68.2346115  10.7873430  44.1895523
  67.0642242   9.8670139  43.9172211   2.6568747  47.3119164  47.4974899
   2.3531110  46.8831787  46.6973991   3.2150373  46.6600304  47.9214401
  76.8962631  23.6319027  88.6261292  76.5524597  24.2112751  89.3060989
  77.2080078  24.2242393  87.9418869   0.3126524  33.5788345  44.0180283
   1.0985669  33.0519638  43.8731995   0.0362067  33.8428383  43.1404686
  86.0457535  44.7438393  47.1188698  85.5628128  43.9518166  46.8828735
  86.1979904  45.1888771  46.2852058  85.3968048  54.7689781  44.5034256
  85.4804459  55.6943703  44.2734680  85.2362289  54.7702408  45.4470596
  42.1746521  16.9516201   1.6357454  42.0262680  17.8922272   1.7330710
  42.9727936  16.8880672   1.1111901  29.4174423  29.8836117  80.7174530
  29.1362514  30.1164017  79.8325958  28.6898556  30.1522331  81.2784271
  56.3652916  25.8917637  29.5417480  57.2252655  25.6551971  29.8891830
  56.4567909  26.8076401  29.2790165  70.5998993  61.9254227  20.3447475
  70.9261093  62.7870140  20.6045208  71.0264359  61.7507820  19.5058193
  27.8603897  35.4079475  31.7399807  27.0897427  34.8943138  31.9818878
  27.9222984  36.0807495  32.4180183  67.8967209  29.2788067  24.4612427
  68.1106644  30.1591187  24.1521931  68.7207642  28.9414024  24.8124428
  23.6572914  49.2127113  18.6042881  24.4193764  49.7861748  18.6855354
  23.9830475  48.4470673  18.1311073  29.9467030  70.6138000  50.7788048
  30.5893993  70.2384491  50.1769028  29.7089748  71.4522705  50.3829765
  65.3150101  40.3011589  88.5801849  64.3984528  40.4146881  88.8317184
  65.4638748  40.9682808  87.9100952  80.9155579  29.6070385  50.7630920
  81.4577713  29.5909824  51.5517464  80.4957809  28.7470207  50.7434883
  63.1350937  21.5770187  58.8774643  62.5490227  20.8671360  59.1397934
  63.5009804  21.2888699  58.0412064  79.6034851  31.2610397  73.4907303
  79.0171356  30.9260674  72.8123322  79.3838272  32.1901321  73.5597687
  23.0087128  13.3795376  68.8459702  22.6561928  12.6180925  69.3065872
  22.2763481  13.9944649  68.8042908  49.8161888  41.9283752  62.6983643
  49.0462227  41.5313721  62.2912140  49.6594048  41.8452835  63.6389732
   2.6936734  45.2342529  62.4598465   1.8290330  45.4027786  62.8343163
   2.8137791  45.9288979  61.8123283  81.5984116   2.6891162  50.5037460
  82.2834396   2.7853618  51.1653442  81.4860077   1.7430516  50.4112396
  79.2417755  62.2798653  60.8809280  79.4959717  62.0698776  59.9823036
  78.9620361  63.1945000  60.8431931  49.5825424   7.9559183  69.0656433
  48.6709747   7.7791581  69.2980957  49.5279846   8.5156765  68.2910919
  73.1736069  32.0997810  76.9094925  73.7716064  32.7631569  76.5651703
  72.6505890  32.5646591  77.5626221  42.1341667   8.6152105  11.7461872
  42.6413651   7.8078699  11.8309479  42.2906532   9.0835772  12.5661736
  50.2417183  54.8333817  49.3368988  49.6035843  54.3175278  49.8297653
  50.4285698  55.5845985  49.8999214  49.8568916  62.7875481  45.5751610
  49.3784828  62.7451782  44.7471733  49.8863678  61.8811340  45.8814011
  72.5169296  19.8137455  12.8731585  72.6446609  20.4234905  13.5998831
  72.0420914  20.3214703  12.2151470  33.5611801  63.4325981   8.7559814
  34.3151970  63.4335136   8.1663294  32.8479652  63.0676231   8.2322006
  28.7105141  40.9895172  86.2235565  28.0534992  41.5757217  86.5989609
  28.4163208  40.1120911  86.4681091  21.2350750   4.6296968  64.1660233
  22.1463737   4.7300329  64.4411545  20.8061581   5.4331946  64.4603958
  65.2164154  69.9810410  70.6918716  64.9961929  69.0943298  70.9773178
  65.9612961  69.8647385  70.1020813  50.7697525   8.9434719  12.8523598
  51.1320457   9.8287601  12.8875875  51.0917358   8.5210505  13.6486759
  13.4148579  68.4003601  77.1396255  14.1266966  68.4081650  77.7795105
  13.7838202  68.8259811  76.3657074   1.6884553  44.4375687  37.6178474
   0.8184382  44.1597252  37.9043846   2.0253468  44.9591103  38.3463593
  41.5762444  63.3954506   8.8995466  42.1109085  64.0958481   8.5256338
  40.7736435  63.4023743   8.3780003  85.7032547  30.5506611  21.5834942
  86.0801544  29.6820354  21.4432602  85.2919617  30.7710590  20.7477360
  52.9326515   0.2449967  22.3970795  52.0006714   0.4624926  22.3785954
  53.1179924   0.0633914  23.3184376  80.6851273  70.2930679  67.5460510
  81.2773666  70.9040756  67.1076965  81.1051025  69.4387970  67.4457169
  20.8275623   8.1541615  16.8234539  21.2951450   7.4828811  17.3204250
  20.9230423   8.9497890  17.3469944  36.0802956  14.4676781  12.2758455
  35.3131523  14.7881765  11.8015022  36.3466072  15.2042227  12.8261290
  33.4250908   6.1660829  88.3339920  32.4932671   5.9628973  88.2524567
  33.8513565   5.3118205  88.4030228   6.7843847  61.8167839  12.1864080
   6.0271358  61.2327728  12.2280836   6.4709153  62.6421814  12.5561161
  13.8064098   0.7430026  22.6511040  13.5651312   1.4653374  22.0712357
  13.8487768   1.1386412  23.5216827  13.4439240  45.1932526  66.0644684
  14.2388983  44.7373047  65.7881393  13.0703526  44.6326218  66.7444458
   6.1664810  31.1354027  12.3737965   6.5037971  30.4903030  12.9953241
   6.9388456  31.4292526  11.8907461  20.1049366  43.3129272  77.9167404
  19.7447033  42.5088158  78.2907333  20.5841084  43.0224342  77.1406937
  81.3670654   6.9006195  19.6558514  81.0224838   7.7822080  19.7983036
  81.7823868   6.6686835  20.4864826  54.1439934  54.5269928  46.5940170
  54.9271698  54.9986191  46.8776283  53.4152756  55.0505295  46.9273567
  11.7827330  29.7448597  56.9660339  10.8374300  29.7182140  56.8179703
  12.1072206  30.3806839  56.3283310  72.7634354  19.7906590  49.9915810
  72.2568207  19.3448238  50.6704063  72.3180161  20.6294785  49.8723450
  36.2292671  47.6002312  86.1107330  35.6955910  47.6161613  86.9051971
  35.8100090  46.9443817  85.5536728  17.5943394  60.5786896  69.6838226
  17.4292889  59.6585617  69.8896255  18.5267944  60.7005424  69.8624496
  10.6179962  69.0828781  62.5159187  10.7049541  69.6934586  63.2479477
   9.6774015  69.0506439  62.3413506  46.4312096   2.7645822  54.6714134
  46.3985558   3.4062033  53.9618454  45.8783722   3.1381469  55.3577461
  55.3640862  57.6091652  15.3015985  54.5076981  57.6348419  15.7284155
  55.3547516  56.7973366  14.7945633  43.8852196  57.6469231  67.6372833
  43.8685265  56.8799057  68.2096786  44.7873421  57.6895027  67.3201218
  51.2323036  45.5855103  53.0023613  50.8290100  46.3935471  52.6850891
  51.8836823  45.8773155  53.6401596  38.6406212  39.4214516  40.5115280
  37.9589882  40.0257835  40.8054504  38.7895660  39.6556320  39.5954437
   1.7349190  31.0822372  37.0489120   1.9447032  30.2553577  37.4830666
   2.5751531  31.3982143  36.7166519  70.8250275   8.0891619  35.9997787
  71.3061371   8.5957756  35.3454819  71.1895447   8.3731108  36.8380699
  39.8163719  68.1360321  39.9575081  40.0763817  68.7743378  39.2932854
  39.0090256  68.4919510  40.3286552  57.3248215  20.0910702  14.6420336
  57.4975471  20.1795406  13.7047129  56.4383392  19.7331104  14.6894808
  37.9354515  58.2050858  14.7636929  37.5426369  59.0231285  15.0682201
  37.8824158  57.6184807  15.5182209  37.2866974  64.2883606  18.7857761
  37.7735634  63.4741516  18.9132576  37.0719032  64.2954559  17.8530121
  44.3767738  43.1753693  10.1225529  43.5466347  42.9740906  10.5545111
  44.1295433  43.7003441   9.3612986  65.9866791  31.8043118  84.7046432
  65.9072647  32.6344681  85.1744995  65.1244965  31.3973732  84.7899780
  71.2810287  68.3475494  35.0297852  71.7194138  68.2738800  35.8775024
  71.2747192  69.2865677  34.8442078  24.0675068   1.6775314   6.3648877
  23.9094353   1.7417622   7.3067575  23.2411003   1.3557129   6.0047283
  79.4170074  49.5997810  26.7457676  79.8058701  50.3608055  27.1768856
  79.2382812  49.8955307  25.8531208  28.9177113   7.9605770  68.2494736
  28.4068890   7.5211372  67.5696259  29.3447952   7.2486801  68.7259521
  57.1511955  13.5805464  80.6677933  56.7100487  13.9225798  79.8902054
  56.9471474  14.2130861  81.3566284  81.2917709  66.5889130  76.2523193
  82.0985489  67.1010742  76.3074265  80.8055725  66.8220749  77.0431900
  70.9431000  27.5376453  73.8890686  70.3823547  26.8726063  74.2884750
  71.7849121  27.4398289  74.3340530  48.3840027   9.6628647   1.2499299
  48.0186043  10.3398628   0.6803772  48.9244957  10.1434422   1.8769418
  49.0632973   9.9705248  85.9239883  49.1345978   9.0328350  86.1025467
  48.6263466  10.3289137  86.6965561  59.6454811  35.3323402  41.9671402
  60.3350067  35.7866974  41.4830475  59.9828606  34.4447937  42.0882492
  82.6916962  30.5940933  20.0929317  83.0270844  30.8294983  19.2278709
  83.1575089  29.7891636  20.3195114  75.4068527  43.8192139  88.9349823
  76.0496140  44.2700958  88.3874512  74.9258270  43.2579651  88.3268356
  75.4922180  32.8306084  64.3559875  74.6123123  32.6616783  64.6928177
  75.4524384  33.7262497  64.0206223  55.9812813  37.9764671  13.4080496
  55.3840332  38.5507507  12.9287510  56.8436966  38.1655579  13.0382948
   1.9660888  25.6979256  34.2535973   2.3917298  25.6943989  33.3962479
   1.1586609  25.2009106  34.1221924  54.7180519  43.9288979  37.7252808
  54.2147827  43.1518288  37.9684143  54.3726501  44.6232033  38.2864151
  66.2963791  36.1373405  88.2509766  66.5500259  36.9594116  88.6706085
  66.0077057  36.3945122  87.3753281  68.1201324  67.4379578  50.9007568
  68.9330063  66.9508438  50.7658844  68.0678253  67.5588074  51.8488541
  14.0674286  18.9308186  55.9646835  14.4474545  19.5028973  56.6314201
  13.4372988  19.4851418  55.5043640  85.4543152  33.0487061  22.5355186
  85.5530853  32.1483574  22.2259235  84.5089188  33.1688080  22.6251602
  50.7120132  63.9153252  14.6180286  49.8176079  64.2418976  14.5199356
  50.6058350  62.9962807  14.8636217  58.3530617  49.7917938  61.5729904
  58.2964096  50.4598656  60.8898315  59.2734680  49.7954407  61.8358154
  21.0282269   5.0029502  50.7916908  21.2272453   5.4624076  49.9758949
  21.0602398   4.0752549  50.5580482  23.5509644  49.2352982  59.7020111
  22.7475414  48.7199440  59.7738037  23.4191418  49.9692726  60.3021240
  25.7167130  67.6632690  85.4660568  25.5202522  67.7893753  84.5377579
  26.2938080  68.3933411  85.6900711  31.9411983   2.5819809   4.4711685
  31.0955524   2.6692362   4.9110541  32.0917778   3.4377780   4.0697103
  30.6025810   8.7698059   0.5589372  31.3466282   8.7187510   1.1589550
  30.6799107   9.6339064   0.1544834  84.9803619  20.2476749  62.3398323
  85.6083374  20.5815525  62.9804649  84.1801758  20.7457352  62.5067673
  21.7202606  20.5930634  84.7794647  21.6198692  21.4543724  84.3741302
  21.8921585  20.0019684  84.0464630  37.8163757  68.2644424  22.7323208
  37.2867050  68.2587814  21.9350433  37.4693413  67.5419312  23.2555561
  82.3150940  43.1283493  77.0669022  83.2129669  42.8692551  76.8596954
  81.7924423  42.3472939  76.8852081  41.2633324  30.9912434  57.2130432
  41.6926956  30.1910782  56.9103622  40.8314590  31.3408527  56.4336281
  79.1530991  69.4055862  78.2168808  78.2504272  69.1119614  78.0935593
  79.2340317  70.1745453  77.6526184  32.4474449  12.6854820  -0.0724001
  32.2800751  12.4584293   0.8422943  32.1796570  13.6016178  -0.1446308
  80.9914398  70.0061111  80.0109634  80.3337250  69.9035187  79.3231201
  81.4248047  70.8346863  79.8062897   8.9590044  70.3063126  14.2621517
   9.5216351  69.7211761  14.7693920   8.8897390  71.0962601  14.7982655
  36.6880493  42.7076416  68.2204895  37.0495338  43.2150955  67.4938202
  37.3581161  42.0511284  68.4108505  72.5766983  27.0533123   2.1470029
  71.7025528  26.8644619   2.4882295  73.1664047  26.5467949   2.7054999
  65.9941864  70.0844040   2.6488492  65.0916290  70.0757294   2.9675305
  66.2799377  69.1731720   2.7139409  19.6489773  59.8863564  49.0368843
  18.7769184  59.6795425  48.7007675  19.5209522  60.0051918  49.9780121
   4.8953924   9.5165033  53.3491135   4.0594730   9.9821749  53.3242073
   5.5412478  10.1690693  53.0784454  83.5936661  14.1069822  59.1932678
  83.7283783  13.5545187  59.9632492  83.1814423  14.8997707  59.5364723
  74.0655670  35.2131615  29.6254654  74.2303009  36.1002045  29.3057098
  74.8271713  34.7096329  29.3379765  17.3536339  69.4305573  77.4204025
  16.9913654  68.5456467  77.3765717  16.6288586  69.9707489  77.7352524
  27.6315575  44.7034187  48.9236870  27.2555027  45.5817032  48.8651619
  27.3559780  44.2705498  48.1156578  57.6127548  59.8516769  52.0291595
  57.5749283  59.2252922  51.3063583  58.3957443  59.6033440  52.5205765
  19.1690559  59.0132751  76.6878357  18.7949619  58.6396217  77.4857483
  18.4098263  59.2787857  76.1688843  80.0741119  28.1491909  26.8544083
  79.6804581  28.8835526  26.3832626  80.7125931  28.5553436  27.4405994
  60.5239182  29.0969257  37.6755066  60.6384087  29.2541866  38.6127319
  60.0886765  28.2457905  37.6268768  17.2825737  56.7024117  42.5047836
  16.8272820  56.0831223  41.9343262  16.6610603  57.4207458  42.6228943
  82.2520523  -0.1369305  16.2401943  83.0516815   0.1041277  16.7078686
  81.5430450   0.1214136  16.8290844  38.2467003  32.9782219  31.1962585
  37.3269768  33.1466026  30.9913368  38.4796295  33.6582413  31.8283558
  86.2514191  47.1410408  83.4039917  86.6016006  47.5305099  84.2051849
  85.4184113  47.5910492  83.2631683  68.6453934  69.1278915  67.7129211
  68.6761856  68.8749313  68.6355743  68.8982315  70.0510864  67.7091064
  30.5975075  54.9839630  32.8610382  29.9710331  54.3949127  33.2814903
  30.8389149  55.6061821  33.5471840  66.7099457  61.5723190   3.1208644
  67.4105759  62.0707550   3.5414732  66.7668457  61.8127441   2.1960993
  66.2091141  15.8703804  28.0456333  65.9524384  15.4389315  28.8606186
  67.1518402  16.0099545  28.1351242   2.9238818  46.7165298  44.7644348
   3.0605888  45.7837105  44.9299545   2.5543091  46.7515869  43.8821526
  27.7679558  23.1722317   5.6637325  28.6796627  23.3481960   5.8962379
  27.5716877  22.3338318   6.0818176  49.7098732  36.4213600  16.7842808
  48.7910309  36.1551018  16.7515125  49.7437477  37.0801582  17.4778709
  51.5998497  21.3378887  76.9671707  51.9230232  20.4735031  76.7129440
  50.9930496  21.5818195  76.2682266  57.0346909  37.1259003  25.0630016
  57.1552505  36.1984558  25.2668247  57.4097023  37.5867729  25.8134632
   5.6300902  45.0235863  34.8673515   5.6372986  45.3710365  33.9754677
   4.7020617  44.9675102  35.0950584  82.3606033   7.8597345  54.2424088
  81.4374313   8.1126156  54.2492676  82.8350067   8.6815977  54.3677635
  58.5730972  51.9440651  86.2461777  58.4752541  52.0748978  85.3030243
  58.4545860  52.8161583  86.6225281  85.7099915  47.6375656  34.4531174
  84.8531723  47.5631256  34.0329399  85.5903320  47.2362328  35.3138428
  79.0172043  71.0348053  20.5120640  78.1123123  71.3173676  20.6445637
  79.0212250  70.1138992  20.7731342  35.9115982  27.6150990   0.7738082
  34.9662285  27.7079430   0.6559584  36.2231522  27.2609043  -0.0590865
  12.0212822  22.7665482  84.9207230  11.6244907  22.9094391  84.0614319
  12.3466043  23.6284351  85.1806259  32.1148834  15.3909082  88.6672745
  31.3938465  15.8172045  89.1305389  31.9870796  15.6335430  87.7501984
  18.3589954   3.8600087   0.2819702  17.6315422   3.2487371   0.3976960
  19.0959225   3.3083854   0.0195183  73.7878876  30.5011768  40.5666275
  74.6548004  30.1375618  40.7468452  73.2796326  30.3106899  41.3550568
  33.4125252  43.7099686  63.7095108  32.5950775  44.2058144  63.6631546
  33.1418991  42.8239708  63.9503479  77.1658936  59.0777245   9.9238625
  77.4749298  58.9190674  10.8158035  77.6604233  59.8434296   9.6316872
  40.5060844  41.9912834  66.3031616  40.2483215  42.8938103  66.1154404
  39.8202248  41.4578514  65.9015656  79.0973129  29.1982250  78.5352554
  79.7152481  28.6641846  79.0344391  79.1919556  30.0780811  78.9001236
  46.0512161  38.7496643  70.0399170  45.6548042  38.5915031  70.8966980
  46.9407654  38.4054871  70.1203690  60.2196083  20.0113201  10.0043688
  60.7664948  19.2765617   9.7263794  59.7797318  20.2986526   9.2042580
  13.7405920  69.6892776   1.6423715  13.2708349  69.3600540   2.4086428
  14.3560553  70.3312759   1.9963168  30.1877804  53.5861320  63.1865845
  30.7677994  54.0716400  62.5999908  29.3774548  54.0955200  63.1977806
  38.1367111  49.1592674  27.6849041  38.8833199  48.7260437  27.2712326
  37.6358337  49.5225983  26.9546013  58.2580948  19.0137157  27.8145771
  58.9396858  18.6985188  28.4081383  57.7325134  18.2377853  27.6198254
  74.1055756  62.7160454  12.5712671  73.3470688  62.2135429  12.8685722
  74.5368118  62.1451378  11.9353971  69.0619507  45.0251541  28.0802174
  68.9962616  45.3775063  28.9677792  68.1554642  44.9648819  27.7787514
   9.6622782  45.9753380  16.9394417   9.9049368  46.2286072  16.0488224
  10.1010342  45.1359291  17.0776958  34.6838875  51.8746872  77.9519577
  35.2971458  51.1484337  78.0646820  35.2209778  52.6600952  78.0563507
  70.4500961  -0.2736306   9.4279222  69.6014938   0.1651792   9.3683577
  71.0537872   0.4106156   9.7170591  13.4563341  45.2733154   2.1535296
  12.7405415  45.4143524   1.5338682  14.0061569  46.0518990   2.0655961
   3.2899723   2.7048631   5.1594014   2.7918432   2.6058240   5.9707527
   3.7599514   1.8764317   5.0642548  52.5232697  54.9922638  62.7868958
  52.7547913  54.7649384  63.6874275  53.0370865  55.7775764  62.5984573
  85.8618546  47.9776077  44.6193695  86.4647369  48.5899620  44.1977196
  85.1282501  47.9050407  44.0087967  45.8142853  58.0561790  54.2630577
  44.9200325  58.1164474  53.9270363  45.7727356  57.3743858  54.9336281
  63.7708893  61.1121902  67.0977249  64.5316467  60.7485008  66.6447296
  64.0161743  62.0174522  67.2889633  81.2446976   1.6955987  55.8257637
  81.4573669   1.4249778  56.7189445  80.2879333   1.7113671  55.8016701
  71.6255798  34.7487144  68.2765961  71.2383270  35.4234123  67.7188797
  72.3932877  34.4477501  67.7905045  24.6487103  63.1026306  68.3955536
  24.5482693  62.3627434  68.9944763  25.0980797  63.7706184  68.9133301
  63.0916176  27.1893806  18.9920845  62.1774597  27.0149422  18.7682133
  63.0590401  27.9763851  19.5359554  74.7874832  26.0874443  44.3678246
  74.1391602  26.6362648  43.9265747  75.3819504  25.8111668  43.6703224
  10.5627966  23.1585407  88.0706177  10.5105944  23.4580154  87.1629639
   9.6505709  23.0796299  88.3496323  75.9416504  35.7850800  26.3474789
  76.1206589  36.3376198  25.5866337  76.7958221  35.6647568  26.7623825
  45.9884796  59.3744621  87.5000916  45.3344307  58.7298317  87.2300873
  46.5614815  58.8973312  88.1002960  82.2821503  21.0852985  42.4944458
  81.5705109  20.4492722  42.5670891  81.9068375  21.8082771  41.9917793
  33.0332146   3.3537345  26.2125397  33.3994026   2.7239406  25.5916519
  32.5498734   2.8172688  26.8408852  81.0794601  68.0838547   2.2654135
  80.6718826  68.9034729   2.5452988  80.4908600  67.4013367   2.5878255
   8.5166903   5.6739731  84.9236374   9.1151323   6.1775584  85.4754562
   7.7264662   5.5757575  85.4548035  34.7432785  35.7204399  19.0965767
  34.7096481  35.1069717  19.8305798  34.2037354  35.3130074  18.4189892
  29.5604992  59.5767059  79.8198090  29.2531528  60.1806984  80.4958038
  28.7799644  59.0843315  79.5657196  67.8181686  43.7816010  51.5000420
  67.6379166  42.9108734  51.1456833  66.9802704  44.2410202  51.4443398
  37.5937309  65.3228226  83.4813232  36.7254906  65.7148666  83.3881073
  37.4226074  64.3901672  83.6121368  41.2864799   0.8942121  49.1196289
  41.0808105   0.2217094  49.7689896  40.6748123   1.6055663  49.3095474
  54.7297554   3.9718473  41.9680519  54.5456009   3.2052460  42.5108604
  54.7717705   3.6287768  41.0754318  12.1315765  52.8130989  30.6615925
  12.4500866  51.9308128  30.4709263  11.8453064  52.7724113  31.5740757
  35.1469078  58.7125511  21.8788815  35.9860191  58.3201294  21.6377716
  35.3570900  59.3003540  22.6045132  51.7515182  25.8979416  62.6774101
  50.9500580  26.1530285  62.2204361  52.2650108  25.4312897  62.0180206
  79.7682800  21.4972820  73.9213791  79.5827484  21.2194214  73.0243835
  78.9133148  21.5038719  74.3517609  17.2911663  37.1902199  84.9996643
  17.2916813  38.1435318  84.9134750  18.1656399  36.9788132  85.3265228
  15.4378042  47.5979156  71.5997696  14.5127163  47.8436279  71.5914612
  15.9027786  48.4206085  71.7521057  68.1298447  25.8754520  65.3628082
  68.4798126  25.0389385  65.6693954  68.7316284  26.1473045  64.6698456
  86.2830734  61.6433067  20.1461906  86.7791443  61.1816978  19.4701271
  85.4089737  61.2549782  20.1090698  25.3886776  65.3158875  12.4087372
  26.3239689  65.3599854  12.2099466  25.2970314  64.5374527  12.9581633
  35.1613731   7.9171567  18.7474194  35.8597488   8.0274191  18.1021729
  35.2656326   7.0192027  19.0621262  46.4574280  68.7770462  68.3647156
  46.3493309  68.0988235  69.0314713  46.1836739  69.5851898  68.7985306
  71.5760040  63.5857697  39.2594833  72.4767914  63.2664223  39.2061768
  71.5472031  64.3240128  38.6508789  54.4971085  49.7396736  43.2420692
  54.4506149  48.8452415  42.9043388  55.1392784  49.6951180  43.9504890
  11.9573917  60.9332008  11.4549799  11.6804209  60.3208160  12.1365223
  11.2674723  61.5963821  11.4341059  37.0697479  68.4482193  54.9064598
  37.7637215  68.2075577  54.2926903  37.3561287  68.0870819  55.7453880
  11.2767859  59.5442238  52.5467529  11.5622387  58.7086525  52.1771965
  11.0164280  59.3331108  53.4433441   8.3514938  45.1254196  22.3699360
   7.9495063  44.2900467  22.6082439   9.2561703  44.9020805  22.1510487
  71.0227280   8.6497192  54.4429970  71.4396744   7.7946496  54.3369560
  70.2541428   8.6136770  53.8736000  14.8843288  47.6191521  77.2168884
  14.4449263  48.0045929  77.9749069  14.2127438  47.0797920  76.7994003
  71.1019897  35.9976540  43.4859276  71.1966095  36.6101913  42.7564926
  70.3088760  36.2847710  43.9384460  42.8249817   0.9039146  67.3510590
  42.7336807   0.0278582  67.7257843  43.2354240   1.4197147  68.0451202
  77.3060837   2.1990938  50.1192703  77.5464020   2.1206362  49.1960602
  76.5276947   1.6497169  50.2116661  33.1396179  60.6803284  83.9481125
  33.6198692  59.8554878  84.0204468  32.7651443  60.8165627  84.8184280
  83.5797195  28.5786552   3.4558468  83.1985321  28.9260082   4.2622399
  83.0028534  28.8972397   2.7616174  26.1016102  57.0023003   9.9321146
  26.5661201  56.1983452  10.1647453  26.2760715  57.1179962   8.9980860
  32.8149719  57.9008827  19.5605507  32.9212112  58.5874672  20.2189922
  32.9448166  57.0843353  20.0428619  79.4591675   2.6430538  62.5633698
  78.9016190   2.2123046  63.2113075  80.1595764   3.0434871  63.0784492
   9.6368828  15.1324587   3.0147142   9.1018639  15.7905560   3.4584424
  10.5121784  15.2459240   3.3851402  74.5972595  25.4980679  35.9687080
  75.2645035  24.8853874  36.2779541  74.9448471  26.3621941  36.1893845
  45.9401016  69.9856262  33.0745316  45.2964439  69.2814560  33.1525536
  46.1829262  70.1893158  33.9777374  11.4982672  20.0914040  55.4879799
  10.9364100  19.6252480  56.1070480  10.9475269  20.7972450  55.1492996
  42.7165871  70.5381241  34.1432037  43.1425667  71.3194580  34.4957657
  43.2195740  69.8078384  34.5036354  44.3431816   8.8669825  80.7932663
  45.2819214   8.9910040  80.6531982  44.2474213   8.8174067  81.7443695
  58.3833580  56.5835648  66.7751312  57.9865685  57.0749245  67.4944077
  58.4592285  55.6896553  67.1089020  13.2817745  12.1803923  81.4443283
  12.6141186  11.5623856  81.7418747  14.0392113  11.6331625  81.2368164
  74.6498413   9.3821173  11.6776648  75.0993271   9.1001625  12.4743423
  75.1784286   9.0235357  10.9647541  33.3747444  39.2031364  87.1000519
  33.4630051  39.7082062  86.2917557  34.0352211  38.5143471  87.0254135
   9.6677799   7.4466133  12.6409721  10.2004538   8.2044048  12.8823061
   8.8686504   7.8231773  12.2724285  73.1512299  31.1354427  16.3696537
  73.1230774  30.2085190  16.6068344  73.4654083  31.1418839  15.4655056
  68.4335861  41.2813797  80.1858215  68.0052338  40.4890633  80.5098190
  68.4396896  41.1782951  79.2342072  37.9075699  12.8301754   2.5690713
  37.4873810  13.6680651   2.7630155  38.2446327  12.5301924   3.4132452
  84.4650497  10.6303205  59.0295982  84.5510483  11.1657000  59.8183975
  84.4354858  11.2635441  58.3123932  31.5669613  29.9288902  78.5290146
  30.8111610  29.3437271  78.4781876  32.3124886  29.3785973  78.2890091
  44.0176620  47.3544388  87.6269684  44.0022125  46.8690109  86.8021317
  44.0300026  48.2745018  87.3632126  49.7917252  10.5189114  56.1459122
  49.9222755  10.9452600  55.2989120  50.5585785  10.7696457  56.6609917
  47.5420837  32.6108398  29.9000912  47.3972626  33.1452103  29.1192551
  48.4930496  32.5977745  30.0083847  85.5090256  45.4440269  81.0182724
  85.4118042  45.8926888  80.1783447  85.7195206  46.1413155  81.6393280
  62.5704269  26.7742558   0.3245187  63.2076950  26.4371357   0.9541807
  62.5195808  26.0974712  -0.3504702  57.5128746  46.1739807  73.7101364
  57.2252731  46.8554192  74.3177185  58.4679031  46.2384224  73.7126007
  64.9215775  17.2180138  58.7883759  64.2743454  16.8878555  58.1652298
  65.4845276  16.4655266  58.9702644   8.5357513  27.2228184  15.4221430
   8.0209894  26.8600445  16.1430073   8.2892513  26.6951332  14.6625261
  86.2724075  65.9627228  77.9539566  85.5904083  65.2910843  77.9559021
  86.3237762  66.2492752  77.0421066  77.2386780  57.8396111   1.4380796
  77.8157043  58.4923439   1.0415757  77.7952499  57.0704689   1.5600634
  43.9737167  37.4617538  18.7687340  43.6778946  38.3465347  18.5545216
  43.2440643  36.8970032  18.5139885  31.4316330   3.1399419  34.8533707
  32.3094368   3.0671184  34.4786873  31.1987133   2.2431996  35.0938568
  58.2980728  46.2899857  37.3190689  57.9331436  45.7218399  36.6406364
  59.2296524  46.3484001  37.1069794  79.1247025  37.5753403  45.1237831
  78.9027405  36.7480888  45.5511246  78.3996353  37.7349052  44.5195923
  75.2961578  22.6688251  41.6612473  74.6883240  21.9342766  41.7461319
  76.0589905  22.2983894  41.2172928   2.1265454  66.9690857  78.3248749
   1.1959479  66.7812195  78.2027054   2.2900543  66.7788010  79.2486115
  60.8743591  37.4601326  60.2748947  60.1565018  37.8907814  59.8107262
  60.4450569  36.9613419  60.9699783  58.0491905  41.7062302  34.2605629
  57.3940048  41.9568863  33.6093063  57.5457230  41.5529060  35.0600891
  54.0076523  30.5112724  36.8390961  53.0719566  30.3468723  36.9560280
  54.2985191  29.8239803  36.2397118  45.6529312  23.8825684  36.0106468
  46.0131187  24.7622719  35.8983154  44.8939438  24.0055199  36.5807800
  25.9692116  33.7479401  66.0048447  26.5405846  33.9888115  65.2756348
  25.8397770  32.8046722  65.9062500  65.5599899   2.8668940  80.6614761
  66.0478134   3.1427531  79.8854828  66.0289001   2.0943985  80.9770737
  45.1544380  30.0983162  87.5007477  44.9340134  30.1538296  86.5709229
  45.8688354  30.7249966  87.6153717  64.0921707  12.5175896  37.4551659
  64.3110504  12.0091438  38.2360687  64.4175491  11.9892073  36.7263489
  38.8792572  10.0995474  39.8979073  38.9132652   9.6273766  40.7298508
  38.3238525   9.5576324  39.3374748  54.6746559  43.7355728  80.3640976
  54.2891541  44.5114441  79.9570999  55.4304657  43.5274963  79.8148346
  13.4726019  24.1744499  73.5743942  13.9021540  24.1521168  72.7192841
  13.6278191  25.0620747  73.8972855  45.7326584   9.5315895  11.4407301
  44.9518356   9.3975401  10.9035378  46.4503098   9.5893679  10.8099604
  69.8386993  56.1319656  13.8026848  69.8363495  56.9910812  13.3806114
  70.7267380  56.0366745  14.1469669  37.3152657  35.9587250  31.8986359
  37.6917610  36.1740799  31.0453434  38.0081902  35.4783974  32.3518219
  72.7555161  57.1390419  57.4051819  73.4372864  56.4807968  57.2705116
  71.9807816  56.7720184  56.9793701  74.5422134  69.8588257  14.6188269
  73.9325867  69.6979141  13.8986254  74.7751236  70.7833252  14.5334406
  69.0061951  35.4260101  72.2162170  68.6688614  35.2329941  71.3414688
  69.8574524  34.9893417  72.2463837  70.3594894  32.1965866   4.1686673
  70.0411453  32.7562981   4.8769126  69.5652847  31.8784332   3.7394183
  43.7301598  30.9035206  80.7711792  42.7771034  30.9878826  80.7994537
  43.9686699  30.5883350  81.6429672  48.3609390  52.8279190  77.9411316
  49.2822304  52.9719391  77.7250061  48.1321449  53.5596771  78.5142059
  66.9134903   5.3632636  76.0406494  65.9959946   5.3905988  75.7692032
  66.9316635   5.8379884  76.8716354  31.5486832  62.7580338  26.2537117
  30.6423035  62.4502983  26.2560902  31.4795723  63.7073631  26.3548450
  51.5896568  10.7718124  37.0323677  51.0977859  10.4750395  37.7980156
  51.8755989  11.6565971  37.2595825  53.3694992  53.3937645  60.6416168
  52.9854622  53.7569847  59.8436089  52.8167572  53.7290382  61.3475189
  74.5751495  46.2463913  37.2608719  75.3642197  46.7689133  37.4042969
  74.0785599  46.3342247  38.0744553  12.0474768  51.2290115  19.0656414
  11.4007530  51.0984650  18.3721447  11.5621290  51.0794373  19.8769970
  17.4409046  61.6622810  85.9126358  16.8651886  62.4226570  85.9939270
  17.7950802  61.7237701  85.0254974   4.6573176  58.3662567   6.0878172
   5.3836622  57.7449341   6.0366855   3.8776801  57.8378944   5.9168453
   2.9653883  15.7504930  11.7544918   2.2627702  16.3954525  11.6733370
   2.5191600  14.9396305  11.9986515  43.5880623   4.4460063  85.1740799
  44.2755089   4.9038744  84.6903381  44.0229759   3.6733382  85.5347214
  86.0302811  30.2685966  43.9707489  86.8879166  30.3557625  44.3867989
  86.2177582  29.8868465  43.1132202   5.3663449  63.6748848  24.2026443
   4.9321809  64.3204956  23.6450424   4.8935189  62.8591690  24.0374928
  15.5804224   6.1989083  79.3265457  14.6864481   6.5205636  79.2100067
  15.4735308   5.2864966  79.5954514  65.8669510  59.7805519  56.8193970
  65.0279465  59.6528358  57.2621155  65.6390839  60.2045479  55.9920311
  81.6451874  49.7329750   7.5836539  81.8828430  49.9785118   8.4777822
  80.7051392  49.9051476   7.5298219  77.1533585  16.7689686  41.8693123
  77.8985596  16.6455803  41.2813644  77.5296097  16.7137089  42.7477303
  21.1712017  59.1264229  62.0093803  22.1126003  58.9599915  62.0573654
  20.8101921  58.6832848  62.7771912  78.3014450  35.7738762  27.6220589
  79.1962204  36.1088829  27.6801529  77.8738861  36.0937386  28.4164848
  36.5763855  12.5895605  87.4033127  36.3424721  12.0360270  86.6582489
  35.9768181  12.3203907  88.0992279  13.9856844  49.0603447  79.4197159
  13.2341080  49.4834900  79.0046082  14.6171951  49.7678070  79.5497894
   9.2717505  66.6911087  72.8292999   8.6124868  66.8045197  72.1446533
   9.9764986  66.2020950  72.4045334  57.2501297  34.0745125  18.3070087
  58.0488358  34.5406723  18.0600491  56.5945435  34.7634659  18.4155464
  79.1534119  22.4009609  87.1369553  78.5480804  21.9299946  87.7096710
  78.8569183  23.3104420  87.1711884   0.8291749  22.5616035  35.8123512
   1.3333586  23.0105934  36.4909058   0.1086720  23.1597538  35.6140480
  49.7097321  14.9919901  13.6541996  49.9201431  15.6377792  14.3286743
  50.0283127  15.3829069  12.8406143  29.7733974  66.5772018  86.3937988
  29.6499271  67.0223694  85.5554581  28.9487839  66.1146469  86.5430908
  18.0098743   3.1131790  62.2167931  18.9385872   2.8905818  62.2814026
  17.9922085   3.9200161  61.7020760  58.2826729  22.9275837  27.5779228
  57.3945618  23.2308197  27.7664528  58.6731987  22.7797909  28.4392471
  83.7293549  26.1147556  53.6421509  83.7209625  27.0675526  53.7334671
  83.0183258  25.9265881  53.0295601   8.8667679  26.4875469   7.8399811
   8.3704395  26.6794930   7.0443387   9.3905039  25.7183285   7.6158457
  36.0823402  63.7207108  12.3340034  35.5916481  62.9049339  12.2341900
  36.4708138  63.8734703  11.4726171  60.4051590  57.3833237  46.1462975
  60.0464172  56.9373665  46.9135361  60.6472969  58.2524910  46.4659081
  86.5420074  34.6548309  19.2007427  87.2565842  34.3297005  19.7483730
  85.9058380  35.0086746  19.8222866  78.4012909  50.7207375  61.4941711
  78.1773376  49.8508682  61.8249397  77.7768402  51.3073578  61.9209900
  67.3479691   8.8902330  70.2314987  68.2550125   9.0081835  70.5136185
  67.3906403   8.9053144  69.2753677   3.7589455  39.8634567  30.7060146
   4.5995703  39.7323570  30.2673855   3.3025455  40.5054245  30.1621342
  76.6273346  67.8813019   0.1518999  77.2167587  67.2719269   0.5962852
  77.2092285  68.5203323  -0.2595256  23.1210918  33.7797928   2.7410328
  22.3306961  33.7988701   3.2806079  23.5438995  32.9507027   2.9648013
  11.8257637  54.3587761  38.9483032  11.2169971  54.9078484  38.4541817
  11.4394598  53.4835968  38.9157104  13.3484716  56.2713928  41.1459427
  13.2354155  57.2096062  41.2982826  12.5541992  56.0066605  40.6819611
  32.3719139  47.5824394  88.0176315  31.5347424  47.1189232  88.0406570
  32.2804832  48.2747078  88.6723328   3.5098176   4.1537385  53.9921303
   4.1661291   4.5351806  53.4090424   2.9238794   4.8810821  54.2016029
  77.5909348  53.0092087  23.6617203  78.0727539  52.5887184  24.3739491
  78.1365662  53.7545433  23.4107437  30.6578083  68.4742050  60.4849014
  31.3779030  67.8758163  60.2858353  31.0558128  69.3443909  60.4605331
  66.7744675  12.0435066  58.5620346  67.7114258  11.8728056  58.6579170
  66.3527298  11.3748283  59.1017036  61.3986206   5.9838610  67.0522919
  61.8950119   6.5375657  67.6549835  61.7482605   5.1038837  67.1923752
  13.1818180   0.8703302  55.2421036  13.1039343   1.2974623  54.3890343
  12.2796936   0.7851493  55.5505638  86.4447250  42.6538544  25.1843071
  85.5046616  42.6709175  25.3637810  86.7447968  43.5381546  25.3945656
  41.1313896  49.9066238  11.5601788  41.5369530  50.0716438  12.4113655
  41.2051315  48.9599648  11.4392290   4.0373774  30.5252724   1.9743131
   4.0920696  31.4479084   1.7253467   4.2440472  30.5167274   2.9088967
  72.8341980  44.8758926   5.2875581  73.2805786  44.0292053   5.2777200
  73.4277878  45.4540443   5.7667494  19.6088448  11.4834337   7.0330958
  20.4747658  11.6950245   7.3818703  19.0934906  11.2409077   7.8023953
  84.6949005  33.9077339  33.6927032  84.0789795  34.5868149  33.4175262
  85.5397415  34.1965904  33.3476906   2.3267214  45.3980713  21.6061287
   1.7597110  44.7071724  21.9487476   3.2061152  45.0209274  21.6317959
  44.7675323   8.2249165   7.8426638  45.0021477   9.1526041   7.8185396
  43.8162193   8.2156315   7.7370567  10.2980576   0.9525687  87.0783463
  11.1615553   0.7191261  86.7375946  10.0821991   1.7757643  86.6401825
  75.2768631  45.2049980  21.0181618  75.7143707  44.3540268  21.0440445
  74.4239120  45.0482025  21.4232693  66.1103821  45.4719543  24.6091957
  66.5334930  46.3129463  24.4361687  65.7957458  45.1815147  23.7531109
  51.6466446  44.1428185  56.6099052  51.9376297  44.1359901  57.5217819
  50.6976929  44.0280724  56.6604462  32.1177025  50.1539307  19.1021194
  32.2605095  50.5848808  18.2594337  32.9978638  50.0099754  19.4497204
  76.7358704  13.9431648  43.3835716  77.0555954  14.8200617  43.5958443
  76.7335892  13.4797983  44.2211380  58.1440773  67.4962692  46.5759544
  58.8169098  67.3695068  47.2448769  57.6948433  66.6525650  46.5251923
  -0.1308750  70.7606125  14.3183365  -0.3211046  71.6818085  14.1410160
   0.5239716  70.7812958  15.0161762  32.3574448  56.5219307  81.5915451
  32.9217491  55.7520256  81.6625061  31.9599991  56.6082687  82.4580383
  35.5162926  69.5149765  18.7085266  36.1161194  68.9689331  18.2003212
  35.5334854  69.1358643  19.5872803  57.7709923  38.3910561  11.2796497
  57.8598022  38.7753677  10.4074984  58.3399048  38.9238739  11.8352346
  16.5886898  51.1383286  29.1377716  16.4523277  51.9957047  28.7346058
  17.3475895  51.2599182  29.7083149   5.7861280   9.6019411   0.5559034
   5.8658829   9.5576143  -0.3969377   5.3284984   8.7961445   0.7956926
  69.4138412   9.3859787  80.7100525  69.0567398   8.7670240  80.0731812
  69.9530487   8.8484077  81.2901382  38.0149117  60.8852959  30.9383564
  38.4426155  61.3164368  30.1984749  38.2447052  61.4243965  31.6951923
  41.1526031  13.9905109  79.4764404  40.2208633  14.1878843  79.3808670
  41.3453789  14.1833000  80.3939896  42.9325180  15.8097124  48.6574783
  42.8130226  16.6966858  48.3180237  43.6349983  15.8926830  49.3023605
  80.3323364  28.2314663  32.0917816  80.6147842  27.7561989  31.3103905
  79.9591141  27.5576935  32.6600838  71.5864563  59.8226089  25.3097725
  71.8087006  60.2909966  24.5051270  71.7243958  58.8999100  25.0956860
  39.0519104   3.4054878  66.2598572  39.2923584   3.0239308  67.1041489
  39.5014725   4.2503614  66.2421036  72.3811111  36.3031960  64.2145538
  72.7450104  35.5687447  63.7201958  71.8347092  36.7701340  63.5823822
  64.9229660  58.0095940  78.7372894  65.0762177  57.9186249  77.7968216
  65.6082306  57.4792938  79.1440201   5.3700933  29.5451107  56.9894333
   6.0392771  28.9364414  56.6764679   5.8459015  30.1549721  57.5532646
  31.2985497  45.9835854  84.6533661  31.8010731  45.4353104  84.0507889
  31.5458145  46.8795967  84.4247742  26.1474190  47.6979561  59.1652069
  25.3720531  48.1762810  59.4588776  26.8632965  48.0573959  59.6891861
  24.8580513  41.8296814  21.1905937  24.1171989  41.3585129  21.5718689
  25.1344337  41.2851830  20.4534588  51.2928314  43.2966537  80.4516678
  50.7189484  43.6288948  81.1419601  51.7826691  44.0644989  80.1572113
  58.7600517  47.4121704  51.3719940  58.5721169  46.5864220  51.8181496
  59.2541695  47.9235535  52.0127525  20.1011353  61.9345474  42.6594086
  20.4091187  62.0079613  43.5627327  20.1128006  60.9947662  42.4780121
  83.7220612  55.9866791  37.0191383  83.7742844  56.3670425  36.1423073
  83.1352615  56.5710487  37.4991455  38.2877197  49.7734070  46.4708443
  37.3484306  49.9423141  46.3970947  38.3495293  48.8330498  46.6385880
  34.5591965  68.4552689  53.3548241  33.8130188  67.8818741  53.5299683
  35.3250923  67.9273224  53.5804443  82.5860672  23.5974350   8.0499754
  82.7178116  23.4574280   7.1122794  83.0804138  22.8930283   8.4690971
  40.6819038   6.0321574  50.1245537  40.2373390   6.8562903  50.3230476
  41.1588669   6.2066770  49.3132095  36.5061531  63.0128746  16.5764942
  36.1404457  62.1370468  16.7006378  35.7674446  63.6038017  16.7225933
   0.4310840  58.8736610  49.5883484  -0.1692355  59.2092171  50.2541199
   0.7565073  59.6560211  49.1431084  68.5636292  39.3198929  58.8224220
  68.3789444  39.3904419  59.7589836  69.0269547  40.1295776  58.6080055
  15.6813545  36.8620644  17.8244095  15.9733620  37.2249794  16.9881935
  15.2329473  37.5885506  18.2572823   3.8145897  11.1880884  27.0235176
   3.5043631  11.8982534  27.5853519   4.5244641  11.5786085  26.5138092
  26.0140820  53.2817230  61.4212570  26.4328651  52.7752113  60.7253418
  25.7994080  54.1197548  61.0115623  57.0624390  33.7058296  22.9619427
  57.5422707  34.4168930  22.5372314  57.0053253  33.0228386  22.2937412
   3.2454698  61.5863609  25.4188423   3.9486451  61.8044662  26.0305691
   2.6013353  61.1193275  25.9510098   7.3207259  50.0898018  21.5297089
   7.1718016  50.1031609  20.5842590   7.5678835  49.1849518  21.7204781
  23.0227642  17.8271294  15.5381460  23.0609207  17.1932144  16.2543354
  22.2011471  17.6307774  15.0880098  16.4268036  51.0212212   7.4339948
  17.3837032  51.0079651   7.4538999  16.2064743  51.0126762   6.5025368
  66.3184052  60.6140137  66.2525253  67.0634842  60.2134018  65.8046417
  66.5793152  61.5256805  66.3829956  48.8057098  19.3411732  72.7767792
  48.4808693  19.1587238  73.6584930  48.0762749  19.1124916  72.2006989
  22.6766644  57.0896721  69.9491196  22.9443665  57.3629417  69.0716934
  21.7335701  56.9427261  69.8769073  16.5409908  58.8306961  64.1035080
  15.9405708  58.2550659  64.5771942  16.0138569  59.1926765  63.3912315
  15.8396835  65.3440475  48.5363426  15.7913685  64.4030991  48.3674889
  15.0560293  65.7026825  48.1198120  16.8935471  61.9690056  27.8236485
  16.9893436  62.3210945  26.9387264  16.0082092  62.2202682  28.0868530
  73.7889709  25.9132881  48.5051613  73.0177612  25.5424042  48.9340057
  73.4486694  26.6468353  47.9929771  61.1768570  24.6907024  84.2308731
  60.4454994  25.2956772  84.1069641  61.2317543  24.5723171  85.1791306
   0.0881635  18.9243088  58.9237480   0.7591914  18.5728397  58.3385811
  -0.3746664  19.5739441  58.3946037  50.1960106  17.2608719  55.9072838
  50.8854408  16.6409016  56.1451035  50.2902565  17.3725967  54.9613113
  53.1107674  52.2447014  87.0628052  53.9951363  51.9326286  87.2544708
  53.0494728  53.0848312  87.5174026  30.0645981  18.9541988  73.6074219
  30.3922520  18.2593765  74.1784744  30.4553204  18.7669258  72.7538986
  51.8633194  25.5278854  53.4888191  52.5263023  25.8780212  54.0838737
  51.2968826  26.2747936  53.2951508  22.7247467  20.5052814  45.5912514
  22.7177925  19.5870972  45.8616600  23.5544128  20.6116314  45.1258736
  22.1422176  65.3271561  30.8537769  21.2988338  65.2208557  31.2938175
  22.7893791  65.2524643  31.5550861  25.7946892  35.1695366  20.1591549
  25.0728550  35.7776756  20.3183765  25.6084652  34.7971764  19.2972374
   3.4273896   1.2458823  48.6674423   3.0365982   0.4768877  49.0823669
   2.7649972   1.5443774  48.0442505  36.3893166  61.8610420  40.8475113
  35.8579636  61.8673096  41.6436615  35.8860817  62.3794327  40.2196083
  19.6703415   8.2126408   7.7078052  19.8458481   7.7867117   6.8687501
  18.7785854   7.9452143   7.9302654  31.4670639  36.7861977  53.2434082
  32.2537003  36.8966255  53.7774849  31.3205109  35.8404541  53.2255440
  65.6296539  14.8152504  32.6024437  64.9013443  15.2158194  32.1277466
  65.9785233  15.5215683  33.1461678  10.1594610  21.5589905  67.4664917
   9.8074036  21.2518272  66.6310654   9.4702196  22.1174831  67.8260269
  74.0464401  14.6523666  44.2682457  73.4927673  13.9730835  44.6532860
  74.9169388  14.2565155  44.2262039  52.5592194  56.9293251  75.0821686
  51.6794853  56.8378067  75.4481201  52.5572891  57.7916679  74.6667175
  79.0888901  70.4862823  41.5912132  79.1649551  69.5672913  41.3344994
  78.3735962  70.4989090  42.2271538  39.8606987  43.1559677   1.4436476
  40.2440109  43.8950272   0.9713190  40.4306374  43.0355873   2.2031949
  12.5683193  62.0491257  46.3247337  12.2949877  62.5115242  47.1170158
  13.3984842  62.4593735  46.0823364  39.8122292  31.7314167  88.1690216
  38.8733215  31.6003780  88.0366898  40.0570908  32.3865204  87.5154800
  31.0754528  54.8726845  15.3887043  30.2473621  55.2151642  15.7251616
  31.6657276  55.6262016  15.3930950  16.1542892  68.6592484  67.5119247
  15.8643141  67.7666016  67.6998749  16.8516769  68.5532990  66.8648834
  47.5593872  68.2675247   9.6898642  47.5428963  69.1282349   9.2713718
  48.4901047  68.0690994   9.7929201  38.6780090  64.8233490  32.9427681
  38.2339172  63.9962845  33.1297989  38.6721191  65.2923965  33.7771492
   1.2305101  45.5054359  30.3342972   2.0048962  45.1574860  30.7764359
   1.5802952  46.1031532  29.6735268  22.2656078  18.0669823  45.9827843
  22.4850578  17.2509422  45.5331726  22.2247162  17.8269005  46.9084854
  31.7259750  62.1756744   3.2173634  31.4379005  61.9675293   2.3285887
  32.4620361  62.7754936   3.0962653  81.5585785  58.2339821  86.1534500
  82.4673233  57.9341087  86.1753540  81.4874268  58.7229996  85.3336716
  12.0970774  51.5371132  63.6902580  12.4030714  52.4005127  63.9679947
  12.6506653  50.9210396  64.1700745  83.9358368  42.6488838  25.8122234
  83.1893616  43.2459984  25.7626190  83.6129379  41.8300209  25.4361534
  73.9499054  47.0135880  51.6324844  74.0954208  47.9519386  51.7531319
  74.0145035  46.8808479  50.6867371  36.3237190  32.9210701  46.7931099
  36.7397690  33.5924530  47.3338318  36.0848274  33.3774109  45.9863167
  67.8031235  12.5423508  78.1510162  66.9531784  12.8898897  78.4212799
  68.1665726  13.2173023  77.5778046  70.0454178  70.2338562  72.2706909
  70.7533875  70.0700150  72.8937149  70.2916946  71.0512848  71.8378143
  29.7253113  56.5769615  70.0114670  30.4672775  56.8626900  70.5444565
  29.1150246  57.3139725  70.0357895  25.7678928  23.4214745  45.2331238
  24.9132404  23.2993584  44.8197365  26.3932781  23.3685532  44.5104065
  32.0583267   1.8838190  14.5829678  32.2995262   1.2022229  13.9556866
  31.8620605   1.4079989  15.3900032  32.7732086  45.8203049  82.1298370
  33.7227516  45.7279282  82.0519867  32.4328499  45.5110435  81.2903442
  51.0132103  14.7925653  51.3445892  50.1778450  14.5884056  50.9242134
  51.4596939  13.9486094  51.4125900  20.5390396   4.6850324  14.8154421
  21.1459827   3.9588192  14.9585047  20.4545021   5.0992517  15.6742239
  15.4232645  51.0380173  42.9492874  14.5177116  51.3284111  43.0582809
  15.9421530  51.8389969  43.0228920  60.9009705  23.3897514  58.4660416
  60.6882248  23.3464203  57.5337906  61.2567368  24.2697105  58.5898743
  76.9350357  62.0409470  31.3860893  76.5360870  62.7860985  31.8353367
  76.2606125  61.3619041  31.4031677  81.0238419  53.7339325  59.8606415
  81.2291718  53.1080360  59.1661491  80.8874207  54.5634270  59.4028625
  77.7229919  25.2600040  72.9062958  77.4449463  24.3580284  72.7470322
  78.2360001  25.2135830  73.7130814  37.8704796  12.5619736  70.6581955
  37.9437408  12.1802502  69.7834702  36.9281387  12.6349325  70.8095322
  58.4520874  42.3501549   2.5388656  57.8961754  42.1734276   3.2977834
  59.2936974  41.9516258   2.7604573   0.1425494  21.1475964  70.1305847
   0.8990654  20.5669155  70.0485687  -0.2744086  20.8833618  70.9506760
  72.7311859  28.2935944  81.5606689  73.4461746  28.1900654  82.1886063
  72.5297928  29.2291870  81.5791321  78.4226151  31.1198864  52.3526726
  77.6125107  31.2648926  52.8414803  78.3027496  30.2652950  51.9385033
  46.3083687  44.1403465  65.3975143  46.1959572  43.5123901  64.6838837
  45.6238174  44.7933693  65.2519760  48.5247231  20.1941090  37.3271179
  48.6604080  19.2469139  37.3017502  47.9963760  20.3394432  38.1119499
  73.7996368  21.7636528  33.2656517  73.2836914  21.5306110  34.0374832
  73.1485825  21.9361343  32.5854912  20.4524822  60.0489464  70.3617706
  20.8111782  60.7411461  70.9171295  20.1771317  59.3679886  70.9755402
  44.2034645  62.7053070  79.6318359  44.3138695  61.9722099  79.0263519
  43.4164047  63.1543007  79.3233337  36.1145821  29.8176594   4.0699458
  36.1244431  30.2624569   3.2224264  36.5969696  29.0047169   3.9194155
  17.8591480  69.0145874   2.0623844  17.6722565  68.3399963   1.4095227
  17.6478901  69.8382797   1.6229151  27.5769596  71.4002762  65.3635178
  28.5277367  71.2966614  65.3245239  27.2344246  70.5143356  65.2451782
  35.5100250  27.2507668  70.1485291  35.4223595  28.0931969  69.7025909
  36.1001282  27.4278164  70.8811035  66.5264740  58.0208282  34.3232040
  67.3610840  57.5898972  34.5074730  66.5121613  58.7763634  34.9107361
   1.2899070  37.3667488  26.0101814   1.7048377  36.5057526  25.9576988
   1.7134115  37.7916527  26.7560577  14.0113592  46.4293671  29.3480797
  13.3118877  45.7781143  29.2947826  13.8316345  47.0333900  28.6276035
  22.9692020   7.6068163  82.5348511  22.5886288   8.2811365  81.9720993
  23.0333462   8.0211506  83.3953400  45.9770508  28.2503223  38.1246452
  45.4420853  27.7438107  37.5135078  46.7516251  28.4955082  37.6185341
  75.8717346   4.4443345  26.3763313  75.0347824   4.9085007  26.3931141
  76.4984665   5.0921512  26.0541935  22.3572598  10.4392691  52.3196793
  22.7308693  10.2241144  53.1742859  22.4369469   9.6310272  51.8130951
  29.2222652  66.6117325  72.0121231  29.4632797  65.7397766  72.3249054
  28.9198284  67.0719147  72.7950592  75.9160614  66.5535049  35.3570213
  75.1024017  67.0354080  35.2088089  76.1217880  66.7086487  36.2788849
  73.2040939  68.4313354  31.7656307  72.8272247  67.8392181  31.1147785
  74.0663681  68.6548233  31.4152679  51.0384979  17.8304329  37.3055763
  51.1778564  18.0119362  36.3761330  50.1060104  17.9957943  37.4447174
  39.1526299  42.5980797  26.3214931  38.7944336  41.7810783  25.9744511
  38.7523232  43.2821617  25.7848186  80.9865952  18.7071266  34.4789810
  80.8377380  19.5100422  33.9795799  80.1382065  18.2638798  34.4782944
  59.6296082  33.6948853   6.5844059  58.7641983  33.5353432   6.9610291
  59.8452873  34.5888596   6.8499718  76.6332245   5.6849570  57.7670479
  76.9158478   5.8933659  58.6575089  75.7259979   5.9875116  57.7267151
  50.7304764  15.9020681  19.4285183  51.3028870  15.1366243  19.3767700
  50.9189911  16.2846184  20.2854595  37.3475151  24.1836491  18.6193333
  37.6433830  23.3761177  18.1991100  38.1393738  24.7151814  18.7009945
  64.1641159  53.2265549  80.1147385  64.4890671  53.4560738  79.2441330
  64.2564240  52.2749748  80.1616669  80.9906769  57.8235588  58.7517624
  80.7931976  57.0188293  58.2725525  80.1429596  58.1183319  59.0845108
  24.7139626  24.5798702  83.1718140  25.4926853  24.2752876  82.7059250
  24.9174271  24.4385242  84.0963974  79.7074966  49.4841118  75.0948792
  79.0987701  49.7795029  74.4178009  79.1550598  49.0332298  75.7334290
  78.2327118  63.8787804  17.3364296  77.3178787  63.6015167  17.3858051
  78.4117432  63.9479256  16.3986683  50.6631927  50.6845856  33.9864082
  51.4263687  51.1882477  33.7033539  50.5578156  50.0113106  33.3142281
  74.7255859  24.0803413  62.3169594  74.5439148  24.9151592  61.8853226
  75.6483231  23.9091263  62.1285896  43.2208366  69.5001144  55.1392517
  42.3513489  69.1315308  55.2953644  43.0510178  70.3567352  54.7473488
   6.6066384  29.0996246  14.3408537   6.8142018  28.4129753  13.7070856
   7.0399342  28.8201389  15.1473112  24.3691273  13.0728312  75.9262924
  23.4920654  13.4367256  75.8055725  24.4753323  12.4579792  75.2004089
  61.3849182  49.2641830   8.6278067  61.4322052  49.8896027   7.9047270
  61.3261108  49.8092384   9.4124632  36.7317009  28.1048050  44.6806068
  37.2237511  27.2887115  44.5905342  36.0133171  28.0218029  44.0534973
  43.3397827  50.8114891   5.0215015  44.1712112  51.2153091   5.2702713
  42.8985710  50.6396942   5.8533964  78.7945862  20.0303822  17.8294411
  79.5034332  20.0225906  18.4726391  78.1514435  19.4109650  18.1742897
  27.7041321  11.8566446  81.4252243  27.9174423  10.9962492  81.0640411
  26.8203869  12.0382385  81.1054535   1.6921803  39.2703171  23.6561527
   1.9504572  38.4667816  23.2046509   2.2018013  39.2641716  24.4663868
  33.6664047  46.1417389  31.5979652  34.2086296  46.7363243  31.0796089
  33.0514030  46.7154350  32.0549927  12.0554419  53.2922401  27.9577007
  12.1564770  53.4134903  28.9017982  11.1224184  53.1155205  27.8374100
  76.1850891  38.4822884  15.5452547  75.4890900  38.2798805  14.9200745
  76.6387177  39.2338257  15.1636267  10.8753166  44.9514771  41.1436844
  10.5434275  44.6075439  40.3143539  10.2999163  45.6896591  41.3442612
  19.3999119  24.4276524  85.5745468  19.9085979  25.1985760  85.8258362
  18.7613869  24.3217258  86.2797394  67.4778900  28.7311459  62.8787384
  67.6476288  28.2079525  63.6621208  68.3470840  28.9307594  62.5310669
  81.0814819  45.3012161   3.3816111  81.0041809  44.4836769   3.8734319
  80.2738647  45.3503265   2.8701670  55.0813904  46.7061729  53.8533134
  54.7416267  46.5021820  52.9820061  54.4341888  46.3382149  54.4549561
  40.7271271  52.7880135  87.2716141  41.5040092  52.3941803  86.8746490
  40.7158699  52.4466400  88.1658020  66.6938705  53.2542458  27.6818275
  67.6074753  52.9988213  27.5541172  66.2714996  52.4680595  28.0278645
  24.9414787  46.5085068  54.4781685  25.2990952  45.9708900  55.1847878
  24.6846828  47.3256683  54.9054070   9.2333975  35.7683945  77.2736893
   8.6830454  35.1007347  77.6830444  10.1278620  35.5124931  77.4988098
  85.3181381  54.3944931  75.4275436  85.0455627  53.8107948  74.7195587
  85.9131775  55.0167427  75.0092545  22.2296524  64.6629715  35.2545624
  22.3663902  63.8208733  35.6886101  21.2894211  64.6912155  35.0773582
  85.9126358  45.4604263  12.7542295  85.9459305  45.3160095  13.6998863
  86.0761337  46.3976898  12.6491747  11.7769995  19.7220726  85.2544403
  11.8028870  20.6491127  85.0174637  11.0503855  19.6533737  85.8737488
  69.3315125  55.6272316  42.1823578  69.7324905  56.1616745  41.4969292
  69.8468933  55.8170128  42.9663162   9.6109505  61.6894302  26.7328472
   9.9728422  62.3561287  27.3166142   8.9540367  62.1552124  26.2154083
  74.0693130  69.8654938  39.4308090  74.9643555  69.9647217  39.1063499
  73.5903320  70.5960464  39.0395279  76.1100464  13.4598351  12.8675508
  76.3075180  13.4894171  11.9314079  76.7562637  14.0420284  13.2671585
  49.8375778  64.3795319  69.8260345  49.4367485  63.5119934  69.7718124
  50.6543999  64.2365265  70.3041382  42.2442245  46.0624390  45.0674706
  43.1204948  45.7917519  45.3415375  41.6961098  45.9155083  45.8383217
  15.4150267   4.5407209  22.9287853  16.1733761   4.3259516  23.4719353
  14.9161377   5.1685171  23.4514847  32.4100189  46.9004288  28.9974670
  32.9691505  46.4668465  29.6421471  32.6395988  47.8271561  29.0660057
  68.3939285  45.6480827   7.5922847  68.8628006  45.4490128   6.7818751
  67.9954758  46.5039711   7.4344110  44.9764366  60.3059540  39.3948784
  44.3350334  60.1998787  40.0974312  44.6786118  61.0776291  38.9131622
  53.9489403  60.4040031  64.2111969  53.4839363  60.6820259  65.0003128
  54.7134323  59.9298286  64.5382233  45.0708961  50.2491035   1.0774281
  45.8224945  50.5886040   0.5915552  45.0639381  49.3117676   0.8835649
   5.7175269  30.5337181  66.0898895   5.4078050  30.5751972  66.9946442
   5.8082509  31.4492207  65.8255768  48.1230583  52.5893707  56.8449440
  47.9862785  53.3215446  57.4461441  48.8546143  52.8660278  56.2931175
  72.1973724  35.4890976  40.1227608  72.3739471  35.8757477  39.2651176
  71.6842117  36.1527901  40.5836411  54.9279366  26.8017521  83.2605286
  55.2583694  26.0275650  83.7162476  55.3456383  26.7695446  82.3998795
  84.6381302  13.9861412  30.3598289  85.2190704  14.4792356  30.9391403
  85.1637421  13.8217449  29.5769253  37.1413612  37.4487724  78.6331482
  37.2291451  36.5438538  78.9325485  36.2188911  37.6601334  78.7767029
  30.2168083   0.3031999  77.2794266  30.3334560   0.0615984  78.1982574
  29.4039955   0.8085577  77.2659836  12.8689861  36.2950821  59.7344818
  13.1318750  37.1726189  59.4569054  12.2152882  36.0255737  59.0892906
  53.7033844  22.2730045  60.0864182  52.8196640  21.9138489  60.1656647
  54.2221603  21.5548820  59.7239227  40.1961784   3.8629076  42.3875809
  39.9503479   4.5934505  41.8200378  40.1827774   4.2309575  43.2710915
  50.0900421  14.7011967   4.6149292  50.9942169  14.9159899   4.8442006
  50.1157532  14.5305986   3.6734052  40.0957794  64.7980957  49.6743507
  40.4991493  64.0279770  49.2737999  40.0993919  65.4582062  48.9811935
  57.6670685  63.1350708  15.5898714  57.6110420  63.8331795  14.9373827
  56.8758087  63.2374382  16.1187019  36.2257042  27.3832817  64.6200333
  35.3825073  27.1720333  65.0208206  36.3275795  28.3248978  64.7586517
  30.5751495  53.6412735  86.5663834  30.7709770  53.8318329  85.6490097
  31.1338005  52.8940315  86.7803268  72.3180847  60.6618500  63.0366783
  72.3449478  60.7811813  62.0873260  73.2339401  60.7120323  63.3103981
  24.4352989  20.3397770  22.3342800  25.0273380  20.3832531  23.0851650
  24.9319839  20.7294693  21.6147823  47.3784752  48.4566536  87.6580658
  47.1386604  49.3827858  87.6897125  48.3216667  48.4477730  87.8209915
  51.6996689  45.9941521  14.4462862  51.9538269  46.8757591  14.7190542
  50.9165535  45.8004608  14.9615040  69.1802521  33.0841026  21.4907207
  69.7865829  33.6621094  21.0275822  68.3188324  33.4759521  21.3470135
  81.6202545  59.0576744   2.7084801  81.0998154  59.8546181   2.8097873
  81.0779953  58.3673668   3.0901415   5.6290412  62.0500488  27.4023457
   5.0552611  62.0326920  28.1683140   6.1641998  62.8346443  27.5216999
  49.2970047  67.5432281  17.7254696  49.9675484  68.2242432  17.6723881
  49.2581940  67.3172302  18.6547966  24.2091103  51.0607224  12.2838373
  24.5709648  51.1236763  13.1677656  24.3008900  51.9429779  11.9240646
  53.0808105  47.7097816  34.0623512  53.8686447  47.7436104  34.6049423
  53.3649406  48.0324860  33.2071533  28.2102356  30.7101994  78.7330856
  27.9662514  30.9664555  77.8436890  27.9316864  31.4453983  79.2790985
  63.7104225  25.8879337  25.2120953  63.9773293  26.2437458  24.3645191
  63.3371773  26.6355953  25.6789169   3.9373937  40.2939949  60.1776848
   3.7224820  39.8796654  61.0133743   3.7364335  39.6271553  59.5210495
  35.8865662  47.7161674  43.9510803  36.7700920  47.5403404  43.6275101
  35.3213921  47.1527443  43.4225311   6.3351655  38.8243179   4.5025077
   5.4742651  39.1267166   4.7917109   6.4990201  39.3073120   3.6925080
  49.0114861  21.5603790  59.0984383  48.3515549  20.8903503  59.2767258
  49.8403358  21.1532078  59.3503304  10.0106220  43.3088379  32.1100807
  10.3139715  44.2109680  32.2119141   9.0641880  43.3577652  32.2446213
  57.4788170  34.6109581  78.8919601  58.1773529  35.2652893  78.9033966
  57.7124748  33.9989433  79.5898666  31.8409252  54.5591393  44.6772957
  32.4997635  54.4015388  44.0010376  31.3863029  55.3505974  44.3889503
  45.1604729   2.6088095  68.0689240  45.1978340   1.6547354  68.0012512
  45.7530212   2.8211646  68.7900467  54.8057823  19.3268986  85.6581421
  53.9673424  19.7886925  85.6583862  55.1423149  19.4409885  86.5469360
  43.1736984  64.0991440  50.8178711  43.6965332  63.5880699  50.2000656
  43.0956154  63.5365067  51.5883102  68.4513931  24.0059280  52.9681435
  68.6933365  24.9093971  52.7645721  67.5304871  24.0564957  53.2242813
  76.4830246   6.7318139  12.2914915  77.3376007   6.6729884  11.8643255
  76.6761246   7.0616159  13.1690874  48.4227943  19.9357185  13.0662823
  47.7002029  19.7633915  12.4626284  47.9982834  20.2505474  13.8643465
  41.1938133  66.7671432  80.0091400  40.3790512  66.8186264  80.5088806
  41.0860062  67.4102020  79.3083725   2.5210454  57.2765465   5.0975595
   2.3598332  56.8002930   4.2830520   1.8714827  56.9308243   5.7097478
  24.0300961  63.9581070  77.4191208  24.4877853  63.1915131  77.0740280
  23.2400799  64.0268250  76.8830414  49.2700195  11.5458889  11.0206251
  49.0490379  12.4729757  11.1095448  49.7296104  11.3303127  11.8321276
  56.5388184  39.2484016  86.3687286  55.9294739  39.9865685  86.3618622
  57.2635689  39.5309067  85.8109131  79.4432983  10.1512508   4.6197510
  79.5937119  10.4845905   5.5043378  79.2522278  10.9313974   4.0990844
  43.4907455  33.7881241  80.3152924  43.6870766  32.8836250  80.5593491
  43.8438072  33.8794250  79.4302750  60.9995346   6.2486262   6.6859941
  60.9355316   5.7047396   5.9009318  60.1043701   6.2898207   7.0224624
  75.6480560  27.9205666  46.5974731  76.4104996  27.3796253  46.3918114
  74.9204178  27.4890747  46.1496010  74.7801971  17.5624142  26.8030090
  75.4935913  18.0868893  27.1666336  73.9901962  18.0687580  26.9920959
  28.5521755  66.6304321  35.0649986  27.6321163  66.8844147  35.1372147
  28.6853962  66.0072708  35.7792549  37.4989662  10.9556837  47.4325714
  36.5545464  11.1025038  47.4849472  37.7062073  11.0585823  46.5037575
  74.9030914  48.0402145  64.9832382  74.1051331  48.5638695  64.9106140
  75.5726318  48.5611916  64.5399246  79.3346481  34.8399391   9.2862616
  79.2141037  34.2573318  10.0361090  80.0975494  34.4866409   8.8286600
  55.9254990  24.6717796  84.8772202  56.6548080  24.1456490  84.5493011
  55.3143845  24.0323505  85.2431412  34.7876549   0.8430439  36.3570824
  35.7243767   0.6470719  36.3765259  34.4782104   0.6209350  37.2352295
  33.7665634  37.2444611  61.7267418  34.2561035  36.4680977  61.4550018
  32.9044266  37.1367264  61.3250656  31.2046547  54.1791840   3.2066162
  30.2676201  54.2596321   3.3847444  31.3187046  54.5729942   2.3416662
   3.2611010  50.0689354   5.8317332   4.0266600  50.4658012   5.4162207
   2.6597369  50.7999802   5.9737425  40.8037491   1.8318018  27.1553345
  41.2400131   1.3132933  26.4792767  41.5042000   2.3547518  27.5453701
  80.1888275   9.1599541  61.5719185  79.2866516   8.9457521  61.3343735
  80.6279373   8.3117037  61.6342278  16.8144283  -0.2250225  65.5592117
  16.6233234   0.2788278  64.7681046  16.1260643   0.0259768  66.1751556
  47.3527451  14.7166910  45.7173843  47.5381012  14.5847063  46.6471481
  48.0956612  14.3161716  45.2658424  68.9559631  30.1371136  34.5867386
  68.7700729  30.4657822  35.4663162  69.0604935  29.1925411  34.7011375
  64.7926941  26.2670460  63.6330032  65.5033875  25.9254093  63.0903931
  65.1817780  26.3677387  64.5017395  57.7323914  61.6562042  39.1330986
  58.2886658  62.4214211  39.2788010  57.3906097  61.7738190  38.2467651
  84.1922455  64.1914215  15.0974274  85.0432510  63.8737373  15.3992596
  84.2601776  65.1447754  15.1497564  83.0738220  32.9038239  36.1485786
  84.0056229  32.6873016  36.1154900  82.9905090  33.6872063  35.6048813
  38.2701988  61.2845345   9.8185310  38.7570763  61.1151276  10.6250553
  38.0430222  62.2131500   9.8664665  29.9247952  57.1510735  37.1625786
  29.5425434  56.9160500  38.0080833  29.3869495  57.8788071  36.8505554
  21.0678902  48.1137352  58.9806061  20.7779942  48.7077560  58.2882690
  20.2572422  47.7890549  59.3726082   7.1778541  11.9357853  89.1291504
   6.6842957  11.1655893  89.4109879   6.6059623  12.3677568  88.4946671
  27.2369537  24.0555630  86.7842789  26.7331142  24.3756618  86.0360031
  26.7018089  24.2779312  87.5461197  24.4767399  56.8862877  20.6790218
  24.3284054  57.5414886  19.9971561  24.8302937  56.1296692  20.2113018
  16.8705368   7.9154954  71.1454163  16.3867188   8.7305479  71.2789917
  17.7043133   8.1915197  70.7648163  64.3946381  34.1123810  14.0970144
  63.8091125  33.5161095  13.6302671  64.1532288  34.9825058  13.7794628
  58.2630920  64.6810913  85.7479248  58.0480461  63.8606834  86.1916809
  57.4428368  65.1744537  85.7459106  80.3012924  28.6116028  39.5211372
  80.0840912  29.5253487  39.7058640  81.1548233  28.4801311  39.9339790
  19.2814884   6.4375367  54.0522156  19.1855354   6.1285172  54.9530678
  18.4740200   6.9209819  53.8775520  40.8761520   5.1287808  15.1373024
  41.4417076   5.4873171  14.4533195  39.9898224   5.3642168  14.8630352
  21.2597561   4.3053489  83.3825760  21.9776249   4.3475814  82.7508240
  20.7861481   3.5055926  83.1538467  67.9149780  43.7861366  80.8772812
  68.0831604  44.3386307  80.1139374  68.2192535  42.9171104  80.6156769
  18.4278851  61.7619171  66.3672028  18.3397827  62.6140518  66.7942047
  17.5288029  61.4474640  66.2723160  54.1009712  26.0519905  63.9083633
  54.3292770  26.9289742  63.6001244  53.3714104  25.7841091  63.3496017
  83.4412766  32.4903221  61.7301102  84.2072067  32.3167343  61.1828842
  83.3257904  33.4395180  61.6863174  43.7101097  37.9523926  21.5472832
  43.6364517  38.8545227  21.8586845  43.5050621  38.0037727  20.6137161
  28.5995064  21.8183994  77.3097763  29.2735767  21.6309071  76.6565475
  28.4971104  20.9971943  77.7907791  78.8631058  13.3278332  54.2354240
  79.7065506  13.6051884  53.8777733  78.2955551  14.0914001  54.1301384
  60.1081390  12.7827988  67.0125351  60.9712410  12.7798443  66.5986862
  59.7587585  11.9077005  66.8441086  54.4530144  16.5032196  17.4436531
  53.9329758  15.8303232  17.8829708  53.9405136  16.7341995  16.6689129
  34.9265709  61.6931572  70.4058380  35.2108688  61.2806053  71.2214432
  35.4790230  62.4706993  70.3254776  66.1306000  58.2706490  64.4561157
  65.8957596  59.0073967  65.0202789  66.0197678  58.6055298  63.5662804
  82.2544022  65.2155685  36.3019409  82.4759064  66.1413269  36.4026604
  81.3236618  65.2149353  36.0784149  48.4577141  29.0562725   0.3728614
  49.2831650  28.7542934   0.7519083  48.6987152  29.8245621  -0.1447130
  52.8427162  62.1261826   1.7674515  52.3197899  62.7402191   2.2829471
  53.0053482  62.5837898   0.9426022  49.5018120  64.2582779  19.1062927
  50.3127556  64.1774979  18.6042137  49.6511993  65.0069122  19.6837502
  51.8235550  32.2294083  13.8927288  51.3466072  31.6758862  13.2743702
  51.5714493  33.1225853  13.6584101  36.7242126   5.9014082  88.6156464
  37.3435593   6.6152921  88.7673340  35.9803658   6.1051388  89.1825867
  32.9585838  55.0454597  87.8379898  33.2566223  54.8100090  86.9593658
  32.6246681  55.9378510  87.7465134  73.6765518   9.6992636  68.2205734
  74.4784470  10.2171745  68.1501617  73.2010880  10.0922766  68.9524918
  82.8143463  15.5279541  75.8233109  82.2004013  14.8142557  75.9963226
  83.5398407  15.3716402  76.4278412  20.6393147  17.2787209  58.6495171
  21.5520229  17.2418518  58.3634529  20.3954506  16.3639488  58.7907791
   9.1397820  46.4267921  63.8955269   8.4351006  46.6737595  64.4944153
   9.9378376  46.5099106  64.4174728   0.8579940  57.0308876  30.6141853
   0.0207020  57.4146652  30.3536282   0.8872752  56.1889114  30.1598206
  35.9605446  16.8709030  75.9680252  35.9870453  16.2018051  75.2840347
  35.4248161  16.4842777  76.6606598  81.4576645  55.8806152  63.0333862
  81.8237076  56.7315788  63.2744370  80.6138763  55.8465080  63.4840317
  72.2845917  24.1666107  36.7583046  72.9698410  24.6130524  36.2609520
  72.6371307  23.2913876  36.9193535  63.7143631  27.5107918  10.7038841
  63.4210739  27.9147930   9.8871841  63.5757942  26.5731125  10.5705147
  12.4503431  49.8759842  35.3145218  11.5160494  49.9026299  35.5209579
  12.4897518  50.0003662  34.3662567  63.3718033   2.7431440  13.8864708
  62.8029404   3.0207362  14.6045017  64.2546082   2.7723138  14.2553072
  83.4817047  59.3747101  60.0178185  84.4139175  59.5853424  59.9645691
  83.1496887  59.5322342  59.1339722  29.3956661  69.2827759  87.4775162
  29.2345848  68.3430328  87.3928757  29.7781277  69.3826599  88.3492813
  76.3922577  21.4360027  30.3373337  75.5902863  21.4047165  29.8157120
  76.3954849  22.3137074  30.7192440   6.9939899  63.8726883  66.6301498
   6.5373244  64.2677917  65.8874664   7.3240194  63.0398903  66.2928696
   3.8916447  58.8603630  10.1155424   3.3173373  58.2495651   9.6536694
   4.1812081  59.4739914   9.4403782  13.5291500  32.2544975  70.5628967
  14.4486952  32.4114532  70.3483429  13.1764784  33.1232719  70.7554855
  31.7548237  66.5931091  67.3837509  30.9567566  66.6799240  67.9050827
  31.4508762  66.6080246  66.4762115  47.5282402  19.7055149  64.0459137
  47.7491875  19.7493305  64.9762344  48.3349075  19.4130497  63.6216736
  19.6121368  44.1166153   3.2359064  19.3550434  44.3254166   2.3378320
  18.8001804  44.1813240   3.7386701  57.3973427  35.7545471  51.9132805
  57.5233574  35.4242668  51.0237503  56.5395317  36.1787376  51.8919907
   7.6939230  24.7058544  65.0323181   6.8801570  25.0620213  65.3889160
   8.3563137  24.9167786  65.6903305  54.2029724  19.1623878  66.0927963
  54.1825066  19.7411995  66.8548965  53.6300240  19.5868454  65.4542084
  58.2000275  10.2585335  23.6042633  58.2632675  11.0001974  23.0024605
  57.2594833  10.1224928  23.7187252  11.3425140  36.7726059  47.7885971
  11.4307165  37.3534126  48.5443192  10.9105167  35.9920616  48.1355362
  13.7676020  37.4566269  74.9693451  13.0834217  38.1171265  74.8603745
  14.1459656  37.6432037  75.8285599  47.2366676  57.3871880  77.8212585
  46.3329620  57.6990662  77.8690262  47.1780891  56.5539436  77.3538208
  61.7135010  63.1654816  37.7020912  62.4115486  62.6183510  37.3420792
  62.0171089  64.0626984  37.5640297  59.7916107  65.5782242  26.4656048
  60.5465279  65.2531509  26.9561768  59.2790718  66.0660477  27.1102448
   3.3546507  65.1341324  64.2334518   2.8162127  65.1864166  65.0231247
   3.9764743  64.4291229  64.4137955  51.9685822   8.6306992  15.2643375
  51.6333771   8.8336983  16.1376419  52.6240082   9.3076906  15.0960245
  28.6075172  68.9224167  25.1223888  28.5705070  68.3628922  25.8981457
  28.7034225  68.3121185  24.3912468  86.3942871   9.1294518  78.5829849
  85.6969452   9.7584658  78.3978043  86.0365295   8.5717316  79.2737808
  44.6701126  62.1121407  49.4308586  44.6123466  61.9789619  48.4847298
  45.5179367  62.5367851  49.5616379  66.0591049  50.5153351  28.5475788
  65.5506210  49.7965698  28.9231586  66.5720596  50.1069984  27.8501816
  52.4585953  70.7267303  27.4989071  52.0266151  71.5699310  27.3623981
  51.7426720  70.1169739  27.6774826   9.4496536  44.8486099  11.5660324
   9.5170755  43.8939857  11.5855284   8.6441841  45.0219269  11.0787849
  17.5513744  60.5041428   5.3824549  17.5902500  61.4305382   5.1447334
  17.9287014  60.0478401   4.6303625  20.9489517  22.0980930  87.3598404
  20.0886974  22.2380066  86.9640884  21.3775673  21.4651833  86.7836914
  65.2545624  27.0063953  35.6709290  64.4019089  26.5826092  35.7690125
  65.8284607  26.5318966  36.2723618   5.5395207  56.3057671  48.3554344
   5.5835619  55.6777687  49.0764809   4.7403727  56.8057137  48.5217209
   0.0684095   4.5112858  26.8381424   0.7037712   3.8224390  26.6431103
   0.3543921   5.2571845  26.3108082  66.8611145  68.3903732  25.6267757
  66.0394974  68.6497726  25.2097645  66.6054077  67.7269897  26.2676926
  47.3546829  65.1270065  59.3738785  47.8899498  65.9026260  59.5415993
  47.4702721  64.5831604  60.1530457  59.6089134  32.6065826  74.3468933
  60.1741371  33.1596794  73.8075943  59.5539856  33.0655098  75.1851044
  13.3994522  45.1069031  13.1691847  14.2756119  45.2830772  12.8263445
  13.1749754  44.2440605  12.8208380  76.2359619   3.5462170  63.0607834
  76.6607590   3.8454518  62.2568970  76.0274887   4.3509264  63.5353508
  76.1541061  39.6102219  52.7015839  75.6973724  39.2357063  51.9483490
  75.6814575  40.4211349  52.8893547  76.7866974  29.9240284  38.6466370
  77.2519608  29.5809784  39.4095726  76.6844482  30.8582058  38.8285408
  21.7529316   9.4169807  87.8743668  22.1853352   8.5642767  87.9207764
  22.1399040   9.9210320  88.5902023  82.2952194  46.4206772   9.4416304
  82.8000412  46.0145836  10.1462431  81.6204987  45.7761421   9.2281895
  11.9392748  69.4480743  70.0715637  12.6260929  69.7722244  69.4889526
  11.9451084  68.4994125  69.9441299  20.4028358  54.7218323  13.7132664
  20.5057182  54.7602234  12.7623863  20.0845470  53.8354187  13.8841438
  22.5165234   0.6048709   4.4686337  22.9609833   0.0849032   3.7990654
  22.1581268   1.3534710   3.9917886  21.7307396  53.7358742  61.9697113
  21.8606377  54.6440010  61.6964722  21.1074848  53.7905388  62.6941414
  51.1554909  49.4667397  43.4164238  51.6228752  49.3299789  42.5923615
  50.2502556  49.2243347  43.2214394  70.1922913  45.3842850  54.8662529
  69.3726578  45.8780823  54.8419991  70.8269730  45.9520149  54.4291077
  65.3405228  11.3580723  42.4566307  64.5997314  11.3959761  41.8516312
  65.7808075  10.5349417  42.2448959  24.2309361  60.9579697  27.7430763
  24.1210403  61.4677696  26.9404182  24.0056210  60.0625191  27.4908161
  62.2811089  49.7385559  39.8745918  61.8479576  50.4103012  39.3479347
  63.1964111  50.0162354  39.9112892  76.2895889  26.4563484  29.4012108
  76.5312653  27.3820896  29.3723965  76.4354401  26.1428413  28.5086460
  53.3402100   6.1830039  42.4905090  53.9242592   6.4979267  43.1803932
  53.7278252   5.3545752  42.2082062  62.3791389  59.6727142  23.3726254
  61.5474625  59.9367218  23.7661304  63.0038452  59.6916733  24.0976162
  75.2582779  33.8660088  23.7637291  74.3935623  33.7319069  23.3757687
  75.2507248  34.7773018  24.0565071  75.2451630  47.3705940  15.6756029
  75.3968887  48.0691986  15.0390787  75.0890884  47.8287468  16.5014153
  19.2127686   0.7221919  65.8434525  18.3293514   0.3899035  65.6841049
  19.7030792   0.4862305  65.0559540  78.9709167  58.2381668  25.5048733
  78.1609268  58.0042953  25.0516090  78.7618790  58.1417389  26.4339790
   9.6234045   5.7070026  66.9561539   8.9852667   6.4035101  66.8015900
   9.8370342   5.7799945  67.8863525  43.1973152  48.4570961  53.8223114
  42.7094803  48.1528893  53.0569992  42.5360451  48.8654289  54.3810806
  52.3867950  20.1597137  87.0486145  52.1162300  20.5493011  87.8800278
  51.9678040  20.7036171  86.3816452  27.1735706  42.5692673  44.9286728
  27.1508045  41.9883728  45.6891174  26.8501987  43.4078140  45.2580681
  13.1580648   1.6533582  83.4220657  12.6047220   0.8789595  83.5238037
  12.5467262   2.3581157  83.2080231  55.2681503  70.3165512  53.7933388
  54.9720688  70.9864426  54.4096298  56.0815926  69.9844360  54.1731339
   5.8026333  65.1132431  78.4024734   5.2189260  64.7326126  79.0587006
   6.1420741  64.3604584  77.9184036  11.1777563  52.5955124  12.7286654
  10.6302757  51.9514885  13.1778078  11.8355284  52.8450050  13.3777580
   7.7072420  33.4498787  61.5800400   7.1915483  34.2523270  61.5002441
   7.5627851  33.1609421  62.4810829  56.2239990  44.3502960  85.4923401
  55.7232285  44.9411812  86.0547638  57.0695877  44.2605934  85.9318466
   1.9451592  45.2034874  73.5683365   1.5217687  45.9367256  74.0148163
   1.2246945  44.7233849  73.1600952  37.2350616  34.7068253  48.6315422
  36.4546051  34.9999275  49.1018715  37.6112442  35.5086975  48.2686081
  38.2259903  53.5033264  17.1634064  37.8976707  53.3900719  16.2714367
  37.6864815  52.9166794  17.6935062  23.6301613  23.0629406  15.8769350
  22.8880348  23.6587238  15.9795237  23.2474689  22.2638054  15.5147743
  56.4065971  49.6106987  17.3026333  56.4004860  48.6658478  17.1495094
  56.2016563  49.9929504  16.4493389  71.2115936  22.8870697  78.8963165
  71.9936523  23.2390804  78.4712219  70.5405197  23.5545845  78.7537918
  73.4185104  16.3094807  63.5829239  72.4742050  16.2943306  63.4270630
  73.5957489  17.1972942  63.8937378  16.5538673  58.5832672  56.4078255
  16.6942482  57.7105446  56.0405617  17.4116859  59.0050163  56.3577652
  14.6999874  66.4630280  86.0221176  14.7830963  67.4048157  85.8726196
  14.0696793  66.1707001  85.3637161  47.7573318  40.0130463  43.5496101
  47.1950188  39.6035767  42.8920555  47.3498383  40.8627205  43.7176285
   3.0959647  50.0958138  86.9084396   3.1404500  50.0561028  87.8637848
   2.7699540  50.9758873  86.7202301  55.3730736  37.9371223  43.5380592
  56.3247833  38.0384254  43.5527153  55.0730057  38.3780212  44.3329163
  30.6678143   8.0228577  78.0756989  30.8638134   7.5416036  77.2718277
  29.7229328   8.1719999  78.0412216  78.3592377  68.5261002  17.0087223
  78.1486206  67.8385925  17.6405487  79.3156281  68.5653915  17.0074368
  54.7640457  27.4406490   9.7845783  55.6373329  27.7056198   9.4957981
  54.5895004  27.9863701  10.5513601  61.2501144  51.9458427   5.6892266
  60.4525757  52.4206581   5.9231358  61.9613190  52.5417671   5.9243670
  12.3338890   7.0190039  60.4992371  13.2012491   7.4111309  60.6000137
  12.0725698   7.2419829  59.6058006  71.2408295  33.8697929  33.1192017
  70.5051804  34.3004341  32.6837692  71.0581665  32.9344940  33.0293083
  50.6881180  46.7514839  35.1595497  51.4085121  47.2824135  34.8198738
  51.1101494  45.9584084  35.4899330  42.2910957  65.5455399  48.1991730
  42.3350296  65.2087479  49.0940895  42.6952438  64.8612671  47.6656342
  25.5434303  13.5614910  86.3728180  25.8103580  12.7208595  86.0009003
  26.0336323  14.2121944  85.8703003  78.4659500   7.1964545  10.7672358
  79.1771851   7.6309638  11.2379599  78.8362122   6.9933538   9.9082317
  13.5068369  49.3196068  86.9914856  13.3752756  49.9368172  86.2717819
  14.3235207  48.8697510  86.7749481  66.1147461  23.5613346  28.3354130
  66.1275864  22.6315937  28.5626736  66.0136490  23.5738811  27.3836498
  71.1536713   8.7082062  28.3204556  71.5435486   7.8626242  28.5423126
  71.3362198   9.2625580  29.0791416  61.2178192  35.8496437  39.7614098
  60.9847374  35.0839806  39.2363739  62.1707458  35.8050766  39.8400192
  85.1871185  48.2553406  61.9197540  85.2964249  49.0131226  62.4942551
  84.3030930  48.3493233  61.5649300  42.9365311  60.8924217   9.0403481
  42.7360458  61.8283844   9.0367956  42.2678108  60.5063820   9.6060486
  57.5738258  44.9224129  16.0632629  57.8896599  45.1520042  16.9372005
  58.1902924  44.2594604  15.7523060  83.4937134  18.1625957  13.1980104
  83.1482849  19.0534744  13.2549753  84.1946182  18.2185535  12.5485201
  71.4388123  38.0748787  15.9876604  70.7925568  38.7660027  15.8429680
  72.1244125  38.4932632  16.5083752  75.4492111  60.4275856  84.5004959
  76.1137238  59.7389107  84.4809189  75.5754776  60.8582916  85.3459396
  28.0888252  21.8971100  83.9223175  28.0295372  22.4450169  83.1396866
  27.1886654  21.8386440  84.2425156  18.8942471  40.1741333  21.9272213
  19.5783844  39.6747055  22.3730488  19.1209698  41.0896263  22.0906296
  48.4143410  61.7807961  32.8261032  48.5837708  62.6323776  32.4232025
  48.7469749  61.1454506  32.1921272  42.8663521  48.9241600  73.5130768
  42.7183914  49.6637077  72.9236603  43.7809601  49.0112076  73.7816696
   2.1918848  62.7425995   3.6671484   2.6281552  61.9354439   3.9399145
   1.6338879  62.9757690   4.4091072   2.0335336  15.2960196  79.7783127
   1.7271390  15.8940773  80.4599915   2.9832306  15.4148464  79.7646027
   4.8673296  64.1261139  68.5746918   5.3448205  63.9412041  69.3834152
   5.5504436  64.3107147  67.9300919  79.4034805  66.0661926   3.2262104
  78.7455978  65.4419022   2.9201198  79.2841797  66.0936813   4.1755490
  42.1453857   9.1500816   4.0828223  42.4938049   8.8836498   3.2320287
  42.9196510   9.3733387   4.5994520   1.8165362   7.0014067  15.8254223
   2.5653429   6.6687832  16.3202782   2.0562928   6.8664374  14.9086170
  39.6216927  19.0333576  84.7782974  38.8671036  18.9447136  85.3605042
  39.3370056  18.6364326  83.9551086  66.9699249  21.5053978   5.0230560
  67.8559418  21.7770271   4.7834334  67.0987320  20.8142815   5.6726689
  75.6574249   4.3609333  71.6898346  75.3078384   3.5170181  71.9758911
  76.1403885   4.6895571  72.4481125   6.0818906   6.2048588  86.4076691
   6.0778985   7.1615348  86.3762512   5.3011546   5.9785581  86.9131088
  82.6524658   7.4439621   8.7930346  83.5523605   7.1253414   8.7229395
  82.1139069   6.7042737   8.5118895  49.6738815  58.2593727  74.0671310
  49.7438431  59.1821938  73.8227158  50.3450089  57.8214149  73.5436630
  23.1416340  12.0305033  11.8715591  23.2374420  12.4863920  12.7077522
  22.2133522  12.1190252  11.6554852  17.6183395  19.7104702  16.7339172
  17.0889072  19.7098618  17.5313721  18.4029694  20.2063751  16.9677219
  26.9980679  29.0135040  87.8251801  26.4088364  29.6730576  88.1912766
  27.0772896  28.3540802  88.5144730  31.4670124  43.6675987  28.0619850
  31.0363235  44.1934738  27.3880463  30.7674580  43.4466782  28.6768417
  75.1526871  32.5402946  32.4280853  74.6763992  32.4787483  33.2560921
  74.4979630  32.3385811  31.7595959   1.0075454  62.5658073  75.6254349
   1.4839729  63.3284988  75.9533844   0.8690547  62.7511063  74.6966095
  16.0173683  26.1190434  80.6933365  15.9332628  27.0633011  80.5609207
  15.3469563  25.7370949  80.1268616  11.5728493  40.4513931  80.5125656
  11.4083843  41.2835846  80.9560089  11.2663088  39.7866669  81.1293335
  77.6863480   7.1570373  33.5726471  77.8653641   7.7309661  32.8278046
  77.6890869   6.2748051  33.2013092   2.7471778  51.8851242   1.8592176
   2.1327610  52.1327171   1.1682611   2.2062974  51.4428825   2.5135148
   1.9887700  29.2680569  43.7584000   2.1973219  28.5700607  44.3793182
   2.4907844  30.0219421  44.0680313  79.6792374  24.1128750  21.1650448
  79.2575150  24.1336098  22.0240860  78.9688950  24.2793446  20.5454216
  24.0918922   9.5339909  18.1073513  24.3479671   9.8025341  17.2250004
  23.8282871  10.3471060  18.5381489  67.3518372   6.3394818  20.2610340
  67.6055832   6.7292652  21.0976429  66.9031372   5.5286865  20.5008450
  57.2075768  36.5545120   4.4875736  58.0824890  36.4346199   4.8568749
  56.7167702  35.7866020   4.7802458  27.7271805  34.3595772  82.4062729
  27.1871719  33.6446190  82.0694351  27.3948746  35.1401100  81.9629059
  65.0741272  13.4310179  78.5706863  65.0097046  13.7388496  79.4747467
  64.4786682  12.6827154  78.5294571  84.8743439  45.3287544  40.4505463
  84.3845367  46.0163040  39.9993286  84.2549896  44.9718666  41.0871506
  79.7871475   6.4217014  37.5192719  78.9220963   6.5583711  37.9055901
  80.0676346   7.2948208  37.2450066  79.1117401  63.4459152  20.9313240
  79.3212051  62.8431091  20.2178936  78.6395950  62.9089775  21.5677299
  25.8706722   4.3614922  11.1278992  26.8060608   4.4918313  11.2837534
  25.6993389   3.4698222  11.4308872  23.4761562  32.9336281  16.4559593
  22.7661591  32.7444687  17.0694351  24.2653923  32.9397087  16.9975338
  14.1302032  50.5187187  29.9758339  15.0317087  50.6945724  29.7064018
  13.7614126  50.0048523  29.2573833   5.5448995  69.6447983  71.4075089
   5.8310580  70.3848114  71.9429703   4.6592627  69.8785553  71.1295929
  79.8508682  37.1437340   0.8372711  80.0328751  37.7593269   0.1272379
  80.5723724  37.2689705   1.4536887  33.1009712  26.9811764  77.3471680
  32.7371063  27.2238598  76.4957352  33.8994026  27.5035019  77.4240952
  61.1192932  51.2026291  80.4256973  60.9020195  50.6395226  79.6827774
  61.9995689  50.9293938  80.6839523  64.2334518  57.0834389  70.0747910
  63.9315414  57.7507744  69.4585571  63.8469162  57.3385658  70.9124832
  64.5169678  58.1979027   1.8427515  63.5920715  58.2920265   1.6148593
  64.9468842  58.9344711   1.4081606  48.9249649  44.6617966  56.3306770
  48.4381752  45.4787445  56.2217407  48.7506180  44.3977432  57.2340660
  28.1983852   4.0463896  73.0596466  27.3270016   3.7208805  72.8338928
  28.6724129   3.2718351  73.3622971  51.6169434  49.7906075  17.9082336
  51.0277443  49.0518646  18.0610027  52.2308426  49.7630882  18.6421299
  78.2976608  69.0697708  83.0175858  78.8134995  68.2763443  83.1611862
  78.2130280  69.4610672  83.8870468  20.6104927  67.1363068  26.3251743
  20.9162197  67.4518661  27.1755772  21.4118767  66.9307480  25.8437576
  62.2469482   7.7733908  49.3820686  61.4444885   7.7611089  48.8603973
  62.9195442   7.4280572  48.7950516  17.7028599  43.7321930  50.4995766
  18.5930977  44.0780334  50.4355354  17.6969566  43.2360649  51.3181458
   3.5855091  39.5916901  36.5293922   2.8604472  39.3998337  35.9346542
   4.2318621  38.9096680  36.3468971  36.6970673  28.4229622  80.8240891
  36.8530960  28.0162487  81.6764221  36.7582588  29.3632278  80.9925842
  50.7041893  18.0492325   3.7720640  50.4014206  17.8032494   2.8979609
  51.1673431  17.2749691   4.0918069  26.0722008  13.3210783  11.4269180
  25.1383896  13.1117849  11.4062481  26.1436195  14.1453667  10.9455872
  43.7008667  59.9533310  50.5528564  43.9696236  60.7487450  50.0931625
  44.1283264  59.2436180  50.0734673  50.7840958  26.4247551  47.5439873
  51.1818733  26.7220688  46.7256927  50.4732056  27.2265511  47.9643478
  15.1195974   8.0507011  74.5198288  14.9291439   8.1524086  75.4523621
  15.0610638   8.9378824  74.1652679  32.5508842  60.9037590  52.4250412
  31.6883240  60.8255348  52.0174828  33.1616173  60.6007500  51.7531586
  48.4635582  71.2400208  41.4460831  48.2692833  71.4878082  42.3500137
  47.9511986  71.8498230  40.9151802  27.1460609  61.9904251  33.3951225
  27.4492760  61.0839577  33.3440552  26.6491241  62.1226006  32.5877724
  25.7581520   8.3991680   1.8097390  25.5258026   9.3273087   1.7814270
  26.7137337   8.3897028   1.7549112  64.7930374  37.9350090  83.2963486
  63.9878311  37.4596138  83.0917282  64.5317383  38.8558083  83.3057327
  47.7190132  29.1584091  11.3031054  47.8958740  29.4034233  10.3948545
  47.7001953  28.2014408  11.2937040   4.6984148  69.3023682  67.2779617
   4.2039981  69.2762146  66.4587555   5.0684810  70.1846848  67.3063049
  68.5523605  65.2989349  72.4918594  68.4486847  64.8310013  73.3204193
  68.0546570  66.1080170  72.6098251  83.0852737  10.6056910   5.3176112
  82.5273056  10.4712772   6.0836625  83.4538651   9.7413530   5.1351461
   1.9181700  40.6725426   9.2497435   1.8852786  41.6143684   9.0820570
   1.8346642  40.2721252   8.3843403   6.7663240  68.4192047  14.0590000
   6.8142562  67.9724350  14.9041824   7.4583173  69.0794220  14.0974970
  79.9559250  42.6056137   8.9878883  80.2531815  42.1438789   8.2038774
  79.1338577  42.1749153   9.2222757  60.1142387  34.0193977  59.9813232
  59.7694244  34.4051437  60.7866364  59.6468353  34.4724197  59.2795105
  66.7611008  67.7633667  42.2954254  66.0792694  68.4234619  42.4203377
  67.3591537  67.8945694  43.0311928  67.3602066  65.2259750  39.5989151
  67.2230911  64.7403717  38.7855110  66.8095322  64.7779999  40.2410316
  17.2246532  18.8406582  72.7768021  17.5397854  19.0143776  73.6637878
  16.4398804  19.3819771  72.6911316  28.6016655  64.7337189   2.1683424
  28.6763592  64.6521988   1.2175492  29.0819092  65.5345993   2.3785295
  46.0234871  24.5800991  72.2537384  45.6839447  24.9427032  71.4355316
  45.2676086  24.1555099  72.6594467  26.2704983  66.3549423  16.2458591
  25.6453495  66.7795792  15.6584005  26.7043781  67.0787659  16.6975975
  70.1236801  31.3039265  32.5050888  69.7325745  31.0509815  33.3413200
  70.0548172  30.5191746  31.9613476  71.0947952  21.5595798  11.1097403
  70.2369080  21.8975811  11.3666592  71.5358124  22.3072586  10.7063580
  59.4498367  52.1181374  82.5863953  60.2925301  51.7972488  82.2652588
  59.4616928  53.0558205  82.3944550  10.5938148  57.9079819  60.7009888
  10.8193169  57.2843933  61.3912888  10.9623356  57.5267296  59.9040756
  37.9148483  69.2321014  88.6543884  38.3341751  69.5571823  87.8576965
  37.0074348  69.0680771  88.3976135  59.5496330  56.5605659  35.7643089
  59.1225777  55.9202690  36.3334122  58.9961815  57.3393784  35.8223953
  51.0281792  14.9022331  71.6082687  50.6113167  14.0421553  71.6604462
  50.8032303  15.2248812  70.7356110  60.3659668  30.5586891  18.6763821
  60.7500839  31.3601208  19.0319004  59.6825981  30.3219891  19.3034496
  80.3365250  37.1326675  38.1892204  81.0393906  36.5357857  37.9324303
  80.7033997  37.6361198  38.9159737  57.5236015  10.0720654  13.4558210
  56.9445076  10.3765411  12.7571268  57.1445045   9.2386427  13.7349672
  39.5927315  59.5802765  87.8159943  38.9701843  60.3073463  87.8104324
  39.1240959  58.8670006  88.2494049  45.3432350  51.2782135  12.1381569
  46.2792091  51.1871300  12.3167181  45.2568321  52.1496277  11.7516260
  61.7187843  41.6864090  44.8203659  61.4560051  41.0647087  44.1416359
  62.4834785  42.1311340  44.4547234  55.2645874  33.9677773   3.0270274
  55.4956894  33.9411774   3.9555297  54.3099632  34.0375786   3.0197160
  25.5654869  21.0522861  81.6837845  25.7456360  20.2072964  81.2717514
  25.5298347  20.8591805  82.6206284  59.0850220   3.7025449  70.8555984
  58.1518593   3.9154108  70.8669205  59.1751328   3.0578585  70.1538239
  43.8664742  68.1946259  58.7766228  44.6770554  68.0694046  59.2700882
  43.9840393  67.6687927  57.9854774  62.2209930  57.9794235  35.9224052
  61.4534874  57.4704437  36.1833801  62.9636345  57.4039955  36.1057053
  48.6734810  33.4118156   1.5606458  48.2486305  32.9468460   0.8398591
  49.0106010  32.7181015   2.1275160  16.2151833   7.0227981  85.8902054
  16.4059105   7.5032802  86.6958084  16.0451279   6.1266332  86.1803818
  41.0397263  14.0500603   9.5395794  40.8307114  14.6156006  10.2830229
  40.7729187  13.1751671   9.8217249   0.9497341  36.9197884  79.8050537
   1.3900908  36.5914612  80.5889664   0.4437958  37.6721764  80.1119308
  68.7676239  36.6625824  65.8946075  68.3986816  36.1245193  65.1941757
  69.3341141  37.2881584  65.4429626  36.8211288  13.2187433  81.0349731
  36.7801628  12.9089479  80.1302185  37.6301041  12.8416958  81.3808441
  80.4777756   7.6393290  28.8492203  81.0037766   7.7183013  28.0534077
  80.8632278   6.8995357  29.3186550  38.2407570  24.4135056  13.0786057
  37.5335579  24.8532200  13.5505733  37.7950478  23.7856541  12.5099430
  81.7165070  12.8211603  73.8134918  82.0689926  13.6658297  73.5332794
  80.9864731  12.6564140  73.2167206  75.3324814  14.8357162  82.5526428
  74.4195480  15.1213884  82.5869217  75.3596725  14.2065964  81.8317413
  19.7974701  65.0362320   0.7615791  19.0952549  65.4028244   1.2989178
  19.3777370  64.3328781   0.2662505  77.9066391  16.5809479  26.9909649
  78.8230286  16.4090366  27.2075577  77.6975479  17.3894157  27.4588242
  58.0752602  66.3989716  88.5052948  58.8248215  66.8329926  88.9127426
  58.3589973  66.2228699  87.6082306  73.9785461  51.0238190   5.6944356
  74.0982590  51.6830254   5.0108061  74.8675461  50.7559395   5.9271607
  46.0173264  25.1348057   8.8723717  46.7450485  24.5564137   9.1006584
  45.2914886  24.5415611   8.6788445  50.3537827  30.7301292  20.8788624
  49.4978104  30.4902725  20.5238895  50.8749809  30.9630489  20.1105309
  79.3276291  53.1478081  47.3711777  78.9382019  52.5092659  46.7738075
  79.9397659  53.6428757  46.8267250  82.3384399  54.0738716  39.1936150
  82.2402649  54.6669502  38.4487305  81.7914124  54.4575806  39.8790054
  70.6920776   7.6491809  82.5096741  70.8024673   8.4229879  83.0621872
  71.5532990   7.2314067  82.5077744  57.9407463  20.9337730  25.7843933
  58.0452805  21.7932415  26.1925812  58.0085564  20.3138828  26.5105972
  82.2626343  60.8399429  43.2968750  83.1169357  61.2538795  43.4195938
  81.6783981  61.5611916  43.0629997   6.6343250   1.9879183  21.9328976
   6.4741049   1.1678739  22.3998966   5.8008342   2.1876280  21.5067024
  59.2021179  48.5497437  76.5736618  60.0552483  48.5587883  76.1397018
  58.9449844  47.6277351  76.5772476  72.3152161  18.2514191  37.6474800
  71.8051834  17.5141544  37.3120117  72.8008575  18.5722027  36.8875580
  56.6494827  44.7015305  35.6898689  56.2986641  44.5377998  34.8144531
  56.2785225  44.0043907  36.2308044  82.1459427  67.2591705  79.2473984
  83.0308990  67.4602966  79.5517502  81.6713715  68.0866013  79.3272476
  52.5059090  62.8111877  43.1909828  52.4912987  62.3067284  42.3776321
  53.2169838  62.4230347  43.7008247  72.4787292  14.3607321  29.7299500
  72.9147644  14.9779749  30.3174152  73.1943665  13.8844490  29.3089485
  67.6647720   3.3486276  28.0020008  68.3079681   3.9013584  27.5581226
  67.5657959   3.7444062  28.8679085  82.8640594  30.2849846  86.3573303
  82.1745377  30.7534599  86.8277817  83.6545258  30.4397144  86.8744812
  22.8134022  53.1058617  50.0546532  23.2044983  52.4266129  50.6041069
  23.3864136  53.1543236  49.2894478  45.7151184  51.8807144  47.9788551
  45.2570419  52.6214294  48.3760223  45.0209618  51.2586098  47.7612267
  11.7622948  26.0024433  14.1213732  11.1959629  25.6342182  14.7995396
  12.1875257  26.7488136  14.5436792  44.0346794  55.9500809  12.7044096
  44.9296265  55.6579590  12.5312996  44.0397110  56.8813667  12.4832363
  73.1042252  13.3532066  20.3719215  72.9719849  13.9488897  21.1094208
  73.2512512  13.9295158  19.6219330  21.1151390   8.2001848   3.7603891
  20.8116379   9.0997438   3.8825021  21.8229752   8.0977831   4.3965592
  85.8318405   0.6767874   1.4887654  86.4952545   0.7911816   0.8083019
  85.0546799   0.3764972   1.0175142  59.4399719  13.1237240  71.4215927
  59.2994690  13.9986773  71.0597229  59.2682953  13.2214870  72.3581848
  41.4972916  60.8863640  33.3527298  42.0373917  60.4305305  33.9982796
  42.0121040  60.8572121  32.5462875  72.7138214  69.3018417  50.3934708
  72.1972198  68.5926208  50.7760391  73.0230255  68.9496536  49.5588493
  70.7255478  38.6454620  34.5867500  71.5541382  38.1724548  34.6637993
  70.5288620  38.6330147  33.6500587  61.0191650  42.2035332  58.7242393
  60.3551331  41.5388298  58.9071655  60.5353203  42.9175644  58.3091660
  12.3403988   8.6734486  82.8018951  11.5092096   9.1478930  82.8179321
  12.8191614   9.0538664  82.0654907  20.7176094   0.6199072  37.3130455
  20.4734325   1.3282989  37.9086876  20.3768196  -0.1715786  37.7297516
  19.2393932  52.0460510   0.9134248  18.9749203  51.4054260   0.2532098
  18.4174747  52.4347153   1.2127926  15.7540436  63.1291695  36.2093506
  15.5228128  62.2986221  35.7934685  15.6368332  63.7829628  35.5201111
  16.7883396  43.0424995  72.1843643  16.7050915  43.9922867  72.2692261
  16.9183769  42.7324371  73.0805664   4.1615715  14.1394749  29.8178482
   3.2694890  14.3231039  30.1122990   4.0838943  14.0340672  28.8696461
  60.0402946  20.5895805  14.7811518  60.1312408  21.1418648  15.5576468
  59.1256599  20.6938553  14.5188580   9.4461432  54.1324005  31.5987148
   9.3479710  53.8692894  32.5137901  10.0303831  53.4745560  31.2217064
  83.5290070  25.3085594  78.4151535  84.3089828  25.7880440  78.1359253
  83.4364014  24.6062012  77.7714539  56.4804573  38.4235764  81.5752335
  56.0467339  37.6611366  81.9583817  57.3226585  38.0898361  81.2661285
  33.2981796  28.9409065  16.6539154  33.4957733  29.8415279  16.3968754
  33.0727768  29.0007553  17.5822697  24.5062637   0.5219340  21.9959545
  23.6614075   0.8325721  21.6704483  24.3259068  -0.3568718  22.3297253
  58.6953163  47.8025017  26.0784683  58.6969070  47.0688362  25.4636803
  59.5235329  48.2537079  25.9150620  23.4110432  68.2483826   8.5261774
  22.5316868  68.0351028   8.2139626  23.6595745  67.5014343   9.0707283
  69.4270782  65.5532074  78.7919617  69.7875443  65.7776566  77.9341049
  69.8654251  66.1491776  79.3993301  11.5024548   3.3238626  26.5548840
  10.7255297   2.7874906  26.3970089  11.8524141   3.0000758  27.3848972
  62.6923790  23.8016243  72.0699081  62.6346779  22.8674622  71.8692932
  62.0326958  24.2084274  71.5081558   9.0884295  58.2899513  10.3622122
   8.6618176  57.5399590  10.7766361   8.9994192  58.1273575   9.4231319
  46.8984184  15.0855045  87.1135025  46.7040672  15.8776693  86.6125717
  46.8494949  14.3777466  86.4709167  47.8075829  49.2046776  47.6924515
  47.7246208  48.3199997  48.0483894  46.9105911  49.5378685  47.6674156
  83.9751053  37.3040733  29.9854736  84.6867981  37.9437981  29.9636135
  84.3790512  36.4863777  29.6948948  78.6831970  53.1646309  57.2097282
  77.7544632  52.9635086  57.0947189  79.0290604  52.4232559  57.7066956
  82.3170166  50.3694725  10.2357435  81.4406128  50.0857658  10.4958467
  82.8956375  50.0033646  10.9046221  61.4649773   0.9683409  31.6172352
  62.3517227   0.6090347  31.6458073  61.2574730   1.0201012  30.6842308
  25.8054752  58.8502388  12.0235500  26.1072292  58.1430244  11.4534397
  24.8593960  58.8846855  11.8822031  41.7275352  37.2030144  55.4160309
  42.4376640  37.6268196  54.9340134  40.9355583  37.6508522  55.1186333
  64.8219528  18.7003212  20.2689457  65.2603073  17.8632030  20.1162663
  64.1890564  18.5161800  20.9630375  64.0943604  45.4059944  75.0229416
  64.0143661  45.8472290  75.8686066  64.6236038  44.6299057  75.2068405
  79.9346466  33.6870918  39.4929504  80.3258514  33.6488914  40.3657227
  80.5957336  34.1201553  38.9529037  54.3681831  13.9806013  41.0343628
  53.7455292  14.3507318  40.4086342  54.0188065  14.2231503  41.8918839
  20.8859196  42.3775749  19.7807007  20.6279888  42.4050865  18.8593178
  21.0167465  41.4474678  19.9651299   4.0146513  51.1074562  48.8929024
   4.1357331  50.2195168  48.5565453   3.7993088  50.9859924  49.8176231
  52.8093376  32.8788872   2.9239161  51.9748497  32.7497368   3.3746707
  53.2103157  32.0098572   2.9086452  86.0702286  10.3371468  61.9975014
  85.4199982  10.3915300  62.6978455  86.8519363   9.9851532  62.4232483
  60.1400833  46.2208176  62.0839005  60.3085785  47.0358772  61.6111221
  61.0097809  45.8899574  62.3083801   5.1268449  26.3839130  29.5012360
   5.4180841  26.0302505  28.6607990   5.6950173  27.1391258  29.6531143
   7.5537391  20.1380653   4.3699741   7.4687953  21.0800953   4.2230186
   7.6498442  20.0513115   5.3183780  52.8959618   6.4178190  31.7670116
  52.5926895   5.9690318  32.5562210  53.8412399   6.2677569  31.7544270
  56.5619202  64.7656631  46.2774467  55.6502991  65.0530548  46.2266426
  56.5270081  63.9436874  46.7667046  28.5525074  62.0141563  65.4207153
  28.5147858  61.6683807  66.3124847  28.6464500  62.9599380  65.5343246
  82.9842224  12.3824043  82.2013702  82.9822617  12.6297665  81.2766876
  82.3669510  11.6528273  82.2554474  72.2016068   1.6312413  38.0927315
  72.7925949   1.1535497  37.5106926  71.3472900   1.2221086  37.9549446
  46.4378891  20.5199699  76.8632050  47.0941582  21.2162876  76.8370743
  46.2338219  20.4179306  77.7928162  47.6366882  37.6584358  34.9444847
  46.8900375  38.2007408  35.1987495  47.6846085  37.7479172  33.9926834
  33.2284126  27.9047222  12.2194128  33.0791969  27.6438160  13.1281996
  34.1801643  27.8884506  12.1187372  32.7594566  25.5772572  81.4834671
  33.6540146  25.9168015  81.4569092  32.2151184  26.3145542  81.2071991
  13.9184990  49.1518288  22.3702202  14.5050631  48.4550819  22.6647053
  13.1649122  49.0947418  22.9576550  67.7832184  65.6728363  62.7624893
  67.3952866  64.9116745  62.3307762  68.3071899  65.3037491  63.4734497
  69.5916367  68.2527313   3.4624383  70.5179443  68.0841599   3.6349773
  69.4111862  69.0793457   3.9100637  64.1961441  63.1772690  85.8221741
  63.7808113  62.4932976  85.2969055  63.6500740  63.2423897  86.6056290
  57.7120743  15.7255669  45.7724991  56.9565811  15.8541689  46.3460197
  57.9251060  16.6036263  45.4564934  12.5947599  50.0737457   4.5691409
  12.6286478  49.8999710   5.5098243  13.4335947  50.4906502   4.3722215
  52.4746323  13.4711828  36.3764687  53.0895042  12.7952442  36.0913811
  52.2289352  13.9265108  35.5711479  54.3179779   6.3081174  26.0861416
  53.5727463   6.8747735  26.2855568  53.9234657   5.5007324  25.7564125
  61.1513557  31.3614063  52.2561836  61.4465370  30.5693398  51.8070374
  60.4037399  31.6644173  51.7409248  52.0198708  35.5258293  25.4843750
  51.5128212  35.3929977  24.6834450  52.2570572  36.4530106  25.4666882
  40.8942680  62.8031235  86.3676987  41.0291290  63.2973022  87.1763000
  40.0636444  62.3466682  86.5016708  74.3319550  65.6634521  83.5086288
  74.7099380  64.8038788  83.3228989  73.4100113  65.5771561  83.2661514
  55.7347069  21.2286339  53.2254143  55.2918320  20.7397423  52.5318146
  55.1941528  21.0851555  54.0022354   7.3553467  36.8980179  33.0043869
   7.3013091  35.9569016  32.8382263   7.9629378  37.2239609  32.3404388
  22.9969616  55.4484978  35.6391525  22.9366722  54.5089760  35.8120499
  22.5203247  55.5720482  34.8183098  40.5439301  60.7389641  26.0278759
  39.6901855  60.3807983  26.2709198  40.3818283  61.2113304  25.2112827
  67.4419250  62.7535782  61.4716530  67.6244659  62.9587212  60.5546875
  68.2929764  62.8166313  61.9052010   9.0772867   8.6341562  88.1009598
   9.7949982   8.6696119  87.4686050   8.2926006   8.5138187  87.5661545
  47.7357864  12.7947826  69.1974640  47.0457573  13.4505577  69.2977371
  47.2750206  11.9562149  69.2245102  52.6305885   5.7423162  66.1709671
  52.2971535   6.6282887  66.0291748  51.8606720   5.1800737  66.0852432
  34.0892906  68.0330887  86.7960434  33.3413086  67.4942245  87.0536880
  33.8734474  68.9099350  87.1135101  23.1994781  63.9139175  19.2040539
  22.2994366  63.7747383  18.9094543  23.6823921  63.1613808  18.8624134
  64.3203964  71.3419876  43.4794197  63.5970993  71.4579620  42.8632851
  64.8888779  70.6946259  43.0623055  75.9954376  15.8238993  19.6161137
  75.3695297  15.2919788  19.1246586  75.6227036  15.8806181  20.4959335
  86.7152939  32.7601662  80.0337601  86.2280045  31.9828453  80.3068085
  87.2318649  33.0013695  80.8026581  65.8405151  48.7625580  38.0260773
  66.3450470  47.9772949  38.2382965  65.1934814  48.4658432  37.3861237
   5.4789634  49.8422813  27.2762241   6.0888824  49.7139702  26.5497494
   5.0785308  48.9828186  27.4074173  54.7478256   7.3888259  81.3419800
  55.1300735   7.3697882  82.2193375  55.4750404   7.6321788  80.7691193
  79.7858429  14.1781883  71.6145630  80.6215744  14.4794950  71.2581940
  79.2259750  14.0622339  70.8468857  72.5024185   5.6350389  74.4949417
  72.2178192   4.9867396  75.1391068  72.0156250   6.4274697  74.7214890
  36.2518311  60.0464439  52.7848206  35.7612534  59.6228142  53.4891663
  36.5002022  60.8980179  53.1444969  62.1749992   0.2713411  57.1741714
  62.3764877   0.7165297  56.3511009  63.0304680   0.0791065  57.5581589
   3.9715831  62.1478386  29.6283913   3.7534792  61.5061111  30.3042984
   3.9666092  62.9886246  30.0858631  58.9950714  45.6603699  28.8588600
  59.1261711  46.5980415  28.7180786  58.9544449  45.5644112  29.8103714
  58.0360909  50.1541824  80.3661652  58.9528656  49.8934135  80.4542160
  57.5802765  49.3485565  80.1223755  73.5011292   4.2452340   0.5680779
  73.3246994   3.3368926   0.8130706  72.7716522   4.7399859   0.9413319
  52.5741768  28.2157326   8.2856369  52.9517784  27.7854767   9.0527935
  53.2272377  28.0931988   7.5966296  67.1790543  47.7258911  24.0973721
  67.1528397  48.4642296  24.7059765  68.0816193  47.7098389  23.7790241
   6.6475382  31.6424942   7.8308511   6.7069316  30.9250870   8.4617462
   6.5766625  32.4302711   8.3699379  19.9995975  47.6152115  61.8961563
  20.6792927  47.4505997  62.5497208  20.2257881  48.4680061  61.5249290
  65.1378860  39.4018173  70.3463287  64.2638168  39.2295380  69.9962616
  65.3660812  40.2667961  70.0057755  48.1627769  45.7333641  80.3858566
  48.0908508  45.1139412  79.6596527  47.4726868  45.4699020  80.9946213
  51.9725571  22.2457333   9.4312038  52.1961823  22.0647125   8.5182667
  51.5690422  21.4360733   9.7440281  71.6513214  48.7731323  12.4909382
  71.7307434  48.6758919  11.5420074  72.3441391  48.2171593  12.8474941
  14.0908384  66.3352051  21.8673573  14.1894865  65.8531113  21.0463276
  14.0257587  65.6553192  22.5379906  73.3404465   4.3011336  51.6430435
  73.9366913   4.9935389  51.3579140  72.9744644   3.9507611  50.8309288
  79.8163300   0.8655840  27.3617191  79.4215393  -0.0062971  27.3476810
  79.1693039   1.4143727  27.8049088  36.6190033  58.4844551  34.6505089
  36.6376953  58.3427391  35.5969772  37.1637192  59.2595444  34.5135803
  77.7485123  26.2908459   5.8448968  77.4198303  27.1528740   6.1000562
  78.2013474  25.9670639   6.6235743  51.9188576  27.3497066  33.4043922
  52.5016403  26.7014999  33.7998924  51.0480118  26.9569111  33.4641685
  74.6906967   9.5496397  88.6831665  73.7358856   9.6095266  88.7143173
  74.8694000   8.6127787  88.6019974  33.9367447  30.6856213   5.5917768
  34.6211548  30.2726593   5.0652018  33.1561127  30.6520576   5.0388622
  39.1750793  10.1643820  73.9110641  39.7875137   9.9598093  73.2044449
  38.3281097   9.8533573  73.5914764  23.8779411  34.6383133  53.6581573
  23.7156887  34.5987091  52.7156410  23.0361004  34.4157867  54.0556717
  32.8402290  32.5584869  70.6935501  33.6140175  32.2323685  70.2340622
  32.3507614  31.7699738  70.9278641  52.5189400  39.1557655  46.8409500
  52.0141830  39.9007492  46.5146790  53.3258171  39.1692696  46.3261719
  18.3141594  44.0096054  63.4904480  18.9506645  44.1050644  62.7819405
  18.1955185  43.0640221  63.5800438  86.1130447  10.0063438   1.5084244
  86.3882904  10.8325577   1.9057178  86.7868958   9.3787384   1.7696966
  34.7800293  25.1102600   6.8451657  34.3934250  25.9793777   6.7383895
  35.5665245  25.1293392   6.2999225  71.2676315  58.2959785  60.1966476
  71.3181381  59.1962662  60.5178452  71.7325363  58.3136978  59.3601189
  44.4626503   5.4393482  45.5041504  44.9090080   4.5925965  45.5070801
  44.5796928   5.7748723  46.3929443  67.3521957  42.6797981  89.2462311
  68.2783279  42.4530525  89.1619492  67.1081467  43.0147667  88.3834000
   8.0316105  22.6852036  -0.2235678   7.3098187  23.2180996   0.1100063
   8.0336485  21.9080009   0.3351651  49.1643524  67.7023010   0.7368171
  49.9207726  68.2885056   0.7160648  48.6889381  67.9527130   1.5289725
  45.0965233  56.3457184  71.5267487  44.4393005  56.3287888  72.2224579
  45.7632828  56.9559021  71.8419418  48.3773155  55.1950493  37.8155937
  49.0118752  55.8839722  38.0129509  48.8146286  54.6458664  37.1649132
   5.8834553   0.9839998  17.6234818   6.3269854   1.8150687  17.7932968
   4.9906135   1.1198194  17.9406853  12.5908833  37.5794678   5.5398817
  12.7732124  37.6729240   6.4748974  12.9698105  36.7322960   5.3054714
  22.2888947  44.4016647  62.8958015  21.5083942  44.4283905  62.3423233
  22.2863445  45.2419662  63.3541908  20.6370773  55.8349075  85.0727692
  21.2032032  56.5243530  85.4197540  20.0902920  55.5777359  85.8151398
  54.5381393  14.7669249  70.0312271  55.3130150  14.8242245  69.4721985
  54.8398476  15.0633392  70.8899155  67.0557175  32.9981308  34.7077522
  66.2744370  32.7598457  34.2087021  67.1388855  32.3084373  35.3662643
  57.7172012  54.7245026   9.1381788  58.4719391  54.8234940   8.5578308
  57.6099167  55.5862999   9.5407000  12.3650770  51.1396751  74.4469223
  11.5466642  50.6460228  74.4992523  12.9440336  50.7110786  75.0772781
  58.0223389  58.1126709  49.8036957  57.2547760  57.5407867  49.7982941
  58.7666626  57.5152397  49.7309647  33.8298454  38.8258553  29.6948776
  34.4879227  38.6808777  29.0150661  33.6333923  39.7612114  29.6424694
  59.6879311  54.1420059  19.9861603  59.5172920  54.9832802  20.4096851
  60.6423416  54.0875816  19.9374809  32.9416313  59.9450417  66.2267532
  32.0532417  59.5888214  66.2168503  33.4065628  59.4112206  66.8710403
  27.3214912  52.9444313  13.4609566  26.8440609  52.3365021  14.0255060
  28.1253223  52.4778023  13.2321663  37.3800316  45.3668556  45.4339027
  36.8223877  44.6496239  45.1324997  37.5096741  45.9118652  44.6577644
  65.9568710   1.1836264  33.1618843  65.2826920   0.6397104  32.7546120
  65.8810730   2.0295889  32.7204857  17.8759499  71.1550903  89.1664886
  17.2872066  70.5926895  88.6631851  17.4701309  72.0211945  89.1289062
  71.0059433  68.2907791  38.2175713  70.3769073  67.6287003  38.5042725
  70.8251343  69.0492630  38.7727737  53.0371590  23.2098446  37.4952164
  52.2634926  23.0471554  38.0348511  52.6886482  23.3636189  36.6170769
  42.1121941  52.6080894  10.6044321  41.7747879  51.7570000  10.8837843
  42.6725845  52.4091072   9.8543644  19.5707855   9.1454773  82.6234131
  20.1994209   9.6787090  83.1099472  18.9613152   8.8266602  83.2890930
  83.2267685  48.8561897  80.8618011  82.3487549  49.1285706  81.1285095
  83.0840302  48.0690460  80.3361893  52.9633751  56.0355110  67.2278061
  53.3626556  56.9049225  67.2583389  52.1104088  56.1779556  66.8174591
  60.3562889  69.7382889  16.2452812  60.4687576  69.0909729  15.5491762
  61.1499290  70.2720184  16.2065353  15.9477606  57.4683800  53.4507790
  16.4578075  58.2620316  53.6126404  15.2021646  57.5370560  54.0471039
   3.3431380  27.3897572  76.0775757   3.3872533  28.2019749  75.5730057
   3.9770081  26.8103962  75.6547546  26.7874336  67.3636627  55.0024338
  27.1878662  66.8211136  55.6817894  26.1982346  66.7694397  54.5377007
  81.3147125  59.0607834   6.6013703  81.2118835  58.5047989   5.8290091
  80.8459244  58.5964890   7.2948370  83.1775055  63.1460152  10.1499262
  82.6327438  62.9997368  10.9232779  83.2710114  62.2789574   9.7553396
  52.7715759  57.3130798  44.9899826  52.5679932  57.0389900  45.8842239
  53.4133377  56.6724854  44.6833649  67.5089264  43.0649872  25.0163746
  67.0891953  43.7108803  24.4481449  67.3008881  43.3559456  25.9042339
  47.9636612  62.3730087  58.2213058  48.5070648  62.9197388  57.6538315
  47.9670486  62.8256950  59.0646896  46.4970474   9.0757599  19.7659931
  47.1797562   9.2048502  20.4243851  46.8325119   9.5141077  18.9839802
   1.4819040   8.7703047   3.2158904   0.9685940   8.9676504   3.9993439
   1.7829385   7.8711796   3.3469791   7.4125352  60.8055420  44.5031319
   7.0941930  61.3949432  43.8193970   7.3573017  61.3205338  45.3080940
   6.0818834  36.6819000  29.8916473   5.5144372  37.2233810  29.3429832
   6.5892239  37.3105011  30.4051647  50.7238541  44.2811852  71.7484283
  51.4542274  43.7990341  71.3607254  50.9449081  44.3443718  72.6776123
  55.5866585  54.8807068  64.9323730  56.0418663  55.1089821  65.7428741
  55.8173409  55.5815353  64.3225708  70.6869888  47.7306137  69.3618164
  71.2621384  47.1051712  69.8025589  69.9097824  47.7749557  69.9187851
  58.7289391  27.1323376  54.0758705  58.0914955  27.1019840  54.7892952
  58.3546333  26.5717926  53.3962250  64.6620102  62.4067764   8.8678675
  64.0198975  63.1106415   8.7756672  65.0793076  62.3491554   8.0083475
  17.4135418  62.0659561  72.3231735  17.4075050  62.4331360  71.4392242
  16.6950455  61.4335060  72.3247299  78.7688293  28.0679550  74.3408508
  78.6218719  28.0982132  73.3954849  78.9278641  27.1430073  74.5290375
  30.5656204   5.9837937  69.8119659  31.2038555   5.3356533  69.5139694
  31.0963840   6.6977262  70.1652679  17.3119106  52.9047508  36.0174789
  17.9078636  53.3130493  35.3894958  16.6090488  53.5444565  36.1314621
  68.5005188   8.0188999  52.4050713  68.2467270   7.1232600  52.1822395
  68.6027985   8.4561977  51.5597649  60.4122314  14.6381264  60.7864609
  60.5404892  15.5036459  61.1746063  60.7035103  14.0267267  61.4629059
  67.0748444  67.4422913   3.4151726  68.0134354  67.6048279   3.3210602
  66.9553146  67.2619095   4.3475924  31.5096836  63.6021576  44.6930618
  31.3604088  63.7372665  45.6288452  32.0136452  62.7897415  44.6457558
  77.7423401  69.8928986  68.0372543  77.5509796  69.0327530  68.4111176
  78.6410751  69.8198624  67.7160339  21.8571224  29.7244606  62.7128487
  22.6382980  29.5368690  63.2332344  21.2936935  30.2286682  63.2998352
  71.1635437  61.8931923  75.0000458  71.5322571  61.1513023  74.5205765
  71.6062469  61.8738976  75.8484955  63.5462532  60.3592453  84.9660187
  63.9605179  59.7224541  85.5483551  62.6104202  60.2791824  85.1505203
  16.3370972  21.4154091  87.7125397  16.3269997  20.9517403  88.5498810
  15.4389200  21.7267132  87.6002960  83.7021790  14.4377174  63.5904312
  84.3574524  13.8526011  63.9705544  84.1716614  14.9074907  62.9011269
   9.4979010  34.8563690  48.1173553   9.3491030  34.2866821  48.8720398
   8.7304077  35.4278793  48.0936623  79.2638168  47.3480911  23.6232357
  79.3340836  47.0642204  22.7118015  79.4074631  48.2939110  23.5912685
  49.7272758  56.5342979  19.3506813  50.2480583  56.5519447  20.1536179
  49.3041611  55.6757278  19.3584518  55.2099686  18.6296940  19.5801411
  55.2377892  19.5834179  19.5035305  54.9639130  18.3262920  18.7062778
  13.7924156  39.0512314  86.5233078  13.2328873  39.7874832  86.2761383
  14.6669998  39.4317093  86.6043625  68.7413101  29.6002293  42.3898239
  69.0503006  29.0801277  43.1316147  68.9055786  30.5071392  42.6482124
  73.6480865   2.0845747  40.5201645  73.0498810   2.1671350  41.2628326
  73.0744934   2.0211082  39.7564964  20.8608723  38.8740692  23.2239265
  21.4945621  39.2897415  23.8086376  20.5318146  38.1250916  23.7209053
  31.3777504  54.3180809  36.2273369  32.3027306  54.1059837  36.3524895
  31.3776188  55.2336273  35.9480515  54.1325455  23.4300957  68.3096619
  54.6545219  23.6802807  69.0720139  54.4568863  23.9889507  67.6034622
   0.8802398  11.9069977  31.2939110   0.7709675  12.6877804  30.7510757
   0.9775143  12.2457228  32.1838722   3.6270974  51.4808006  30.9466496
   4.5597277  51.5489388  31.1510735   3.4770589  50.5436821  30.8220272
  18.5514755  44.1270065  54.6419868  19.4624538  44.1051369  54.3489532
  18.5218029  43.5154533  55.3777542  18.7412071  44.6824188  68.7593765
  18.9351978  45.4288330  69.3263550  17.8396664  44.8275986  68.4723587
  86.0079803  32.2882385  60.3207779  86.3810272  32.1008339  61.1821404
  86.4588242  31.6864777  59.7284431  23.2993393  65.6293945   6.6035290
  22.5325069  66.2006607   6.6465287  22.9404526  64.7430725   6.6468415
  24.1869144  26.2896824  14.2773466  23.6591511  25.6143951  13.8511028
  23.9029541  26.2742023  15.1913261  61.8070641  49.1858482  56.5737228
  62.5531960  49.0697632  55.9854698  61.0715828  49.3792152  55.9924202
  42.1254234  35.8818550  17.4584503  42.9936066  35.6082497  17.1624317
  41.5941849  35.0871124  17.4094505  13.4122057  46.9490891  88.8259277
  13.4124575  47.7252731  88.2657776  12.5184298  46.6115456  88.7670822
   4.6989427  48.7888641  63.5946617   4.8483224  48.7268791  62.6512260
   3.7504268  48.8840218  63.6812325  54.3804131  32.9549026  75.7217636
  55.2882156  33.2551994  75.6776276  53.8834534  33.6247444  75.2521057
  33.0426025  71.2166519  51.6079254  32.5786514  70.4592514  51.2511024
  32.6417847  71.9695435  51.1734924  58.8428955  66.3091736  39.8134537
  58.6546478  66.9648666  40.4849205  58.4376259  66.6567535  39.0189896
  48.3624916  59.4386787  53.5256386  48.1559601  60.3499908  53.3180656
  47.5123749  59.0334511  53.6968880  43.1048050   4.7810712  31.0229206
  42.1982040   4.5888209  31.2624035  43.6289864   4.2775416  31.6457558
   3.4996023  17.4419746   0.2807629   4.0969520  18.0958881  -0.0822831
   2.7513793  17.9494457   0.5951928   1.2836457  26.5093098  47.9438591
   1.6418301  27.0867310  47.2696762   0.6575914  25.9557076  47.4771538
  77.0148849   8.1874142  41.3144341  77.4870834   9.0102959  41.1874275
  76.4311829   8.3578472  42.0536766  83.6051483  39.7471352  32.1255875
  83.7527618  40.6230812  31.7689896  82.8283005  39.4290657  31.6656170
  10.1894474   3.8742325  22.8778725  11.0682497   3.5521736  23.0784111
  10.1600876   4.7482772  23.2669945  86.1675873  28.7231541  86.8276825
  85.7523575  27.8612614  86.7967377  87.0655518  28.5464745  87.1081619
  22.3660450  69.3554001  20.8903637  22.7157974  68.9456940  20.0991344
  22.1586552  70.2512589  20.6245518  47.7949448  11.4377279  88.2383194
  46.9299927  11.1174288  87.9823990  47.6351242  12.3223534  88.5671463
  78.7580872  35.9048996  41.6134796  78.4445114  36.1577034  40.7451515
  79.1177673  35.0262337  41.4917984   2.9056005  14.0031013   5.4464350
   2.5291080  13.9342070   4.5690870   3.7876642  14.3457766   5.3023210
  86.1351624  27.9443531  74.2234802  85.3671722  28.0999184  73.6737289
  86.6471710  27.2949314  73.7414703  42.4302254   5.4157529  21.1542683
  42.0559616   5.9924884  21.8202515  43.1932869   5.8917837  20.8266048
  67.8278809  46.9348602  58.5575752  68.1139450  46.0849800  58.2227554
  67.4201050  47.3637505  57.8052444  24.4145031  43.8053589  81.8143768
  24.0791893  44.1420784  80.9834671  23.9371910  44.2975121  82.4823532
  77.3627853  18.9722805  10.1744986  76.8456879  19.5189228  10.7661304
  77.3812332  18.1134109  10.5966749  26.2225590  39.3506203  36.4902573
  27.0161228  39.0093346  36.0779305  26.5243587  39.7232590  37.3186836
  63.5724869  34.0410995  58.7475548  64.3046036  33.8531570  58.1602554
  63.2718277  34.9110222  58.4847412  66.0572510  43.9848480  76.2132568
  65.8297882  44.5939903  76.9157028  66.8240891  44.3767242  75.7953720
  85.0745544  23.6713791  52.5249748  84.4764862  24.3118267  52.9101639
  84.8481140  23.6612759  51.5950012  23.3050480  16.6315403  86.0261765
  22.8011513  17.3511295  86.4063187  22.7272758  16.2607174  85.3591690
  82.7806931  26.0157661  67.3104401  82.9460907  25.2731457  67.8912964
  82.7793121  25.6366978  66.4314957  82.3319092   1.1514992  84.8552399
  82.1766434   0.6790860  84.0373459  83.1546173   1.6185852  84.7095795
  82.4372025   6.1638875  72.5497437  82.9163513   6.0197911  73.3657608
  81.5300751   6.2967248  72.8248901   3.8489277  59.8478508  50.7478027
   4.6717877  59.6187744  51.1798439   4.0604911  60.6204948  50.2238846
  45.9743843  26.8128395  23.6126385  45.0939903  27.0904770  23.3595486
  46.0346031  27.0267620  24.5436821  85.3868408  65.7000275  46.0983162
  84.4579544  65.9166183  46.1788139  85.6126099  65.9434280  45.2005310
   9.2122021  33.2421494  73.5942535   8.9559145  32.4393768  73.1402664
   8.7130308  33.9332428  73.1589966   6.1098328  33.8153534  13.2055759
   6.9033508  33.6570816  13.7169571   5.8858342  32.9595566  12.8399725
  76.1306152  42.6369057  58.0289345  76.2184525  42.1869354  57.1886711
  75.6281586  42.0310822  58.5736771  21.4810524  48.7881203  88.0878067
  21.9114418  47.9356728  88.1536179  22.0771885  49.3171234  87.5577087
  80.1005325  51.1439705  58.3476791  81.0106659  50.8923836  58.5045052
  79.5861053  50.4837799  58.8121681  25.3322029   7.2458320  73.9897079
  24.9822159   6.4851065  73.5259933  24.5849037   7.8374958  74.0775070
   3.3258595  48.5389900  82.2800522   3.0487173  49.4398956  82.1133423
   3.5573952  48.5275955  83.2087555  29.1357498  43.9095039  88.4503479
  29.7621746  43.3748474  88.9381714  29.4251289  44.8102188  88.5959778
  16.3968315  68.9394684  52.0636520  16.2616615  68.8802795  53.0094109
  16.7555981  68.0863953  51.8191299  86.5560684  37.7689857  51.3181915
  85.6595535  38.0796051  51.1916771  86.7666092  37.3078537  50.5062408
  12.9900436   4.3040462  16.3785534  13.0592070   3.6918509  17.1111279
  13.8610897   4.6949649  16.3100471  48.7567520  36.1311646  64.5937271
  48.7187538  35.6931877  63.7434540  49.5018959  36.7277832  64.5227356
  76.3786545  56.9133835  65.2713165  76.9930954  57.3940811  64.7166748
  76.0531540  57.5668373  65.8904114  79.4251938  35.5842361  13.5057716
  80.2864227  35.2206192  13.3000822  78.8443832  34.8238678  13.5326977
  33.3740005  27.0337791  64.7860260  32.8579407  26.5003719  65.3905029
  33.3985443  26.5229263  63.9769135  28.1948814  63.4300919  75.6741333
  28.8821449  63.2544746  76.3168259  27.5326080  63.9216461  76.1599274
  44.2877808   3.7732005   3.9778781  43.7288704   4.5064998   4.2350240
  44.5220299   3.9580350   3.0683756  63.2200623  19.6203709  11.2038622
  62.6412392  20.1070614  11.7906599  62.6272392  19.1159458  10.6467724
  20.3438835  42.9643745  46.5941124  21.1854935  43.0296211  47.0454063
  20.4559288  43.4889336  45.8013191  47.9421692  23.8556824  64.5504837
  48.6372681  24.3255997  65.0111847  47.2494125  24.5060062  64.4347382
   8.5516510   4.3778586  29.1073380   8.9079266   5.0605869  29.6758270
   7.9269557   3.9080141  29.6598167  79.0523148  71.1440048  57.4855347
  79.2260666  71.6889648  56.7180290  79.3842850  71.6560745  58.2229767
  13.9175539  57.3912544   0.3933126  14.5279207  57.8841400   0.9417176
  14.4220352  57.1734352  -0.3904516  69.8334808  47.5732079  60.4576492
  69.5723495  47.0808525  61.2358742  69.1563110  47.3754005  59.8106918
  67.4967880  35.8801384  17.7535801  68.1590958  35.1899986  17.7176075
  66.6815262  35.4196014  17.9522915  53.4571991  30.5282364  76.5516434
  54.2419586  30.0026417  76.3962860  53.6921005  31.4049835  76.2477188
   5.7027378  35.8191490  70.8099594   5.2331266  36.0808029  71.6019440
   5.5923681  36.5576401  70.2110596  54.0251465  20.8963757  17.7249832
  53.6787262  21.1643353  16.8738518  54.9756126  20.9139309  17.6130199
  78.2533264  10.9181442  58.5911827  78.0186539  10.5058193  57.7598267
  79.0518112  11.4093666  58.3979225  48.8026390  48.3324776  44.9402084
  48.7642593  47.4275818  45.2499313  49.2064629  48.8154907  45.6612206
  58.4642372  16.3348598  66.8490753  57.6167259  16.7431889  66.6723862
  59.0736351  17.0694733  66.9212494   1.3566368  56.1248207  84.6707916
   1.1819845  55.6718407  83.8458405   1.3633827  57.0531387  84.4375305
  83.0054016  38.0985069  14.1724596  83.7240448  38.0331917  14.8013563
  82.2310181  37.8255615  14.6644640  61.3608398  13.7392664  33.4161224
  61.1654472  13.7922382  34.3516693  60.6787224  13.1694069  33.0608673
  73.5919800  65.4777679  13.1227598  72.9678040  65.6714096  13.8221445
  73.3559113  64.5982895  12.8277788   7.5186934  66.9410172  86.7366409
   6.8150215  67.5785599  86.6157379   7.0868735  66.1774445  87.1196823
  21.3783588  29.0676727  14.4966402  22.3192177  29.2349339  14.5517807
  20.9726295  29.8756180  14.8110294   0.9643221  69.6065216  10.2613783
   0.3500652  69.8755035  10.9444370   1.8185525  69.6082230  10.6932573
  45.2897949  67.1327744   8.2864799  44.8442459  67.9788666   8.2434158
  45.9690819  67.2532959   8.9500132   6.2917175  25.5866508  71.8418961
   6.4840975  24.8495655  71.2623062   6.9965596  26.2125301  71.6754532
   6.2990222  68.2307205   1.0973926   5.6254945  68.4388962   0.4498921
   7.0210490  68.8243790   0.8912724   2.4161975   8.3945951  78.9362259
   1.4700127   8.5302334  78.8855438   2.6187193   7.8365526  78.1853561
  47.6449509  43.3750229  73.3373260  48.4605598  43.8644485  73.2302017
  47.4687653  43.0103569  72.4700241   0.5367122  58.7725792  83.5741196
   0.1641227  59.2682228  82.8449097   0.1666220  59.1822472  84.3560638
  57.0734100   0.6116747  37.0746536  57.8083992   0.0664665  37.3553200
  56.4403877  -0.0079378  36.7118950  18.9078941  36.4869156  56.8412285
  19.6442757  37.0207787  57.1394920  19.2919769  35.8825760  56.2060242
  86.0185928  25.1065006  70.3194351  86.6904907  25.2429848  70.9873886
  86.2269440  25.7438869  69.6363831  11.3501186  33.0519829  14.3426132
  11.6146584  32.9835167  15.2599802  11.0214005  32.1803780  14.1224432
   8.4541607  45.9097443  73.9244461   7.7718501  45.2548065  74.0718994
   8.0169687  46.6043663  73.4319153  58.1860657   3.3692183  56.6871376
  57.6594543   2.7103841  56.2345314  58.8163414   2.8619826  57.1987000
  21.3865204  61.2876053  72.6303253  20.6581955  61.7179108  73.0782242
  21.8982582  60.8885612  73.3339691  84.4630508  44.1579628  83.5974197
  84.2705917  44.6502151  84.3954697  84.6704865  44.8284874  82.9465790
  34.3851242  41.0648003   8.7359276  34.6803551  40.3400002   8.1848068
  34.4631920  40.7328377   9.6303186  77.5283585  32.9759064  74.9877930
  77.9420700  33.3960114  74.2337418  76.6053619  33.2207909  74.9218597
  60.0720901  27.9317780   1.0824658  59.7612877  28.6625004   0.5479780
  60.8381882  27.6009159   0.6135805  67.8424149  48.2787704  87.6128159
  67.7727814  48.9193687  88.3206406  68.1380081  47.4768181  88.0437851
  59.4201202  23.3962364  20.4429092  58.6453743  23.5979176  20.9676228
  60.1460571  23.7908535  20.9261589  71.0417862  11.8352795  37.5954437
  71.2318039  10.8978758  37.6328545  70.0909119  11.8908806  37.6901474
   0.1610901  62.4003906  83.7518616  -0.2753528  62.4500465  84.6023178
   0.9327766  62.9588928  83.8456955  53.0885582   6.0478182  87.1292725
  52.2496567   6.0360460  86.6684647  53.0769882   6.8653698  87.6269684
  10.8769207  56.4669266  67.2153244  10.5202084  55.6456451  67.5536880
  10.4290552  56.5961609  66.3792953  29.1081829  27.2420235   1.7268298
  29.4648113  28.1046600   1.5149250  28.9379082  27.2778664   2.6680808
  75.6418152  66.6774750  28.7757645  76.5332642  66.8169785  28.4562569
  75.7500305  66.4664841  29.7031288  23.3668461  30.1586895  26.1148529
  23.3560886  30.7735844  26.8483524  24.0526981  29.5298958  26.3394737
   8.6462336  38.1353607   6.0892677   8.1679573  38.1162033   5.2603426
   9.1761742  38.9310570   6.0416880  38.2133942  21.7923203  66.9309540
  37.7352295  21.7744350  67.7599716  38.6587143  22.6396217  66.9295425
  63.6047249  59.8672562  46.8876877  64.1655426  60.0538139  47.6406212
  62.7539024  60.2356339  47.1256561  42.1158829  58.7987061  57.9887390
  42.3847122  58.0656357  58.5424232  42.8279533  59.4333115  58.0691566
  65.5295944  37.9184151   9.4794836  66.1833572  37.5000343   8.9193144
  65.1006470  37.1915436   9.9310255  37.8713455  30.3456039  71.7158051
  38.7464294  30.7331638  71.6998672  38.0179405  29.4158821  71.5415726
  59.7593269  21.0419121  65.1735229  58.9918747  20.5406666  64.8978424
  60.4283600  20.8335972  64.5214233   8.2233477  25.8681717  24.2816067
   7.6924028  26.0931358  25.0456219   8.7299929  26.6598454  24.1005116
  39.9752655  63.4060783  30.6672497  39.4249344  63.9861031  31.1934986
  40.2930870  62.7497826  31.2873268  32.5670166  63.7159424  34.2867737
  33.0774040  63.7174149  33.4770012  31.8477859  64.3245010  34.1176758
  28.5644493  35.3922043  69.3596420  28.4559059  36.0620880  68.6845856
  28.2096786  34.5953140  68.9655151  14.7971392  32.2940331   6.7320862
  15.0646858  32.0085869   5.8584895  14.6670446  31.4810505   7.2203169
  39.7510796  38.4026909  11.2767506  40.5021515  37.9558945  11.6672564
  39.8665466  39.3215332  11.5188713  76.5410919  42.1146774  64.0634766
  76.6176605  41.9515343  65.0035553  75.9731216  41.4134712  63.7441750
  55.5269051  59.4531326  44.5306435  55.8888245  60.3127594  44.3154984
  54.5945587  59.6150246  44.6747017  33.5375481  17.6173077   3.3762403
  33.4020920  17.1284752   2.5644972  34.4427795  17.9238262   3.3230290
  56.5793343  63.8121109  33.4583511  55.8196373  64.2969131  33.7809372
  57.3317604  64.3385010  33.7285347  67.6725235  49.5948181  63.1892776
  68.5997925  49.4943123  63.4044495  67.2126541  49.3561707  63.9941368
  76.3363800  17.8997746  34.7569656  75.9687576  17.7185192  35.6219711
  76.2880173  17.0623341  34.2958946  64.5277710  18.6502762  45.6923332
  63.8148232  18.0203953  45.7981339  64.1346359  19.4956512  45.9091759
  84.7013855   6.9042387  80.4627304  84.2249527   6.9500933  81.2916718
  84.0221786   6.7605815  79.8037338  55.8398895  23.1494350  14.4478502
  55.3130341  22.7991467  15.1661472  56.7265167  23.2021465  14.8047056
  17.6114235  13.8029318  73.2583313  16.8888588  13.2410421  73.5383530
  17.2510223  14.3128624  72.5328598  49.3050537  25.6950512   4.5060644
  50.1874809  25.6746578   4.8763862  48.7385330  25.4048004   5.2209358
  80.5168457  40.8781967  75.7225952  79.7287674  40.8979645  76.2655258
  80.6850662  39.9469872  75.5784149  10.6845560  23.4120140  27.2274818
  10.6071100  23.5889645  26.2899723  10.7823610  22.4615345  27.2845459
  63.7797165  41.3130379  66.8525620  63.5373878  40.4815788  66.4449005
  63.5635071  41.9741821  66.1950073   9.2442217  55.6599236  29.4096088
   9.6010132  55.1344948  30.1257496   8.3436708  55.3507652  29.3113155
  11.0373392  38.3551521  32.7148247  11.6978664  38.8918724  32.2767982
  10.2856884  38.3694954  32.1223335  38.5699921  45.9161110  50.0364799
  38.5397873  46.8726425  50.0555763  39.2555428  45.6855583  50.6634560
  42.0389366  56.1623878  51.2872925  41.2177086  56.1513443  50.7956696
  42.7106400  55.9598122  50.6361313  48.8913422  44.5268135  27.0811958
  48.1900368  44.6251907  27.7251892  49.3195229  43.7038918  27.3171940
  67.8121262  66.8174744  30.4779892  68.4387970  67.2426910  31.0634022
  67.0073090  67.3257599  30.5787163  65.6342545  60.7108421  78.8319321
  64.9899826  61.1893349  78.3102112  65.2089844  59.8768806  79.0316620
  62.7366447  47.6118965  66.8814316  63.0721245  47.8563690  66.0189209
  61.7872505  47.7069206  66.8048935  14.6210995  10.4425201  75.5742874
  15.1684141  11.0564480  75.0846252  14.1039152  10.9964991  76.1589737
  86.0046539  40.7059174  34.9579773  86.9043503  40.8648834  35.2434731
  85.9586105  41.0937576  34.0840836  34.5615387  47.6535454  27.1946144
  34.2087440  46.7839127  27.0061855  34.2397690  48.2026329  26.4796295
   4.3030734  43.0395279  50.7285919   4.9022727  42.9118614  49.9931374
   4.3667622  42.2285080  51.2329941  55.8672523   3.1539834  62.5289192
  56.4079971   3.9294145  62.3788147  56.3568878   2.6413949  63.1721458
   1.4710038   4.9365563  21.7371597   1.5367337   5.8828259  21.6087646
   0.6874641   4.6825414  21.2495384  53.6881752  31.4988022  64.8980789
  53.6706963  32.2377014  65.5063171  53.5705223  31.8960514  64.0351868
  81.4104156  41.0065575  43.3507919  81.3189926  40.7269173  42.4399261
  80.5109177  41.0870171  43.6680603  41.9434967  68.1451569  25.6134930
  42.7342529  67.6312180  25.4497681  41.4543991  68.1004333  24.7919006
  37.8669968  30.8411350  76.5593872  37.7532501  29.9197083  76.3264389
  38.6949120  31.0914116  76.1493225  63.5259628  48.6977043  12.2656584
  64.2928009  49.1204071  11.8789873  63.7794266  48.5249481  13.1723795
  66.8025894  34.1537476  23.6984577  67.1632690  33.7071419  24.4644108
  66.3605804  34.9237213  24.0562325  49.3527184  33.1652374  86.0577240
  49.7043571  33.8646278  86.6085815  49.0951500  33.6050758  85.2475204
  76.9645691  60.9776306  14.4801321  76.7269287  61.8852005  14.2901840
  77.8898697  60.9175758  14.2425680  83.2216263  12.3125181  31.9950943
  83.7459183  12.7392292  31.3174000  82.8844986  13.0336542  32.5266380
  69.8718185   3.5506654  78.9973145  70.3212738   3.5254459  79.8420563
  68.9455109   3.4482501  79.2157135  38.2474632   1.8704216  41.4581184
  38.8049622   2.5427449  41.8497925  38.2040787   1.1799951  42.1196785
  82.6877136  41.8289986  48.3746948  81.8171921  41.9050026  48.7653809
  82.9363403  40.9160576  48.5194588  23.8144798  59.5321617  39.6344910
  23.8680267  60.3845901  39.2023697  24.6875439  59.1544418  39.5281067
  13.6915751  30.2023468  82.9624710  14.2329092  30.5576763  83.6674042
  12.9385357  30.7916088  82.9184952  76.3704529   8.0588989  49.1404915
  77.0534515   8.0592318  48.4698639  76.7879105   7.6665301  49.9073105
  79.0900345  19.4743500  82.3189316  78.5095367  20.1524773  82.6644669
  78.5449829  18.9827633  81.7045212   2.1856251  67.5448914  31.4137402
   2.6313360  68.3237305  31.7468796   2.6573162  66.8116226  31.8087769
  54.6396370  11.4101238  43.1944427  54.0397301  10.9994535  43.8170929
  54.0838089  11.9885340  42.6722107  82.2397995  48.4015198  24.4008312
  82.6180191  48.4134750  23.5216026  81.3989944  48.8490372  24.3059826
  37.0597305  67.0794296  34.5257530  37.9490852  66.9585648  34.8584290
  36.5109901  66.5628815  35.1159134  62.1024132  45.9523697  18.1208172
  61.6447220  45.1530762  17.8602867  62.5939369  45.7026901  18.9033108
  22.2782745  45.6129570  53.0691223  22.2744427  44.6560020  53.0478439
  23.0129166  45.8368874  53.6404266  56.1448746  46.3228073  39.0915680
  56.6974792  46.3171959  38.3100090  56.1444321  47.2361336  39.3780327
   0.7685402   8.3178110  64.0058975   0.2996373   8.6572714  64.7682114
   0.1697385   7.6772189  63.6220856  25.7566376  57.2218170  49.8281555
  25.5482311  56.9496346  50.7218666  25.9033680  58.1654625  49.8932343
  55.6733131  52.7820892   9.2610836  56.0761719  51.9348221   9.4510221
  56.3770294  53.2995110   8.8695669  86.0353928  54.7547760  69.0115509
  85.4520416  54.3758545  68.3540115  85.6155396  55.5790062  69.2577133
  83.8143692  59.5569878  22.0513935  84.4123001  59.7448540  22.7748680
  83.0370407  60.0825691  22.2404728  72.4636993  24.3972759   7.7568154
  73.0313797  25.1601181   7.6470633  72.5576019  23.9091740   6.9387865
  79.9778976  66.9317627  87.0706711  79.5129776  66.7694321  87.8914871
  79.4355545  66.5141220  86.4015808   6.6871486   7.6502852  29.9234581
   7.0113692   8.3793859  29.3947563   7.4472375   7.3658957  30.4310207
   6.9195910   0.2431092  76.8772964   7.5584383  -0.3942849  76.5581818
   6.9924669   0.9796973  76.2703705  70.8363876  29.9240875  77.0562057
  70.8964157  29.1364574  77.5968246  71.2180862  29.6679649  76.2165985
  35.9275169  37.9608154  28.0021362  36.2927895  38.1555443  27.1390648
  36.3476524  38.5907555  28.5877075   2.3046677  41.1554718  84.8763046
   1.8313731  41.7341805  85.4740677   2.7523170  41.7486229  84.2729721
  57.5684586  26.1711082  68.5837097  57.1932030  25.2910233  68.6131363
  58.3646660  26.1097603  69.1114655  75.0606842  12.8098783  80.6335678
  75.9434204  12.9187946  80.2798080  74.5027390  13.3199902  80.0464478
  22.7107754  30.3145809  72.7442245  22.0861034  30.0792656  73.4302597
  22.8802814  31.2462330  72.8839493  49.9615173  41.5283699  50.1518364
  49.8968201  41.0099335  50.9538765  50.4064484  42.3319054  50.4212837
  65.0411224  34.7262611  33.2130852  65.6529999  34.2903748  33.8062477
  64.8438873  35.5589676  33.6419563  15.1300392  15.7714853  67.9244614
  14.5548496  15.3263454  68.5467453  15.1270628  16.6859055  68.2074051
  63.3684921  32.2626114  41.4446678  63.3729362  31.3680267  41.1041870
  63.9677277  32.2379303  42.1906853  55.7454376  68.6992416  71.4638443
  55.9168816  67.9556274  70.8860245  56.5632744  68.8214874  71.9459534
  25.9052811  20.7347813  16.1626911  25.6249638  21.6142540  15.9093504
  25.2096748  20.4184380  16.7391376  73.5399628  18.2244473   3.4527686
  73.7058029  18.7857113   4.2102060  74.3122711  17.6616135   3.3980579
   3.2594900   3.8351462  30.1433067   2.3220842   3.6854539  30.2661648
   3.3315818   4.7739825  29.9711990  45.8215942  41.4913864  24.3483353
  45.5578194  42.3903694  24.5445137  46.4743652  41.5794601  23.6538124
  45.5399246  14.5043135  22.6136684  45.8923302  14.4952011  21.7237473
  46.1078148  15.1100101  23.0899696  16.8958683  66.3899536  65.0400925
  16.9196339  65.6572800  64.4245758  17.8120003  66.5328827  65.2777939
  14.2072525  62.7835617  89.1006699  14.8694181  63.4420967  88.8906708
  14.1483812  62.2433434  88.3126755  46.0091400  25.7784214  63.6735954
  45.9344788  25.8510323  62.7220764  45.1588745  26.0690918  64.0034332
  40.9860764   2.4190614  37.0025253  41.1490364   2.7376232  37.8903275
  41.3419113   3.1019454  36.4339447  81.5097122  43.6983337  23.8748741
  81.1321793  43.8399277  24.7430058  81.3712769  42.7670174  23.7024841
  73.6922836  51.4084892  26.6490135  73.5381012  50.7203445  27.2962532
  72.8798676  51.4491272  26.1444778  34.5217209  48.0880661  40.6667366
  34.8926926  48.4443283  39.8594666  35.2637711  47.6773415  41.1104698
   6.0909224   1.2895559  42.3728905   6.5964575   1.7436162  43.0470505
   5.3784752   0.8664149  42.8520584  81.5870361  42.4081993  88.7266312
  81.9334335  41.9649773  87.9521637  82.3346176  42.4709320  89.3211212
  33.2288094  23.5745144  13.4913101  32.2819252  23.4402905  13.4509201
  33.3688812  24.0475826  14.3115654  43.0556717  49.8427200  16.1285114
  43.6594505  50.5394859  16.3858109  43.2122078  49.7239838  15.1916933
  41.1460381   4.7861991  87.6897659  41.8489914   5.4344001  87.6458740
  40.6016655   4.9710464  86.9244385  14.3013783  44.2696609  62.7795067
  14.7831812  44.4284668  63.5912209  14.4756584  45.0425682  62.2424088
  45.5028992  30.6299477  11.9034948  46.1667557  30.1908512  11.3717813
  45.5947914  30.2389030  12.7723293  60.3987312   4.3362308  10.3041553
  61.1121559   3.8234575   9.9242620  60.7875595   4.7556758  11.0716906
  61.3409767  45.4190292  57.4226990  61.7764893  45.8027420  58.1838341
  61.7320175  45.8663635  56.6722260   6.3677640  65.5678482  46.6050873
   5.4191508  65.4737167  46.6917114   6.6642876  65.8199387  47.4795914
   5.1216798  52.4979935   7.9427958   5.9531155  52.7248230   8.3593245
   4.5580897  52.2242584   8.6664429  27.4076729   5.1413999  66.8751144
  27.6115513   4.5939040  67.6333466  26.5178738   5.4543800  67.0380020
  43.3971825  43.1516304  74.2412949  42.6414833  42.9872971  73.6772537
  43.9759216  43.7007561  73.7123795  42.9688263  59.3367729  24.9317513
  42.6459236  59.4678421  24.0402412  42.2819748  59.6996346  25.4910336
  21.8009663  51.6694298  72.2542038  22.5075741  51.0350533  72.1337891
  21.3030052  51.3346024  72.9999695  77.0712662  14.6628065   1.9334142
  77.7889938  15.2951965   1.9678341  76.8752594  14.5734987   1.0007644
  33.6400833  40.8391571  62.3840523  34.0469017  40.3048477  63.0661354
  32.7000389  40.7584915  62.5454216  78.3851547  49.2833252  50.1345749
  78.1930008  49.4076653  51.0640106  78.1233826  50.1072121  49.7235718
  54.9838829  32.8908348  36.1218491  54.3787460  32.1854362  36.3508797
  55.6755676  32.4595490  35.6200562  67.3347321  30.7845249  39.8468704
  66.4158859  30.5848560  40.0259781  67.7829742  30.6128902  40.6750336
  15.6250362   5.6699400  19.6729908  14.8749590   6.1245451  20.0563316
  15.4748392   4.7466478  19.8759785  49.9346199  33.8729782  77.0183182
  49.7385597  32.9467125  76.8775101  50.0990944  34.2190170  76.1411362
  81.9814835  12.1050224  66.5642242  81.5659943  12.4262962  65.7639847
  81.2910156  12.1465006  67.2258606  55.9629669  56.2720032  62.5249329
  55.3613167  57.0159721  62.4973946  55.6137352  55.6575317  61.8794136
  52.5749283  39.9081001  68.7004471  53.1416321  40.5913582  69.0585480
  52.8471947  39.1096649  69.1527786  58.7696152  64.7211685  23.8789368
  59.1214676  64.9438782  24.7408123  59.4591789  64.2015839  23.4656887
  37.8106651  48.3281212   6.2946262  38.5121193  47.8558540   6.7431364
  38.2500534  49.0679245   5.8752699  24.1647911  40.5583572  14.0004568
  24.6948700  41.0358429  14.6386242  24.5138779  40.8266373  13.1505175
  24.7656193  42.3894844  43.2064934  25.6598339  42.3291893  43.5426140
  24.7651234  43.1806030  42.6676445  10.4786606  55.5392914  53.2086639
   9.5716076  55.2413292  53.1400757  10.8819513  54.9370956  53.8339233
  48.9351997  55.1491013  33.6448250  49.7817841  55.3109169  34.0611725
  48.9194794  55.7438545  32.8949928  41.6986122  47.9205780  51.6264458
  42.4649048  47.9249535  51.0528564  41.4254532  47.0036011  51.6542130
  75.8869095  37.6965065  77.7231445  75.2461624  37.8941383  78.4062347
  75.6640091  38.2906532  77.0065308  52.2659378   6.8849025   9.6662464
  52.4211998   6.3205962   8.9088268  52.1447639   6.2778697  10.3963556
  25.4185143  68.0769043  82.6316910  25.1674747  67.3386993  82.0764618
  24.6173477  68.5931091  82.7205200  17.5316505  41.8596382  17.9826908
  17.8521652  40.9803963  18.1837692  16.6847973  41.7151413  17.5605640
  33.6609116  70.2968140  74.5364075  33.8215523  69.9974060  73.6415482
  33.4125061  69.5047531  75.0130310  81.5288162  63.3516197  17.3585472
  80.5784683  63.4036522  17.2567253  81.8676987  64.0573654  16.8078136
  19.3145485  22.1756802  83.6677246  19.6653175  21.9055367  84.5163803
  18.6239128  22.8026409  83.8826065  85.8691254  52.1515808  83.8956299
  85.4787674  53.0129356  84.0436783  85.3944397  51.7997284  83.1425705
  11.2385283  22.4828491  78.8284302  11.0790234  22.9506989  79.6481247
  10.3741055  22.1745167  78.5565186  74.4598389  28.7394581  21.0476665
  73.7310181  29.1490231  20.5815010  74.8593826  29.4544697  21.5429974
  50.7498245  58.3409996  53.7416000  51.4223061  58.7398415  53.1894035
  49.9335289  58.7553596  53.4619560  50.8895569  65.2662125  43.7599373
  51.6081467  64.6672592  43.5571442  50.2870445  65.1760941  43.0216408
   4.0736361  67.0907898  39.7190056   3.7144189  66.2484207  39.4404221
   3.6511834  67.7320786  39.1475868  45.9117584  43.9387436  20.5328445
  46.8107262  43.7066612  20.7657051  45.4443741  43.9541779  21.3680363
  53.4992104  43.6817627  24.0676079  54.2340050  43.5570030  24.6682301
  52.7555771  43.2733574  24.5108242  17.7241764  38.4810371   9.8922977
  16.9895802  38.9577637  10.2787313  17.6690426  37.6052475  10.2746468
   4.9695687  27.1689434  20.8724728   4.9240193  26.4728508  20.2170238
   5.6098967  27.7874756  20.5208626  14.8766451  61.4220886  11.9353790
  14.7699509  61.0358162  12.8046551  13.9946136  61.6977806  11.6858892
   8.2577257  67.4921112  46.1268234   7.6441350  66.7838745  45.9315376
   8.3876057  67.9345856  45.2880249  36.2827530  58.8970947  42.2222366
  35.5457268  58.6883507  41.6482620  35.8836861  59.3313179  42.9761772
  11.2527304   0.4113722  77.6012268  11.9469757   0.4042714  78.2601624
  11.6415396  -0.0177310  76.8390350  50.9996376  39.0860176  88.4429474
  51.7015038  39.3105125  89.0538635  50.9754333  39.8179169  87.8265305
  15.9913006  40.5343552  10.8045549  16.6430359  41.2349663  10.7797203
  15.5364180  40.6005096   9.9649496  83.5816345  11.2466145  16.4002361
  83.9102402  12.1016855  16.6779079  84.3298798  10.6582193  16.5009995
  44.2885056  16.6606083  21.0207424  44.4032326  15.7154140  20.9223766
  44.4327431  17.0121021  20.1421757  73.3841171  44.7049026  56.0271759
  72.9896545  45.1525536  56.7756691  73.0845261  45.2017479  55.2658463
   7.2448711  31.0944271  19.3212662   8.0076151  31.3296795  18.7929573
   6.5464134  30.9505615  18.6827602  71.1606598  67.9219894  62.9613914
  71.2879639  68.3810272  62.1311455  70.6200943  68.5154419  63.4827614
  52.3452530  45.9558182  73.7811813  52.8945160  46.1181908  74.5481110
  51.4490051  46.0451279  74.1052170  12.9930859  12.9866962   7.8793378
  12.9246759  12.7167835   6.9635324  12.1098843  12.8709698   8.2297573
  58.8254395  28.5337048  86.1155396  58.8374367  27.5802536  86.0317841
  58.6280022  28.8491516  85.2336426  30.1610928   6.7335715  84.7486038
  30.5512676   5.9037824  85.0232773  30.7550793   7.4021192  85.0898590
   9.8250294  33.2944984  22.6885529   9.2038889  33.5585594  22.0098114
  10.5393124  32.8745728  22.2092896  66.9747620  19.5160561  49.4929504
  67.2333984  18.6495914  49.1789703  66.0796127  19.6292572  49.1733856
  71.2761993  52.5681648   1.0572252  71.5496826  52.0519524   1.8154883
  70.8544617  53.3409042   1.4330511  59.0459442  27.5793228  43.8877983
  58.1683540  27.2461796  44.0751114  58.9017906  28.4741135  43.5798988
  42.8828239  68.7087631   7.3273597  42.0595741  68.5803223   7.7985229
  42.6936455  68.4251633   6.4329228  75.3578339  60.2722435  41.3321457
  75.5600204  59.4854393  40.8259010  75.9574738  60.9364204  40.9922447
  20.5798111  68.5151215   1.3279059  20.0497189  68.1508026   2.0367832
  20.2033062  69.3804550   1.1676700   7.2471056   0.7924867  71.7888031
   7.4789290   1.7058967  71.6209641   7.9029956   0.2868332  71.3088531
  84.7078705  21.4719906  74.1771469  84.9796524  20.7137299  74.6942596
  83.8597641  21.2208309  73.8112640  63.1805267  36.2788010  72.2544632
  63.7782745  35.9643860  71.5761719  63.7522049  36.5289307  72.9803085
  10.3741055   8.3413811  73.6362762  11.1652250   7.8055258  73.5795288
  10.4593859   8.8070297  74.4682159  21.0380573   6.7714825  46.3092461
  21.4236946   6.7135816  47.1834106  20.4352493   6.0293336  46.2637558
  54.4258080  43.5216331  54.2364349  54.1815796  43.0249367  55.0173798
  53.8547096  44.2896271  54.2527237  18.3627586  64.2245865  40.3106956
  17.9850731  63.8429718  41.1031303  18.2543125  63.5469704  39.6433792
   5.6142588  20.9383850  60.4341965   4.7521925  20.7604656  60.8102531
   5.9102740  20.0908318  60.1021385  26.5308590  59.6897163  24.7930813
  25.6801796  59.3249893  25.0371075  27.1684608  59.0838394  25.1707153
  30.0062218   4.9236813  47.2397461  30.6481171   5.2867665  47.8499680
  29.2085781   5.4267721  47.4037476  10.1616774  50.3366318  26.6499100
   9.9448071  51.1171608  27.1597881   9.4733524  49.7085686  26.8689461
   7.4684601  55.4062958  77.8075638   7.6926661  55.1179581  76.9227905
   8.2577982  55.2370033  78.3218765  13.7411222   2.9353843  73.2511215
  13.9456272   2.0049653  73.1576843  14.4846201   3.3854859  72.8500595
   6.3775363  26.2683678  60.0651550   6.1966805  25.3639812  60.3213005
   6.2559047  26.2772980  59.1157570  67.7059937   4.4342198  45.7361450
  67.8530807   3.4884431  45.7258835  67.6441956   4.6770387  44.8123207
  64.1614685   9.7974854  49.6880341  64.7107620   9.5384188  48.9481735
  63.3304367   9.3465338  49.5388298   0.5341948  64.6968384  18.4459248
   0.2299360  64.4788437  19.3269100   0.0345361  65.4773102  18.2062550
  53.1259651  51.2849464  64.2462845  53.1312485  52.2335205  64.3743896
  54.0177422  51.0758209  63.9683723  85.8555069  11.7556505  80.4582138
  86.6774673  11.6907310  79.9720001  85.8246231  10.9565334  80.9842224
  56.9900131  42.5248642  53.5185242  56.2823982  43.1692276  53.5010338
  56.9153633  42.0644035  52.6826820  79.1349640   2.6955357  21.3356667
  78.3928299   2.5243652  20.7558613  78.7991562   2.5160823  22.2138805
   0.8719324   9.3193645  72.0922546   1.3575574   9.4536781  72.9061127
   1.2977365   9.8991747  71.4607925  29.8478584   0.6014370  53.7789574
  29.5555916   1.5128038  53.7938805  29.7208748   0.3240142  52.8716850
  14.5692272  35.3868904  78.4397202  14.6393671  34.6950645  79.0975113
  15.3947697  35.3432083  77.9572220  25.7487373  44.5558548   1.8324480
  25.8338432  44.8029366   0.9116117  26.6256542  44.2668915   2.0849295
  43.9766884  16.7990417  62.8251534  43.7653084  17.7273254  62.7259445
  43.2091446  16.3407288  62.4830208  66.2516632  41.9936409  20.4330654
  66.7015610  41.3372803  19.9010754  65.8063583  42.5533218  19.7969074
  75.6180649  70.6223679  29.1690502  74.6850739  70.6166382  29.3829041
  75.6582794  70.9798813  28.2820339  70.5606766  43.8270721  26.0493755
  69.8083115  44.0172844  26.6097260  70.9218140  44.6867943  25.8332844
  13.7400284  62.6407700  18.8270130  13.4039402  62.3999786  19.6903172
  14.6864223  62.5142708  18.8946037  70.1760559  30.4440269  73.8169937
  69.8868256  29.5503559  74.0011826  71.0471115  30.4996414  74.2099228
  53.0182648  45.8545532  79.5109863  52.1410370  46.0103989  79.1611023
  53.5018578  46.6559715  79.3107452  81.5830841  58.5663185  51.2522697
  82.1186066  59.3326492  51.4576683  82.2049713  57.8390617  51.2280579
  40.8370667  70.1718979  27.1070576  40.0870628  70.4482803  26.5804272
  41.3147392  69.5637512  26.5429497  18.2511673  37.8518181  66.5348282
  17.5908089  37.6971703  67.2102890  17.9819279  37.2945747  65.8046112
  81.3634033  63.0424576  69.5922699  81.8634262  63.5368881  70.2416916
  82.0252380  62.6939659  68.9949799  63.6027107  21.6967525  36.8806114
  63.2784958  21.7145405  37.7810555  62.9328041  21.2161827  36.3942909
  62.7098618  17.9428978  69.0246735  63.0272751  17.1822529  68.5379486
  63.4935684  18.4684086  69.1855240  31.4998035  25.4427986  66.3881149
  31.5666332  25.4264584  67.3428421  30.6130295  25.1325722  66.2047424
  49.8883324  54.1206093  68.6030273  50.0733948  54.3507004  67.6925049
  48.9548607  53.9089928  68.6116180  16.3785686  20.2412376   1.1639293
  16.1490288  19.3361053   0.9535025  17.1216679  20.1668777   1.7626843
  23.3308964  53.0570030  24.9833641  23.7630482  52.7230644  25.7694683
  23.7300816  53.9145164  24.8365459   9.5098705  49.7538567  49.9820900
   8.6047773  49.6455498  49.6900139   9.4517202  49.7810669  50.9371338
  66.4696274  56.5398712  67.4159775  65.7326279  55.9555779  67.5939102
  66.0721207  57.3097725  67.0092010  31.8289642  34.7434273   0.8284562
  31.6741333  35.6513405   0.5677773  31.0642529  34.5118370   1.3555381
  55.5656204  36.8427505  72.2498703  55.7413254  36.0619736  72.7749939
  56.3387489  36.9360199  71.6932755  19.7245674   3.6430249  25.7746830
  19.2721863   3.1963325  26.4902592  19.1232510   3.5769067  25.0328751
  15.9274445  11.3134956   2.2599261  15.7600536  10.3986959   2.4865363
  15.9446621  11.3238974   1.3029375  72.8407288  46.5257378  70.5462646
  73.3635254  46.1666946  71.2632065  73.2485733  47.3695602  70.3516769
  30.6998940  49.8819466  61.1910858  31.4385719  49.4444771  61.6144142
  30.5957642  50.7001724  61.6767731  27.2060909  53.7935219  -0.2219848
  28.1367874  53.9258614  -0.0416466  26.9206486  53.1649742   0.4411018
  60.2450447  53.8066254  15.1816502  59.7288589  53.5835724  15.9562664
  60.8751907  54.4565277  15.4927378  66.2956772   7.6549325  59.8933105
  66.9613419   6.9918575  60.0761909  66.1371460   8.0747356  60.7388077
  26.3168964   2.4068305  71.6771545  26.0000210   1.9813246  72.4738770
  25.6271839   2.2511611  71.0319443  44.5218163  32.9122200  10.8185892
  44.8076782  32.2068291  11.3990536  43.7214508  32.5790062  10.4128599
  60.9963722  33.4279442  80.2048798  61.7635651  33.8341408  79.8015747
  61.1014519  32.4925346  80.0311127  48.0986824  38.5923805  67.4714508
  48.9351540  38.1539268  67.6273575  48.1992836  39.4523239  67.8796310
  43.8982277  24.5800724  15.7763624  43.0362129  24.7930641  16.1338501
  44.5120316  24.8265800  16.4682522  81.2673569  41.1645737  59.5715790
  80.3716583  41.3963509  59.8169937  81.1681213  40.6152763  58.7939835
  40.1364822  24.7418804  18.2207737  40.2216339  24.1082668  17.5083714
  41.0077438  24.7768345  18.6156368  39.1361885  46.8959351  33.2832947
  38.4053230  46.3011932  33.1149178  39.8562851  46.3223267  33.5453300
  20.0598564  63.4513245  18.8752556  19.9702320  62.5456772  19.1719151
  19.7776546  63.4328461  17.9607887  58.4299583   1.1953784  20.2406864
  59.0715103   0.5128189  20.0438118  57.6109886   0.7206004  20.3824806
  26.1630173  67.1218948  68.3943710  25.8289623  66.5816650  67.6782761
  25.3967590  67.6001205  68.7112045  22.7240334  32.1199951  11.0754976
  23.4288464  31.7570038  10.5391159  22.9543839  31.8747063  11.9716024
  69.7908707   6.6332140  18.5538006  69.3082428   7.3253517  18.1018658
  69.2295609   6.3916407  19.2905521  48.6398125  68.6664734  83.3483887
  48.8273315  69.1050339  84.1782913  48.6900597  67.7329865  83.5540848
   9.6134052   5.3459907  88.6549301   9.1322641   4.7532549  89.2323380
   9.2419195   6.2096157  88.8348770  14.8729897  45.7474747  25.8428001
  15.7683220  45.5283585  26.1008701  14.3895597  44.9264259  25.9344940
  38.7076950  17.8818302   3.3735859  38.9913750  16.9730949   3.2737997
  38.4379997  17.9493465   4.2895212  35.9466705  44.8937988  88.8532257
  35.6689644  44.4368095  88.0593338  35.4342003  45.7022514  88.8559036
  59.6854744  10.3073111  77.1804352  60.0186958  10.9875803  76.5952606
  59.2444992  10.7885561  77.8805618  82.2842255  16.7366905  83.5393982
  81.4322662  16.7498569  83.9755402  82.6575317  17.6000385  83.7168961
  43.0172386   2.0615628  70.0203018  43.2841721   2.8698018  70.4581680
  42.9547462   1.4167802  70.7249908  11.7755442  27.2252102  68.8458633
  11.8001890  26.3801937  68.3968964  12.6913328  27.5003681  68.8888855
  33.1213799  54.6945381  25.4095287  33.1949883  55.3860016  24.7517357
  32.3574333  54.1858215  25.1378136  26.2485218  61.7833633  60.7291527
  25.3666649  61.9937820  61.0362053  26.3480072  62.2883911  59.9221344
   6.8452840   6.5170789   2.8217728   7.5385013   7.0335641   2.4107690
   6.5836978   7.0318170   3.5852184   3.2556906  47.7365990  41.3426590
   3.1062827  48.5912094  40.9382515   4.0449147  47.8562775  41.8708954
  79.1648483  11.3154783   6.9913139  78.7510223  11.3647127   7.8530278
  79.4020538  12.2201452   6.7874875  43.4512405  54.7817192  41.8101959
  42.5441666  54.5283051  41.6392365  43.5299950  54.7611122  42.7639275
  79.2975769  62.7810745  23.8245049  79.1413193  63.6175652  24.2627964
  80.0613861  62.9402313  23.2699795   1.3965417  54.6803436  57.5483360
   2.0690768  54.0124512  57.6819344   0.5860855  54.2670479  57.8459587
  46.8806610  51.0329323  38.3714638  47.6961708  50.9551353  37.8763657
  46.3584023  50.2808495  38.0924530  65.8530884  13.4368315   7.5378256
  66.5091934  13.5317698   8.2282925  65.2732544  12.7431250   7.8521476
  21.7815781  50.7358322  40.6501160  21.0711575  50.2127914  41.0215492
  21.3437958  51.4941216  40.2633629  45.5068245  32.8281097   3.4778397
  45.1815605  32.6055984   4.3501501  46.4251633  32.5583572   3.4886370
   1.5746399   7.8306174  21.9490528   0.9810586   8.4860115  22.3155937
   2.1359549   7.5790262  22.6824417  67.1666794  19.6908455  44.1930656
  67.6518402  19.4036827  44.9666176  67.2955475  18.9888268  43.5552597
   6.6100020  43.0111885  11.5299559   6.5213184  43.7746887  10.9594898
   7.5012279  42.6984024  11.3746662  67.6083374  26.9875431  15.6583824
  66.9217224  27.1819611  16.2963428  68.3537903  27.5180264  15.9396591
  39.3955612  48.6569405  85.8559570  39.6334572  48.6796951  86.7828445
  38.8012772  47.9104767  85.7794647  17.6821022  59.9889488  88.2677689
  18.3960800  59.4265518  87.9674759  17.4394970  60.5006599  87.4960709
  30.2246685   7.7674198   8.1809387  30.8920536   7.1893768   7.8112159
  29.7067947   7.2005396   8.7525024  41.6333084  62.1555138   6.0861764
  41.7968521  61.2911568   5.7088513  41.3732872  61.9770317   6.9899263
  21.9419003  42.9205894  75.9735107  21.8461113  42.4753876  75.1315765
  22.8833618  43.0706291  76.0593567  69.1543732  23.4589138  33.7673531
  68.8116302  24.0552177  33.1016312  69.0034027  22.5851593  33.4068108
  54.8903847  37.9539032  79.4910965  54.6071739  38.8677177  79.4599457
  55.1900864  37.8265877  80.3912048  13.5849724  51.6729507  51.2441597
  13.3858919  50.8967056  51.7676468  14.1225147  51.3444328  50.5234985
  40.1129761  33.5708122  86.1187210  40.7288666  34.3032722  86.1389160
  39.3312569  33.9267654  85.6962967  20.4866238   2.1249955  72.9533997
  20.2278194   2.9088368  72.4687881  21.1370964   1.7011379  72.3935242
  66.3936310  13.0919399  27.2523117  66.0760803  13.9417286  27.5576820
  65.7253342  12.7942200  26.6350842  78.7805099  31.1118965   4.6978812
  79.5497894  30.8561649   4.1889205  78.8395615  32.0653458   4.7585192
  29.9271240  45.7238350   7.3692589  29.3878250  46.2394371   7.9688783
  30.4479809  45.1595039   7.9406333  58.0606613   7.3109479  86.9082718
  57.9042053   7.6493177  86.0266495  57.9837685   8.0776081  87.4762115
  58.9716263  46.7958488  45.3184280  59.4142418  47.3869286  45.9274788
  58.2441978  47.3114548  44.9702492   3.8169954  11.6439228  50.0489426
   3.6148314  11.5620947  50.9809647   3.3102968  10.9471140  49.6318741
  27.3514862   5.5638332  63.6146049  27.9583988   5.1374173  63.0095787
  27.9159851   5.9874344  64.2612381   2.4831262  65.4319611  12.5582733
   2.5744665  65.8982697  11.7273426   3.3822954  65.2455063  12.8283892
  48.9747849  61.9156456  20.1377373  49.0161705  62.8145180  19.8113155
  49.7182732  61.8437309  20.7363052  57.9867096  31.8168774  77.5688858
  58.0262337  30.8640175  77.6509171  57.6045570  31.9671898  76.7042465
  40.9656143  63.7667465  57.2435722  40.0930061  63.4639473  57.4947586
  40.9953423  64.6785583  57.5333099  77.1096268  11.5366840  83.7745132
  76.3276749  11.1710768  83.3608475  77.8342438  11.2318707  83.2283936
  45.7298775  34.1523590  62.2081184  46.3601112  33.7727356  62.8204269
  46.2291946  34.2856941  61.4024277  56.7154388  18.7604885  44.7333183
  56.5544434  19.6844749  44.5421104  56.1338272  18.2878113  44.1378937
  24.2639999  30.1618519  13.7499504  23.8420200  30.9992599  13.9420805
  24.7397232  30.3150997  12.9335957  10.8138542  44.8149033  88.5397797
  10.6787443  43.8708038  88.4581985   9.9732370  45.1995010  88.2914276
  16.7983570  33.1211586  12.6426344  17.3023262  32.3092308  12.5876713
  16.0095024  32.8809738  13.1286898  63.0277824  56.8426476  48.7972488
  63.2763901  56.4891319  49.6513290  63.7101288  56.5325775  48.2018585
  73.3816986  27.5622978  75.4896240  72.9587326  27.5268326  76.3475723
  74.2583084  27.2084827  75.6399384  33.1191292  32.4319420  45.8153687
  33.8721199  31.9062634  45.5453644  33.4273071  33.3366356  45.7625389
  74.7294922   5.8171263  60.1713867  75.6856689   5.8387742  60.2101212
  74.4559784   6.6600127  60.5332794  76.0942078  68.9138565  52.8899078
  75.6600494  68.4897156  53.6300697  75.7076035  69.7888031  52.8547783
  81.7427750  38.4600067  23.8101006  81.8413925  37.8876991  24.5710049
  81.2458801  37.9377289  23.1803761  13.7393970  53.3701477  44.0397797
  14.3978415  53.3313026  44.7334442  12.9079409  53.2217064  44.4902000
  76.9478683  49.8568535  53.8347626  77.7829361  50.2410736  53.5677948
  77.1686707  48.9636230  54.0986214  12.1219921  65.4553986  68.9603500
  12.1055803  64.6702271  68.4131165  12.7825689  66.0166092  68.5542603
  50.1507568  21.6851559  85.2057953  49.8000565  21.5282211  84.3290863
  50.4284019  22.6011028  85.1922760   9.5013189  15.4113016   8.0022516
   9.0371389  16.1385365   8.4168587   8.8852272  15.0733738   7.3522763
  57.8476486   7.0725012  77.8906403  57.9220200   6.1225748  77.9819641
  57.2033806   7.1963983  77.1936493  71.7612381  47.7709846   9.6213083
  72.4580612  47.1228523   9.7242374  71.8753967  48.1062202   8.7320290
  85.6072006  65.3984833  64.4306335  85.9930496  65.6540298  65.2685165
  85.8620834  64.4826279  64.3189697  33.0305061  22.0811176  79.8108444
  32.1936951  22.2583294  79.3812180  32.8018723  21.9320202  80.7283020
  60.1843185   8.9134846  69.7444077  59.7951813   9.7835569  69.8326035
  61.1225471   9.0570545  69.8682709  26.8769245  19.7340851  87.4280930
  27.1644878  19.4577866  88.2982635  27.5899906  20.2840710  87.1036148
  24.9400043  52.3775978  74.4891434  24.3719521  52.0585556  75.1903992
  25.0706215  53.3043976  74.6896820  83.9193420  16.7536411   2.1165502
  84.6576157  17.3426514   2.2722850  83.3143387  17.2648373   1.5790715
  57.8813438   1.0690111  63.3574562  58.7119255   1.2546095  63.7955437
  57.5379372   0.2993664  63.8112755  71.4469604  42.1761055  12.2761583
  71.2660370  41.2469749  12.1340027  70.8668442  42.6294098  11.6644268
  26.1743984  39.1158562  79.3004990  26.2913551  39.6931953  80.0549774
  25.3270969  38.6960945  79.4491882   9.1797867  48.4861794  12.8651686
   8.6316595  47.9867516  12.2598944   9.0588732  48.0535469  13.7104149
  24.3526573  47.8306046  35.3744545  25.0084591  47.2344017  35.0129318
  24.7748051  48.6895256  35.3578949  73.2717438  17.7336330  80.4478302
  72.8306961  18.5726910  80.5808411  74.0794907  17.8043404  80.9565430
  58.1392632  43.5831642  38.1678467  57.4247093  43.2862396  37.6043892
  58.0851784  44.5384254  38.1399193  33.5722809  55.7098885  78.6421738
  32.7001190  56.0308342  78.4129257  33.9609833  56.4183388  79.1552505
  61.5195580  71.5542221  35.6022186  60.8430328  71.8987122  35.0192299
  61.6740074  70.6628265  35.2895164  45.6587181  58.6363297  48.7141190
  45.2341080  59.0502090  47.9626923  45.9087715  57.7676048  48.3994331
  79.2130432  54.7965164  29.0588245  78.4877090  54.5078545  29.6127129
  79.9992599  54.5406647  29.5411530  17.6267929  62.5024033   2.8012650
  16.7810822  62.2231293   3.1519916  17.4123688  63.2117310   2.1953695
  81.7057724  48.8164825  32.2810936  81.7986755  48.4935341  33.1773682
  81.7136383  48.0269394  31.7399940  59.9886551  47.0375404  20.6683502
  59.6414223  47.8625145  21.0075855  60.7439537  47.2949409  20.1396751
  83.8075104  56.6773491  15.2241650  83.9425583  56.0004349  14.5610037
  83.9550934  57.5009422  14.7592516  79.3653107  20.3538055   5.4707170
  79.2546234  19.6771603   6.1386461  80.2972870  20.5700188   5.5009522
   0.5596814  32.5623093  24.6459370  -0.3826176  32.7305222  24.6488037
   0.6804159  31.8647480  25.2901936  64.1229172  35.7641106  45.7780762
  64.1349258  34.8663063  45.4463577  63.5420265  35.7308655  46.5381393
  35.8237610  63.9311790  64.0860901  36.5117073  63.4516563  64.5476303
  35.3765297  63.2651291  63.5639801  54.7156143  63.9971657   9.0216484
  54.3426590  64.1287613   9.8933258  53.9820938  64.1393127   8.4233379
  81.9651413  43.8591843  50.5335388  81.3335724  43.1422615  50.5915413
  81.5534668  44.4942131  49.9474525  72.5603561   6.0573645  14.9346256
  72.8677444   5.2810602  15.4027023  72.8381348   5.9168973  14.0294504
   7.7726688  25.4654465  45.1042328   7.7460203  25.1351719  44.2062149
   7.0591803  25.0078850  45.5489845  73.8251724   9.4590244  81.8940735
  74.0326004   9.1621370  82.7801132  73.3230667  10.2637777  82.0225220
  25.6769447  56.8276367  27.7962112  25.6649876  55.9519081  28.1824627
  26.0766029  57.3802261  28.4678898  28.7550106  55.2429962   6.3200440
  29.2381268  54.5808601   6.8144178  28.6933708  54.8835068   5.4350586
  71.3823776   9.2918186  62.4253044  70.9056473   8.5188303  62.1228981
  70.7636185   9.7464027  62.9969025  49.6300468  16.0314903  76.0063477
  50.3242607  15.7226562  75.4241791  49.9465523  15.8267450  76.8861923
  66.5136108  36.3821945   7.3461785  67.0758286  36.7895393   6.6872287
  66.9029846  35.5202675   7.4934969  28.7056961  25.9039211  82.9735489
  29.5520878  26.2951488  82.7572250  28.2078896  25.9433460  82.1569290
  14.3123217  50.5319252  65.4285049  14.7637959  49.8951073  64.8745499
  13.6681652  50.0146866  65.9119873   1.8974891   1.5191292  43.9132652
   1.3456089   2.0990996  44.4379501   2.7850108   1.6772889  44.2350159
  18.4893761  60.4753532  62.9583359  19.0415287  59.7724075  62.6159515
  17.9120369  60.0418854  63.5868378  22.6164341  59.0765495  14.1980667
  23.4833755  59.0319710  13.7947588  22.0723839  58.5008316  13.6606770
  41.5582733  21.4680195  74.1223373  41.3177338  22.3771896  73.9440536
  40.8746338  21.1506977  74.7124100  73.4724426  12.6972275  12.2329130
  74.3747330  12.9595518  12.4153900  73.1706467  12.2948265  13.0472975
  16.7571602  10.4156837  25.6708717  16.4136124  10.1540823  26.5251389
  17.6401367  10.0470381  25.6447067  28.4325562  29.5972004  64.7400589
  28.6643524  29.3353558  63.8490257  29.2550583  29.9049091  65.1208954
  46.5809135  36.9027367  73.0787506  45.7049904  37.2852936  73.0273514
  46.7177658  36.5014801  72.2205582  38.2948570   4.6963925  62.3260155
  37.7244568   4.2145338  62.9249229  39.1781998   4.4013886  62.5471687
  11.4567366  62.2183876  17.3733273  12.2450323  62.4465332  17.8660450
  11.5583544  61.2871361  17.1766586  66.0018921  30.1807919  61.0710869
  65.1051102  29.9954662  61.3497810  66.5503235  29.7446251  61.7231712
  35.5202293   2.4271593  43.9615097  35.3465538   1.9304861  44.7611275
  35.5401268   3.3407133  44.2465630  30.0363274  62.9967766  55.0624619
  29.6264019  62.1930885  54.7426491  29.5822353  63.1869965  55.8833427
  56.4321136   8.6873560  57.7370224  56.6393700   7.7579031  57.8339424
  56.2079926   8.7875671  56.8118439  35.6414986  57.7857094  27.2543755
  35.1923523  58.5549126  27.6048393  35.1467094  57.0420151  27.5983734
  78.6753845  44.5294151   1.5259037  78.1862869  44.2841225   0.7405047
  79.0741882  43.7121582   1.8246971  72.0757828   9.4428368   3.2180693
  72.7944641   8.8196850   3.1112225  72.0006866   9.5617924   4.1648755
  81.9513092  10.8570089  21.1661701  81.6193390  11.7502050  21.0754433
  82.1082306  10.7539968  22.1047840   6.2742252  40.6252022  49.9587669
   6.3943124  40.7071800  50.9048576   6.7511010  41.3694344  49.5914268
  76.9785004  26.7178936  84.1841507  77.0396957  26.5415573  83.2453232
  76.1038513  26.4151497  84.4281998  29.7187958  13.2230835  86.6146393
  28.9755421  13.0496778  86.0369339  30.1007614  14.0331860  86.2768936
   9.3771667   7.8153739   5.1832509   9.9028301   7.3896575   4.5059948
   9.2186975   7.1283374   5.8306303  49.2230988  11.1013365  35.4720421
  49.1637497  10.1702557  35.2580376  50.0243111  11.1773949  35.9902191
  68.1390991  13.5962210  17.0449924  68.4966507  13.7759256  17.9145279
  68.8952179  13.3187828  16.5277519   3.9767864  42.0389481  54.1643028
   4.2301717  42.7590561  54.7417717   4.7405500  41.4621162  54.1514740
  80.7103500  23.9835281  35.3045921  80.1736526  24.0082893  34.5123978
  81.3206406  23.2608433  35.1579437  71.0106735   4.2791781   7.1759357
  70.6372070   4.7742233   7.9051061  70.2508240   3.9553080   6.6922302
  55.3469124   2.9611421  19.1659336  54.7892647   3.3883297  19.8161449
  54.9792557   3.2272744  18.3231773  56.3464775  59.3722305  30.1877384
  56.5735550  60.0683632  30.8042374  57.1678352  58.9021492  30.0441284
   8.6135130  51.2444725  82.4198685   9.0971642  50.4192429  82.3836136
   7.8877969  51.0706253  83.0193176  58.2082100  37.3265915  22.5378609
  58.0124054  37.4833832  23.4616089  57.6479111  37.9429703  22.0662918
  79.8336105  53.3021393  73.8042450  80.3667374  52.6106682  74.1965103
  80.3064270  54.1105309  74.0021973  63.4653931  16.3419304   5.0832562
  64.3460464  16.7141476   5.0370469  63.0700798  16.5563984   4.2382936
  77.2649384  29.1626167  76.4957275  77.7971573  28.8177834  75.7787476
  77.8741684  29.2414970  77.2297897   4.4358854  45.6471748  74.5307617
   4.1110659  46.1868401  75.2515106   3.6457767  45.3454552  74.0825119
  23.4743748  50.4279366  51.1345024  24.1954403  50.4755096  51.7622261
  22.7764168  49.9727173  51.6055260  66.5581055  41.0677338  55.3665237
  65.9672775  41.0293655  54.6144066  67.2039795  40.3814354  55.1989861
   1.1121881  16.0467529   2.8820269   0.9527653  15.3220959   2.2773039
   0.4179904  16.6768932   2.6890399  83.2352676   0.5010579   8.6799135
  82.3328781   0.5227181   8.3613825  83.1787033   0.0652230   9.5302544
  62.4442711  39.4074478   3.4667375  62.6420250  38.5318642   3.1343567
  62.5287781  39.9782829   2.7030346  22.1085167  15.3090200  13.2526665
  22.6195889  14.7236881  13.8116150  21.4398441  15.6716871  13.8336849
  52.4513741  26.5646553  76.7148209  52.4009781  27.2626286  77.3679047
  51.8351021  25.9012585  77.0252151  67.5305710  38.9138184  40.6838188
  67.2717667  37.9934235  40.7299576  67.6549530  39.0811043  39.7495956
  24.3629436  38.3346176  64.1628571  23.5015945  38.4716072  63.7684708
  24.2386684  38.5444450  65.0884705   8.5436258  32.0131912  35.4510918
   8.7114620  31.1425037  35.8116035   9.3380499  32.5103264  35.6459732
  59.5904083  16.7804375  12.6003847  58.7191887  17.0285492  12.2911158
  60.0263367  16.4229107  11.8268375  42.6071243   0.4559667  25.3166637
  42.8292351   1.2086216  24.7685680  43.2847595   0.4436210  25.9925995
  18.7636929   3.0470340  82.6019974  18.2274837   3.1569436  83.3872604
  18.7636223   3.9106114  82.1891251  18.1974125   8.2722807  11.4510012
  18.3420200   7.3261328  11.4398441  18.3197365   8.5224876  12.3667870
  12.8271379  48.8426819  40.7965240  12.3517828  49.6683426  40.7040329
  13.6213684  48.9639893  40.2762222  36.4479218   4.7469301  77.4594574
  36.1436501   4.9672637  76.5790558  35.9271584   5.3029623  78.0390015
  60.1073341  26.5691624   6.3004799  60.2907600  27.4785118   6.0645370
  60.9600983  26.2077351   6.5421367  42.6624298  21.9027367  69.3580093
  42.0610008  21.1838131  69.1639404  42.4056206  22.2009220  70.2305679
  75.7974625  36.8871727  69.5964508  74.8770676  37.0300751  69.3757935
  75.8929672  37.2547302  70.4750977  54.1102371  62.0093079  85.6936722
  53.6300774  62.4325676  86.4053802  54.7969704  61.5077896  86.1331100
   7.1664577  -0.2508841  85.5662003   7.2808633   0.4334614  84.9067993
   7.0535316   0.2255191  86.3887100  38.2526054  62.8654671  36.7911453
  39.0257416  62.5406799  36.3296242  38.5951080  63.2218704  37.6108437
  19.5155735  61.3362656  37.3110199  20.0023823  62.1382904  37.5007744
  20.1413212  60.7805138  36.8464622   1.7978233   1.7288907  23.6550770
   1.0746926   1.8261409  24.2746391   1.4236914   1.9764283  22.8095112
  67.3459549  58.7274284   0.6481957  67.5669708  58.8579559   1.5703385
  67.1175690  57.7999840   0.5855970  20.9009743  14.1522770  78.7154617
  20.2239628  13.8492727  79.3205032  21.2019634  14.9809027  79.0883102
  38.3059692  70.9874115  52.3153191  37.3524704  71.0357513  52.3841057
  38.5988045  71.8943634  52.4042854  32.8936996  48.5268211  78.8828201
  33.2025108  49.3385963  79.2851791  33.6836243  47.9968948  78.7759171
  67.8799896  30.2990990  16.2582283  68.7351913  29.8848324  16.3732815
  67.6620712  30.1472492  15.3386154  24.0962868  71.7943802  88.5900497
  23.9410038  70.9346161  88.9811172  25.0430374  71.8276978  88.4529953
  49.4057999  38.1381912   9.3754444  48.8208847  37.4621201   9.7175512
  49.3026123  38.0857620   8.4252682  53.5456123  57.5390244  62.3006973
  52.8350983  58.0483818  62.6905136  53.5516853  57.8017960  61.3802910
  29.4027653  29.4533463   8.7973337  30.1623020  29.5043106   9.3776264
  29.2903900  28.5173340   8.6315479  26.1853199   9.7251854  76.0579376
  25.4512234   9.1743965  76.3299026  26.5973587   9.2394524  75.3434296
  21.8147125  18.7448101  73.6084290  22.4880123  18.0648651  73.6323700
  21.2459412  18.5449505  74.3519287   4.8598151  10.4688368  11.2691231
   4.5760398  10.2552671  12.1579933   5.3676839   9.7069044  10.9902678
  11.3948317   3.8557239  66.6283035  11.2337780   4.7958894  66.7081909
  11.4952145   3.5523944  67.5306015  86.4298782  62.0027733  34.2021599
  85.6064682  62.4252548  34.4465752  86.1699829  61.1392212  33.8812828
  53.9714127  63.8374710  11.7060146  53.6171455  62.9792709  11.9388599
  54.8620224  63.8321304  12.0567532  51.3203888  49.3396034  78.4354858
  51.5640182  48.4142075  78.4582672  50.3933830  49.3374176  78.1969604
  55.1679878  29.9076996  21.7322960  55.3495369  30.8035107  22.0165424
  55.8208122  29.3752575  22.1867809  76.8821945  45.2430687  15.8174858
  76.3550644  46.0181007  16.0116329  76.4898224  44.8792038  15.0238371
  49.3419533  42.1391182   4.7419682  49.9580040  42.4179306   4.0644903
  49.8923111  41.9434013   5.5002799  10.9974861  60.6906815  60.0427971
  10.4174128  61.3243790  60.4649048  10.7854443  59.8562088  60.4610405
  65.6920013  14.0437765  22.0969238  66.0267410  14.7637968  22.6314831
  64.8223953  13.8642559  22.4543953  74.6965408   1.1319571  63.3045273
  75.4532776   0.5762142  63.1181602  75.0734940   1.9834388  63.5261612
  72.9598312  37.0615540  52.2172241  73.5323105  37.7280083  51.8373146
  72.2155685  37.0147820  51.6171188  62.5830078  64.8838272  64.3704071
  62.1223640  64.2894287  64.9626312  63.3859062  64.4168396  64.1390991
  69.8092957  17.4927444  11.9731493  70.2422485  16.9534073  11.3114080
  68.9111099  17.5862637  11.6557350   8.1887522  45.3805084  70.0381393
   8.9012022  45.0337563  70.5751801   8.5164547  45.3247681  69.1405106
  38.3392372  46.3188515  83.8522491  37.8181839  46.5018501  84.6340714
  38.5412292  45.3851280  83.9121780  46.6871605  48.5967560   3.1206853
  47.3352737  48.3222618   3.7694049  46.1701736  47.8093376   2.9506054
  33.2985611  67.3440170  57.2963905  33.9193382  68.0217819  57.0289841
  32.4382439  67.7210922  57.1122665  79.9098282  34.8399277  58.3985710
  79.0730515  35.1177292  58.0259171  80.2150345  35.5994987  58.8946877
  23.4571762   1.4626194  76.0875702  22.8337288   1.4872807  76.8134766
  23.5108910   2.3698335  75.7870560   3.7109201  15.5915937  51.4455872
   3.7191215  16.3796177  50.9022789   2.9168158  15.1269083  51.1815834
  70.4782867  35.5511627  26.4740524  70.4982452  35.7350121  27.4132175
  71.2885818  35.0697632  26.3069649  31.2034321  36.7849350  23.4521923
  32.0651131  36.8012657  23.8686962  31.3883286  36.6346474  22.5251217
  48.2696266   6.4921885  32.8569412  47.4411316   6.8899574  33.1245384
  48.2491035   5.6152811  33.2401428   0.9352190  59.9401741  17.8993435
   0.9490510  59.2716408  17.2144299   1.3291584  59.5123558  18.6596146
   6.9302592  33.9697990  86.6865921   6.4286771  34.7816124  86.7614517
   6.5856271  33.4102821  87.3825836  39.5228844  11.9306355  86.5993729
  38.7309341  12.2048025  87.0618439  39.2040825  11.3805542  85.8838196
  45.3430176  12.4129486  18.1353512  44.6497574  11.7660484  18.2662735
  44.9869003  13.0171452  17.4839211   6.9617372  26.6336765  39.1252289
   7.3559809  27.2643051  38.5226440   7.3177781  26.8668156  39.9826164
  49.5817986  61.0962753  67.6064682  49.1603584  61.6222572  68.2861481
  50.3503685  61.6064072  67.3509445  32.4370308  48.0183220  46.0281296
  32.4518089  47.1662521  45.5922470  32.2063560  47.8191986  46.9355240
  16.2550087  66.7276077  28.7891369  15.5250044  67.3454056  28.7485676
  17.0290756  67.2589188  28.6027184  51.4205971   1.8428936  27.7692089
  50.6040726   1.6292599  28.2207413  51.1465454   2.3540702  27.0077457
  82.5122528  67.5503082  70.3835144  82.8633118  66.8858795  69.7906189
  81.9302979  68.0768661  69.8355255  34.1412315  48.4802322  16.0894222
  33.7102203  48.1447792  16.8755112  33.4719200  48.4252701  15.4073420
  83.7642670  42.8635864   1.3362350  84.5975876  43.2287865   1.0388556
  83.7141342  43.1036453   2.2614865  78.7676697  26.6158772  40.4338455
  79.4533539  25.9545250  40.5270615  79.2014847  27.3513241  40.0012283
  15.1267643  63.4869118  46.0797157  15.9662895  63.0295334  46.1270103
  15.1597681  63.9629402  45.2499352  66.1326752   6.2732196   5.5063510
  65.7796249   7.1408210   5.3092322  66.8719330   6.4424858   6.0903721
   6.3174424  36.5447807  86.3524246   6.6199298  37.4236717  86.5810776
   6.0740161  36.6079826  85.4288559  27.8487740  31.3855267  75.9887161
  28.5272121  31.4698410  75.3187561  27.4306278  32.2461395  76.0157852
  12.0673075  23.4258270   4.0670371  11.5459833  22.6753254   4.3519931
  12.9700441  23.1076832   4.0761256  10.1672716  45.1292877   3.2429814
  10.7160120  45.8957939   3.0768890   9.3831577  45.4825897   3.6631901
  35.6281738   0.1488267  59.1148109  36.4078064   0.0584956  59.6627579
  35.9706841   0.2777328  58.2303314  38.1737976  52.2518730  24.8286095
  38.4706421  51.5881538  25.4511757  37.4710884  51.8240585  24.3393192
  35.1166077  19.4258461  17.1703224  35.5472488  19.6586857  17.9928570
  35.6485214  18.7139606  16.8146286  45.3813248  38.8679657  25.7469959
  45.5246658  39.7814903  25.4997082  45.4292107  38.3859978  24.9213791
  48.5695076  53.2513771   4.6635118  49.0287628  52.8791428   3.9106786
  48.7428474  52.6375885   5.3772688  20.1804886  30.5870419  77.1733932
  19.9049492  31.1219196  77.9178467  19.3895302  30.1160908  76.9110489
  15.7575788   3.2573879  28.8795681  15.7627153   4.1872444  28.6524715
  14.8404560   3.0631144  29.0728970  20.6734428  62.7966347  21.7598934
  21.5545311  62.4966888  21.5364056  20.4740639  62.3587494  22.5873814
  45.6678276  66.2752457  13.7579060  46.2738762  65.7989273  14.3254070
  46.0196419  67.1648331  13.7248678  81.7344131  48.6434784  40.8632736
  81.0624313  48.9540482  41.4700851  81.4173889  48.9071579  39.9994431
  41.7983475  10.2845993   9.5629883  42.0085983   9.8009748  10.3618221
  40.9174004  10.6267366   9.7149916  17.9421673  23.2206593  19.4166698
  17.1348228  23.3690014  18.9243050  17.6678047  23.2256756  20.3336926
  57.9462318  26.4759121  61.4821968  57.2315178  26.4362812  62.1176834
  57.6503410  27.1090660  60.8281364  11.9502831  49.3467598  14.7246017
  12.4788866  49.7933006  14.0632324  12.5805740  49.0759087  15.3921385
  61.8544998  63.6698761  87.6658096  61.1771622  63.2992477  88.2315674
  61.3889465  64.3002853  87.1161957  51.8922577  48.8618202  13.8169289
  52.4123268  48.7790680  13.0176096  52.4143028  49.4286575  14.3847284
  25.6546993  43.2543335   9.3013926  25.3835602  44.1717110   9.3350182
  25.9532928  43.1256752   8.4011040  79.9177322   9.8277683  66.9280701
  79.9064331  10.7732201  67.0771484  80.4492722   9.7159119  66.1399155
  82.1472473  52.9850731  84.2066498  82.4818573  53.6921043  83.6549377
  82.1827698  52.2083626  83.6483536  21.4593639  57.4202080  12.3296404
  20.6381092  57.8456116  12.0830564  21.3719139  56.5241051  12.0046997
  57.1020737  66.9574509  33.7743912  56.5027962  66.3806229  34.2480659
  56.6357193  67.7912979  33.7158089  30.8083305  14.2551727   5.5292993
  31.1705723  15.1407194   5.5006843  29.9125023  14.3729401   5.8452954
  28.1108780  23.1159344  12.4786482  27.2806931  22.8885899  12.8973846
  27.8611755  23.4476643  11.6161890  48.6880989  11.6148643  16.1530132
  49.3534088  11.0151577  16.4905701  48.3234138  12.0319338  16.9335842
  79.6772079  20.1040611  78.8441467  78.7948914  20.3799763  78.5959244
  79.5526657  19.5961170  79.6458359  51.1563148  69.7225800  17.8815708
  50.4150352  70.2658615  18.1491261  51.6716652  70.2873764  17.3056774
  14.0952196  52.1200218  22.0082684  13.9215879  51.1792107  22.0392323
  13.3558569  52.5153618  22.4700928  48.1631508  60.7691841  14.8673058
  48.7819824  61.3312721  15.3334970  47.4479713  60.6332245  15.4888086
  62.6610756  17.8347340  56.3582840  61.8690567  17.7504826  56.8891716
  63.0053673  18.7005558  56.5774803   3.0818374  61.7397919  18.2417831
   2.4894860  60.9925690  18.1580677   3.3021481  61.7676468  19.1728668
  32.5048027  34.7965660  27.1334248  33.3048782  34.3690910  27.4390049
  32.2881355  35.4217834  27.8250828  26.3534050   8.0846128  12.6118393
  26.8490543   7.8716168  11.8211460  25.6325569   7.4548898  12.6195564
   8.4617758  32.0626678  11.1628866   7.8890591  32.7511559  10.8249331
   9.3476124  32.3918533  11.0106955  68.1896286  70.8859940   4.0756102
  67.8865967  71.6087723   4.6251593  67.3909531  70.4156342   3.8366499
  43.4604645   4.5919247  55.7153244  42.5383492   4.8079424  55.8541489
  43.9373741   5.2116003  56.2674026  64.6063538  68.4613724  10.4065647
  63.9526443  68.8284378  11.0016804  64.9160385  69.2114258   9.8988800
  19.2575912  53.5731316  63.5729637  18.8697662  53.7156067  62.7095261
  19.3424091  54.4508896  63.9452248  53.5864754  23.1038074  23.4352436
  52.7011795  22.8226414  23.2040997  53.6846886  23.9571590  23.0128956
  65.2893982  67.4672775  39.7411346  64.9627533  66.6410446  39.3849335
  65.9348526  67.2063675  40.3980637  -0.0391832  15.2108631  69.4621429
   0.1980750  16.1331863  69.3659210   0.5998210  14.7419271  68.9254837
  54.8816223  49.6334953  72.1936417  55.5605774  49.1335258  72.6467285
  54.9429436  49.3489609  71.2817688  55.4523048  65.1500549  87.7059784
  55.9276276  65.5885162  88.4117050  55.3170166  65.8323135  87.0483704
  13.6367359  29.5169659  30.4232197  12.8589602  28.9884186  30.6019192
  13.2944260  30.3256836  30.0423870  29.4828033   8.9941063  75.2108917
  29.3969002   8.1235361  75.5994263  29.6939831   8.8266945  74.2924118
  57.1907539  31.2085209  65.4879532  58.0271111  30.8796844  65.1584015
  56.5962524  30.4613705  65.4203796  54.1606064  70.7524643  44.8319817
  54.6505470  70.9625702  45.6269913  53.4064522  70.2504959  45.1410332
   4.4995685  23.1972466  76.7376175   4.7635245  22.2848835  76.6186523
   3.6823490  23.2762604  76.2455368  60.0301361  40.5637589  71.4677582
  60.8160629  40.9106331  71.0455780  60.3330803  39.7852974  71.9351501
  69.8643036  37.9096527   3.3800790  69.3818741  37.1704941   3.0097485
  70.5773163  37.5063591   3.8752561  33.4327698   3.0763831  19.4434071
  33.4071884   2.7732701  20.3509865  33.2892647   2.2860599  18.9228039
  37.8679428  55.2203102  45.3022728  36.9679947  55.2317505  44.9764023
  37.9438744  54.3868637  45.7668533  52.8310318  52.4015961  68.0483932
  52.9973373  52.4739342  67.1085281  51.9824295  51.9628334  68.1083908
  85.4021683  71.2680817  47.6610947  84.6118393  71.0945435  47.1497345
  85.1310806  71.1436768  48.5706329  48.4583702  57.8113632  65.0062714
  48.3168755  58.7577362  65.0305786  48.2628212  57.5630798  64.1027527
  11.1438951  24.3603039  24.3431587  11.6860895  25.0484352  24.7288170
  10.6857042  24.7922039  23.6222191   1.7757853   4.7833490  37.3638420
   2.4873667   4.2571015  37.7284622   2.0781915   5.0204949  36.4871750
  17.1394978   9.8357220  84.5166168  17.0563240  10.7746658  84.3501816
  16.2385101   9.5306540  84.6233139   4.5067267  38.7452850  18.0909405
   4.8877625  38.3978081  17.2845249   3.6684053  39.1183281  17.8183842
  70.0351868  58.5872231  12.9360323  69.8262558  59.0835152  12.1446571
  70.9910355  58.5366478  12.9416609  34.9403229  60.1787872  28.7778969
  34.0364380  60.2285881  28.4668560  35.4111481  60.8236923  28.2500191
  62.7544441  16.4565220  28.2115784  62.6489105  16.2514114  27.2825871
  63.3230667  15.7633295  28.5468159  57.3086662  16.3818207  56.9866333
  56.5234184  15.9055166  56.7169151  57.8929176  15.7056637  57.3297005
  61.8900757  65.5042877  40.5841637  62.3098412  64.8682632  41.1633835
  60.9574242  65.4349060  40.7880745  57.3136292  35.8651695  54.6028442
  57.4667244  35.9030266  53.6587257  58.1863861  35.9335938  54.9899406
  77.6632767  71.2989197  80.7945938  78.0930786  70.5514145  81.2102127
  78.2799835  71.5857315  80.1210632  67.5639038  44.0891800  54.4015884
  68.0260010  44.1729584  53.5675163  67.6253128  43.1585579  54.6170044
  63.7125893  63.7655449  53.7348175  64.6624146  63.8326950  53.8325500
  63.4662361  64.5497894  53.2444077  83.6819153  57.1103363  21.1142998
  83.0845947  56.6310310  21.6885071  83.6436081  58.0134888  21.4290695
  53.6159515  42.6323357   5.7632937  53.2239799  41.8884926   5.3058157
  54.0833817  42.2405243   6.5010090  56.6942520  62.6706276  87.0877914
  56.7870026  62.4373970  88.0114975  55.9217072  63.2350883  87.0596924
  46.4810982  65.5541306   6.1102090  45.8079300  66.1067505   6.5073118
  47.1756287  66.1640396   5.8614697  68.0660629  18.2708149   3.6023138
  68.1125641  17.3780861   3.2601047  68.8794632  18.3812542   4.0946732
  14.2695885  47.7951012  35.4855957  14.3078346  47.7178574  36.4389038
  13.3490438  47.9772720  35.2967987  67.3998108  46.1185074  38.8052864
  67.2741776  45.8478813  37.8957748  68.0735168  45.5268250  39.1403465
  82.8388519  66.9371948  20.8817978  82.8133240  67.4608917  20.0809708
  81.9907303  66.4940720  20.9053383  79.0437927  33.9627266  72.9521179
  78.4420013  33.6797905  72.2636185  79.5691605  34.6505165  72.5432510
  65.7464981  44.4312439   7.6701140  66.6560135  44.7037506   7.7915802
  65.2630539  45.2505951   7.5644221  73.1557770  37.2802849  34.5713539
  73.0380554  36.7319298  33.7956734  73.7535400  36.7818451  35.1285553
  14.3529806  60.5241013  14.4796534  14.4891520  59.9884300  15.2611542
  13.4017963  60.6000710  14.4041042   1.2888205  60.4940147  77.9267807
   2.2037013  60.6621399  78.1525269   1.1139151  61.0755882  77.1869049
  42.7433128  42.3036461  88.7039108  43.0394211  43.2127190  88.6577072
  42.6308136  42.1356468  89.6395111  20.7077465  55.2465706  24.5302162
  21.2744217  55.3647118  23.7678814  20.1777458  54.4782867  24.3179131
   4.3824143  25.5754204  18.7361889   3.6480825  26.0725098  18.3757839
   3.9873540  24.7665710  19.0616455  44.1357269   7.4230523  48.5193787
  44.0147591   7.7408991  49.4141235  43.2580147   7.1680746  48.2350578
   1.6047016  32.5595169  30.6671829   0.7688053  32.3996315  30.2290668
   1.8134419  33.4703712  30.4598026  44.9333000  64.6661224  81.6945038
  44.2103653  64.2214203  82.1370316  45.1131134  64.1245728  80.9259796
  85.4474945  24.0666428  48.9972153  85.3340302  23.2907143  48.4483109
  86.3136673  23.9577465  49.3897781  19.9221783   6.4675326  65.7484741
  20.4835625   6.7583899  66.4671402  19.1882591   6.0299320  66.1798630
  52.6426811  18.3675766   6.6830444  52.3327560  18.6470528   5.8216095
  51.9470711  17.8002014   7.0153747   7.1743846   3.7749832   4.0117793
   6.4512277   3.2207987   3.7182570   6.9782867   4.6378694   3.6468067
  22.9623623  26.0195961  43.6571503  23.0626965  25.0764809  43.7863846
  22.8427849  26.3708687  44.5395012   1.3667730  66.6835251  58.3057327
   0.4108872  66.6843491  58.2556000   1.5663310  67.2062607  59.0823631
  34.6685448  52.9195786  74.1951447  34.7685966  53.5473938  74.9107361
  34.0497780  52.2708015  74.5304794  45.9889832   4.8239923  83.9786758
  46.6388435   5.3387942  83.5002518  45.8834877   4.0278301  83.4578857
  18.3189869  23.5269222  13.4418192  18.5998936  23.7251911  12.5485039
  17.7135696  24.2339516  13.6650066   2.7160141  61.4115868  15.5160828
   2.8644183  61.8278198  16.3651752   2.1632795  62.0306931  15.0391912
  14.7981825  19.9142094  76.6061935  14.4636812  20.3885918  75.8450699
  15.7155151  20.1800461  76.6699371  52.7098083  10.6679306  87.1268997
  52.0892525  11.3921604  87.0454483  53.1008453  10.5885839  86.2568283
  75.4956360  10.7935858  19.7945957  75.1088333  11.5656023  20.2076397
  74.8944931  10.5766935  19.0819836  83.3917542  38.1623535  71.4869537
  83.1654587  39.0224648  71.1330795  84.2818527  38.2681541  71.8227615
  30.3645287  55.4818039  50.7184982  29.7762852  55.2214203  51.4272995
  30.0229816  55.0312843  49.9460945  80.9626007   3.1300805   4.1243610
  80.8909225   3.8059900   3.4503875  80.0713577   2.7952969   4.2235637
  57.9404297  64.1147690  64.9710922  58.3072624  64.7729340  65.5614166
  58.6970749  63.7700844  64.4968414  61.9218445  70.0921707  64.6574707
  61.2715797  69.3968277  64.5580750  62.4595261  69.8131180  65.3985901
  17.8773384  18.5635109  85.2174988  17.5913563  18.9848633  84.4069977
  18.4837494  17.8804436  84.9312897  26.9585495  11.1703749  15.5670280
  26.6641140  11.8060579  16.2192898  26.2464333  10.5328331  15.5154228
  69.6812057  55.2790604  69.6071243  69.4185791  55.4325371  70.5147095
  68.9949799  54.7144318  69.2514267  52.3727455  37.4938316   3.7859826
  51.6130867  37.3288918   4.3445034  52.0782776  37.2596359   2.9058280
  30.1190186  52.2954063  44.8232651  30.0023136  52.1266251  43.8883171
  30.6516380  53.0899544  44.8585548  31.4147739  53.4767609  40.1978798
  32.0138893  52.8761978  40.6413002  31.7544212  54.3480759  40.4020386
  53.0617447   5.8773222  74.7287521  52.9813538   5.6752949  75.6609268
  52.2823753   5.4888287  74.3313980  -0.1070183  18.2639771  38.8357697
   0.0425456  19.0588036  38.3238029   0.7124088  17.7745876  38.7631836
  60.9292412   8.3451910  13.7127094  61.5276337   8.1750765  14.4401836
  60.1962929   7.7476048  13.8607197  17.4146633  12.5642767  86.6884918
  18.2309780  12.1216307  86.9207153  17.3177052  12.4103756  85.7487335
  62.9255791  37.8387413  16.4061909  62.1895561  38.4387589  16.5265236
  62.9199219  37.2921295  17.1919498  44.0830078  33.1952629  49.4258881
  44.4230309  32.6706924  50.1507607  43.4195824  32.6387024  49.0180435
  22.1396008  21.0699711  14.6807966  22.3268452  20.1393528  14.5578327
  21.1904507  21.1389484  14.5778952  26.4094868  56.5276260  60.7016068
  27.0325985  56.1123390  60.1053658  26.6657391  57.4498329  60.7115936
   2.2780421  62.3125610  87.9593506   2.7401564  61.8859406  87.2377777
   2.0832827  63.1910591  87.6329498   4.9560885  42.3635368   9.2901335
   5.7609324  42.4254951   9.8045454   4.3127942  42.8655891   9.7904797
  82.3911591  32.2419319  84.4290771  83.0714798  32.7913742  84.8183289
  82.5047302  31.3881702  84.8467178  20.8572006  70.6349792   5.8160019
  19.9945450  71.0376740   5.9154844  21.4132652  71.3392105   5.4827132
  76.2704239  57.2520218  37.5610199  76.8427200  57.1046448  36.8080330
  76.8642197  57.2804337  38.3112373  77.6661758   3.1370361  58.4203377
  77.0355606   3.6858759  57.9541473  78.5210114   3.4775007  58.1565933
  57.2272263  46.3310814  83.7189941  57.5001183  46.9502602  84.3960342
  56.5948524  45.7610931  84.1565399  44.0540085   2.9071171  44.1767235
  44.9009438   2.9311798  43.7313576  43.4108772   2.8958182  43.4678574
  23.9823780  21.8605003  79.1983719  24.4178391  21.6957912  80.0347137
  23.8042164  22.8009663  79.2022247   9.4508963  40.9427948   6.1323638
   8.5120916  41.0697517   5.9953971   9.8605776  41.6825180   5.6838059
   6.3264055  29.0331001   8.5638275   5.7732186  28.9318562   7.7892523
   6.9113536  28.2757702   8.5410404  45.5411758  69.6850052  29.2827549
  45.3930206  69.9751434  30.1828136  45.1378174  70.3645325  28.7425938
   4.6319208  58.9108162  29.1342621   4.1656923  58.0853386  29.2663555
   4.4271226  59.4287872  29.9127197  48.0557671  26.9849968  68.8323135
  48.6195412  26.2585545  69.0981522  47.2192879  26.8090668  69.2631073
  79.9220657  22.4595490  48.8264923  79.6294479  22.1019573  49.6647873
  79.4109802  21.9838696  48.1716995  69.8540344  28.4749737  16.4033146
  69.9895630  28.4744568  17.3508720  70.6469269  28.0735722  16.0477409
  44.2968597  15.5396423  84.9955521  43.3517265  15.4973440  84.8500748
  44.6645203  14.9234419  84.3620300   3.9483483   5.8345380  63.3014793
   4.8392110   5.7460608  62.9627075   3.7118664   4.9519978  63.5868378
  53.0955009  37.3942871  66.6658630  53.7214050  37.9598465  66.2135162
  52.5017395  38.0004044  67.1089172  47.3685188  62.0678215  43.5808029
  48.2600822  61.9854584  43.2423325  46.8907738  61.3439293  43.1758690
  80.5913010   6.3605967  46.9476166  79.9648972   5.9886355  46.3267326
  80.7186279   5.6724496  47.6006660  83.9029770  70.3828506  75.2507935
  84.3500214  71.2219620  75.3615875  83.4310989  70.4703751  74.4225998
  36.0590477  38.2212334  21.6862049  36.3548241  38.9014473  22.2912273
  36.7506256  38.1703568  21.0263844  86.1505432  31.4617634  29.4283466
  86.3278122  30.6825771  28.9013996  85.4454651  31.9108963  28.9621010
  72.1457291   3.6217072  55.0950508  72.6254578   2.8817244  54.7228699
  71.2687988   3.5528660  54.7175827  41.5202332  45.5743408  34.0196648
  41.7547531  45.5816841  34.9476624  42.0780869  46.2453957  33.6263275
  68.8031998  46.1380005  62.5287399  69.5283508  45.5390282  62.7065735
  68.6313324  46.5622711  63.3693848  67.3579254  69.9951630  73.0010376
  68.3069305  70.0734711  72.9035950  67.0194931  70.8540268  72.7479630
   9.7192774  25.4695053  78.7653809   9.4861546  24.6036491  78.4304504
  10.3657217  25.8012714  78.1422653  76.4453964  67.7658768   8.7115507
  76.5603790  66.8343430   8.8993225  77.2814255  68.0390472   8.3338337
  75.2187805  63.7425461  69.1912994  74.3884888  63.7877159  69.6654358
  75.0306396  64.1388168  68.3405304  72.8553391  40.3796234  48.0604935
  73.2045059  39.5123711  47.8550911  71.9058762  40.2588272  48.0726814
  18.0457287  16.5887642  68.5391464  17.7246552  17.4072323  68.9176331
  17.6518764  15.9041100  69.0798416  33.9699173   1.9855015  79.0829010
  34.5358162   1.4920448  79.6766129  33.0894661   1.8705506  79.4404297
  50.2508698  59.5259705   3.8094959  49.3890915  59.1670876   3.5979052
  50.4896278  60.0444756   3.0411348  39.5778008  32.5045509  20.4000664
  40.3880920  32.9883156  20.5601501  39.6446609  31.7326546  20.9621487
  19.1574097  52.6438522  43.1191826  18.5232239  53.2280083  43.5348778
  19.0594673  52.8119888  42.1819687   0.8582675  13.3523331   9.4843197
   0.5227943  13.6013470  10.3455296   1.0225438  12.4119148   9.5540199
  76.4234924  19.0571842  14.8128891  75.7464981  18.4128876  14.6060362
  76.2100830  19.3531475  15.6978149  73.8832779  15.0090971  10.7122669
  73.4300232  15.0423450   9.8698378  73.3034363  14.4972219  11.2761812
  37.1328201  54.3302879  28.4141769  37.6957970  53.7144127  28.8832054
  36.8184891  54.9302826  29.0905170  48.4167824  52.1975632  33.1287956
  48.6262474  53.1287498  33.2012482  49.2187462  51.7499771  33.3985291
  53.7485428   6.7401280  21.1937084  53.9820099   7.5974712  20.8377762
  54.4973221   6.1818452  20.9842148  79.0650024  33.1291199  34.0517731
  78.6452026  33.8446808  34.5292473  78.7937393  32.3384247  34.5180931
  51.0213356  55.0055046  43.0651817  51.9041328  54.7171173  42.8333855
  50.8891068  54.6800385  43.9555855  18.8014736  61.7538643  12.9965382
  17.9146957  61.5365829  13.2840223  19.3304634  61.7034492  13.7926922
  66.2644043  18.5342445  15.2527618  66.3958282  17.6400318  15.5679512
  65.9350739  18.4276676  14.3603411  77.3184586   6.9981041  39.0521317
  77.1776352   7.2751789  39.9574661  77.0502319   7.7517748  38.5265160
  26.7179165  31.6726170  63.6328621  27.2429371  30.9018745  63.8485947
  27.2965565  32.4140549  63.8108482  65.9465637  59.1084824  73.1925507
  65.6863708  59.7158928  72.5000305  66.9018250  59.1652603  73.2144928
  82.6287842  20.9524937  88.2830505  81.7325363  20.6726418  88.4692078
  82.6520996  21.0649052  87.3327560  66.0993652   2.3377724  61.0357208
  66.3975601   1.7635170  61.7410889  66.8503342   2.4022133  60.4456978
  19.1244507  24.0620518  23.5964432  18.3015804  24.5256424  23.4408798
  19.1749268  23.9765873  24.5484829  35.9531631  16.5847321   9.2555561
  35.3495712  16.1165829   9.8323946  35.6559334  17.4941349   9.2851496
  69.3397369   9.7754326  72.1270752  70.0536957   9.1409731  72.1899490
  69.6422119  10.5275946  72.6359863  83.7096786  15.1504593  33.5964279
  84.5497742  14.9854393  33.1683655  83.8455200  15.9617910  34.0858345
  53.5375214  25.7697926   1.7317033  53.8051033  26.5548096   2.2095916
  53.7351494  25.9676628   0.8162681  73.8878021  54.0933914  44.6954727
  73.4728775  54.8412628  44.2656364  74.4478912  54.4833412  45.3666458
   9.1016483  37.5490570  13.8357964   8.6813154  38.3446732  13.5093870
   9.3519983  37.0692558  13.0462732   4.5630932  44.3866501  22.3240643
   4.5444002  43.8922157  23.1434650   5.0210056  43.8137169  21.7090073
  14.6429243  34.7562180  67.9028549  14.4093113  34.0822906  67.2645111
  15.5492325  34.5585594  68.1390076  23.8823318  44.6823654  69.2264481
  23.3517056  44.9440498  68.4739914  24.1306877  43.7767334  69.0410385
  46.2192650   7.6619873  13.8299313  46.4756012   8.4350882  14.3327618
  46.3864212   7.9026918  12.9186945  62.4943619  15.5728416  72.5077972
  62.4079132  15.8955250  73.4048080  63.2720604  15.0151539  72.5277786
  60.8558006  21.2818413  42.8321609  61.7279396  20.8904610  42.8814697
  60.2574654  20.5572777  43.0144615   8.6278019  13.1777296  12.4742765
   8.4541426  12.2474117  12.3308096   9.4275103  13.1938028  13.0000525
  54.7812805  67.7086945   7.3599687  54.5583191  68.0570679   8.2231922
  55.6677933  67.3627014   7.4629903  26.3117447  59.3276749  19.0904655
  25.7909889  60.1054077  19.2909088  25.6882420  58.7165451  18.6980362
  30.9240932  23.3908310  81.3312149  30.5473423  23.5084152  80.4591675
  31.7280540  23.9101315  81.3167953   2.0293012  58.3182068  73.3825989
   2.0226884  59.2439613  73.1393509   1.6566746  57.8686104  72.6241455
  63.2548828  63.6346474  61.4138260  63.3960648  63.6640663  60.4675522
  62.7172318  62.8547974  61.5516434  72.4957352  40.8593292  31.4523239
  73.1429520  40.3895149  30.9263821  72.5458603  40.4495773  32.3159332
  83.8490982  19.0247269  83.9113998  84.4694672  18.3478775  83.6407471
  83.6776352  18.8372555  84.8342743  61.1317253  64.3062515  74.7043076
  62.0674515  64.4997025  74.6475143  60.7033615  65.1488724  74.5535507
   7.4740915  57.9716492  14.7080421   7.0165262  58.3968124  15.4333706
   7.7760544  58.6948853  14.1585150  82.3002014  58.7073059  71.3273621
  81.8670120  59.1101570  70.5748444  81.6214981  58.1689491  71.7345123
  44.4992065   4.6375270   1.4187158  44.9207382   4.0829310   0.7622356
  44.7500496   5.5288277   1.1760386  62.2090416  68.9075012  80.7267838
  62.1004066  69.6821976  81.2783890  63.1528969  68.8495560  80.5784225
  57.4699898  36.0086365  66.8109207  57.3561401  36.3496132  67.6980591
  56.9378548  35.2132607  66.7899170   6.8852491   2.6204951  81.1709595
   6.7712927   3.5061603  80.8262253   7.3105679   2.1399236  80.4607620
  12.5113420  54.2187767  71.7850037  12.5805149  54.3788147  72.7261887
  11.5730324  54.1124763  71.6284561   2.2586508  19.3272877  22.1470680
   2.7068205  19.5939369  22.9497356   2.5003955  18.4083233  22.0317497
  56.4079742   1.2629057  56.0353279  55.4757652   1.2136490  56.2469788
  56.7619133   0.4185047  56.3145142  52.0631065  22.9439526  64.7421722
  52.9535484  23.1063728  65.0535583  51.5832939  23.7426777  64.9613647
  75.4886780   9.7104721  26.4898453  74.6075668  10.0790539  26.4264526
  76.0705872  10.4479294  26.3060665  57.5750542  35.7499847  34.0697517
  56.7166328  35.7264137  33.6469193  57.6964302  34.8654480  34.4148521
  14.2374115  71.7165070  71.9812775  13.4900637  71.2261581  72.3237152
  14.9903908  71.1472321  72.1399384  42.0776138  17.8869190  84.3192673
  41.8286438  16.9784203  84.4891968  41.2848358  18.3908882  84.5029831
   0.1022359  66.5674973  75.2229309  -0.5947725  66.0504684  74.8190842
   0.7300514  66.7167587  74.5159683  32.1401138  58.3865700  79.6332855
  32.1678276  57.6215935  80.2079773  31.2659950  58.7536659  79.7651520
  29.9563656  54.1494217   0.4147443  30.2593994  54.0455475  -0.4872602
  30.4713306  54.8797226   0.7578183  70.6362839  40.5547943  56.1277771
  70.3956985  41.1592636  55.4256630  70.2030334  40.9064407  56.9055061
   5.0186448  47.8817978  55.1722832   4.0849013  47.9156532  55.3801498
   5.0629668  47.3986588  54.3471489  67.5620651  13.5132723  62.2802582
  66.9251785  13.8444662  62.9134407  68.3915329  13.9114017  62.5442581
   2.1104331  19.3987484  71.5973511   2.6396081  19.2799511  70.8086243
   2.2930527  18.6229076  72.1274033  79.7396240  35.8491669  24.8186359
  79.1602707  36.5517273  25.1135769  80.3972855  35.7748756  25.5101452
  42.9861069  40.1837616   4.1795630  42.1694756  40.2841225   4.6687198
  42.9590721  39.2854767   3.8500464  56.6564980  11.7944698  77.1040192
  56.3613014  12.5051165  77.6732941  57.4455147  12.1364079  76.6835861
  64.1552353  12.1715641  25.7958755  63.2242470  12.0131140  25.9520435
  64.3204803  11.7954388  24.9313202  26.6090679  47.1092911  79.4726639
  25.7751827  47.4183617  79.1186218  27.2345715  47.7982635  79.2484055
   8.7190065   1.5735586  30.5335884   8.3721294   1.6444192  31.4229069
   9.3562145   2.2847919  30.4676666  77.4861145  18.3027248  80.5808105
  77.3329697  18.0870705  79.6608810  76.6672363  18.0732517  81.0201416
  57.4240532  16.1308689  15.6468592  56.4683075  16.1149158  15.5965481
  57.7034950  15.3710127  15.1362114   5.5975790  11.8570738   3.0371056
   6.3810487  12.2770700   2.6821265   5.0057192  11.7825747   2.2885177
  66.1480408  31.3790417  74.9892654  65.8394623  31.4210300  75.8943939
  66.7061462  30.6018524  74.9623032   2.2716408  59.2877388  54.4574089
   2.6398909  58.4579010  54.1541061   2.7805533  59.5043068  55.2386513
   1.1241244  34.2878990  46.6245117   0.5906255  34.2976990  45.8298340
   1.7156502  35.0338516  46.5250893   5.2300549  26.2251720  13.3489561
   4.5768242  26.4547901  14.0098619   4.8110518  26.4362087  12.5146103
  73.4382324   3.3123088  67.6822662  72.7988281   2.6117394  67.5534592
  73.9756241   3.0141592  68.4161224  24.0948257  58.1153679  18.2449303
  23.3680973  58.6440506  17.9153957  24.1565933  57.3838005  17.6307449
  16.4584522  35.2792854  53.2998695  16.5385036  34.4694862  52.7958412
  17.1685219  35.2340546  53.9401741  23.7112217  46.9768791   1.5954914
  23.3700237  47.7652245   2.0177805  24.6014729  47.2116394   1.3336265
  61.8995438  30.3800869  25.7670574  61.5136185  30.7411919  26.5651169
  62.4488106  31.0859413  25.4260139  17.1704025  41.8938599  39.1110764
  16.6512527  41.1595879  39.4390450  17.7042179  42.1626282  39.8587646
  13.7781534  63.8737373  66.6887741  13.7125769  63.6637878  65.7571869
  14.7147722  63.8246536  66.8800049  43.6791229  66.7073746  78.4474335
  43.3054695  66.5284729  79.3103409  44.2886658  65.9850616  78.2959366
  52.9307098  12.3372164  52.5929642  53.6846352  11.7543678  52.6830521
  52.6820679  12.2664909  51.6713295  51.3505173  60.9364586   9.5491610
  51.4957123  61.8770638   9.4471006  51.6039886  60.7517204  10.4535151
  81.2029114  17.9754181  54.2512550  80.9167786  17.7008362  53.3800697
  81.7235489  18.7633133  54.0950851  46.0830078  -0.0348326  69.1528702
  45.3285637  -0.0487202  69.7418137  46.6989822   0.5696275  69.5669174
  63.5452309  65.4762573  83.9842072  62.7333984  65.3612595  83.4903107
  63.7986336  64.5889206  84.2384796   9.7073050  49.2549934  38.5853920
  10.5837193  49.6297264  38.6731644   9.5030403  49.3390656  37.6540298
  49.3839111  45.1281967   4.2942939  48.7375298  44.6623764   4.8247981
  50.2291183  44.8224144   4.6234670  45.9300690  48.4094734  55.1875801
  45.8735428  49.2480736  55.6456070  45.1791878  48.4097137  54.5939369
  11.0535564  58.8891716   8.3299818  10.7585421  58.9817009   9.2358713
  10.3235683  59.2183037   7.8055563  40.7825737  44.1339760   7.9599991
  39.9168358  43.7279472   7.9167333  40.6447639  45.0263176   7.6422496
  23.1438942  65.1712494  83.4011612  22.5455780  65.0688324  82.6610489
  22.9874191  64.3987656  83.9443130   8.8507853  20.1591415  12.3192911
   8.3222895  19.7751694  13.0189266   9.4955511  19.4839344  12.1080894
  62.9565163  14.2111273  50.3015556  63.4457855  14.9674129  49.9777031
  62.7578430  14.4267035  51.2127571  61.4833374  41.4996033  14.2018881
  62.2013359  41.0308456  13.7764750  61.6896706  41.4573250  15.1356287
  32.3917732  41.0866470  74.4766159  32.9589653  41.4558372  73.7996979
  32.7960854  41.3564453  75.3012238  78.5932770  70.9014130  48.8123589
  78.0564041  70.1906586  49.1628113  78.0686874  71.2696991  48.1014442
  14.0283327  65.3809814  19.2919731  14.9104023  65.1619339  18.9916363
  13.5481348  64.5541153  19.2480812  25.0367470  60.6295967  86.4086609
  24.5481453  61.2738609  86.9209366  25.6203403  60.2124329  87.0423965
   5.7264333  10.0723295  21.4826031   6.2074018  10.7035999  20.9474392
   4.9883776   9.8065004  20.9341145  73.4217911   3.0488443  23.1393261
  74.0478210   3.6677241  22.7634201  73.4127350   2.3145974  22.5252972
  75.8246078  36.2071571  83.3356781  76.0715485  36.8085403  82.6331177
  76.6247787  36.0975647  83.8494415  83.3227158  17.0095310  87.1855087
  82.5604782  16.4686832  87.3921738  83.7716751  16.5336819  86.4867706
  72.6121063  46.1352615  77.1541901  73.2416992  46.1714325  76.4340973
  72.7311096  46.9639549  77.6182404  40.3550339  58.0016594  28.8724709
  40.7106895  58.1854362  28.0030098  41.0756226  58.1956711  29.4719219
  54.7680855  28.7925682  34.9325256  54.0278282  28.6589088  34.3405914
  55.4135513  28.1404362  34.6598854   0.1499267  51.2790375  22.2170105
   1.0064187  51.6690865  22.0423241   0.2834719  50.3400726  22.0876293
  84.1991425  32.9916344   4.7674441  84.8004990  32.2798119   4.5485549
  84.7497711  33.6472588   5.1954646  50.1883888  53.3070946  36.4539452
  49.6146088  52.6963348  35.9913597  50.7409668  52.7489471  37.0010796
  84.8627853  34.5637894   7.9187856  85.5260086  33.9629097   7.5792127
  85.2818298  35.4239197   7.8903518  10.4858599  22.5246696  82.1045609
  10.6543550  23.4400482  81.8811264   9.8495674  22.5655994  82.8184814
  52.5691414  46.2762337   0.3829500  52.6226196  45.6168137   1.0747139
  52.4215698  45.7723427  -0.4173903   5.0223465   0.1086716  73.1279907
   5.7594323   0.5822464  73.5135574   4.5404940  -0.2371518  73.8792953
  16.9494362  14.9778357  87.5648651  17.0884895  14.0469942  87.3904190
  17.7218857  15.4082088  87.1983566  81.7956009  65.5325699  49.4681091
  81.2564392  65.4580688  48.6807137  81.9836426  64.6273956  49.7161636
  31.3873367  18.5432663  71.2514343  32.1445007  17.9581833  71.2762299
  31.1038780  18.5295315  70.3372650  54.6108055  51.3723183  47.8652534
  54.8049850  50.4365005  47.8125648  54.2727356  51.5959740  46.9981232
   9.0460682   7.7714415   1.6151451   9.0922604   7.7837801   0.6591399
   9.3548956   8.6375523   1.8810568  61.3300171  27.2286186  15.5575294
  60.9427567  27.3269424  16.4273548  60.6504631  26.7963028  15.0402822
  47.9082680  71.6046295  27.0486012  48.2248077  70.9408722  26.4358501
  47.1729698  72.0174713  26.5956936  30.4823914  58.5377922  54.2966080
  31.2276688  58.6240921  54.8910408  30.8624859  58.2083969  53.4822006
   4.0090704  68.6371002  47.9264603   4.6425714  68.6630173  48.6435623
   4.4865994  68.2377396  47.1993332   5.3031225  53.6428642  68.7873688
   5.6429377  52.8269386  68.4199142   4.4453492  53.4073792  69.1409225
  16.5050411  19.6799049  82.9833221  16.2275620  20.5871258  82.8560944
  15.6917152  19.2006168  83.1414795  21.8380547  23.4269733  84.4177628
  21.8724327  23.8420906  83.5559464  21.1690826  23.9188080  84.8940048
  34.0420685  59.8153229  39.1139946  33.6923370  59.4295540  38.3108139
  34.6581802  60.4822159  38.8108559  23.5687809  38.0863113  72.7305908
  23.7074432  38.7826805  73.3725204  24.0461979  38.3779869  71.9539108
  54.2452888  34.6171150  50.7950630  54.5554733  35.5221710  50.8249168
  54.1695366  34.3594589  51.7138176  23.8258591  35.9692802  30.1781921
  23.0993690  36.5087891  29.8661461  24.6066799  36.3828697  29.8100948
  16.3172417  61.6032829  19.2079620  16.8379974  61.0178909  18.6580868
  16.8415852  61.7167358  20.0006924   0.9860239  59.8249168  24.0759335
   1.5187198  60.1612511  23.3552780   0.1988230  60.3693924  24.0662880
  64.4080200  26.4166203  77.5428772  65.0443115  27.0991879  77.7561035
  64.9223862  25.7376595  77.1062164  57.3032837  13.2030582   1.0196655
  57.2673416  14.1198034   1.2926449  56.6824188  12.7570944   1.5957541
  81.9541092   4.2510133  40.6380615  82.8916016   4.3741684  40.4891701
  81.6064453   5.1387806  40.7230988  45.5333328  14.2601614  80.7536011
  44.8893585  14.7293434  80.2231369  46.2153473  14.0051374  80.1322708
   8.7591057   1.0785267  61.9071884   9.5700684   1.1097119  62.4147301
   8.8177881   1.8287499  61.3156204   7.4344773  61.5421104  83.8835297
   8.3779087  61.6980171  83.9266891   7.0670300  62.3761406  83.5909348
  11.9805498  22.2472000  14.2182894  12.5823183  22.9769230  14.0712862
  12.3958521  21.5028152  13.7828016  83.6558990  57.5177345  66.7230606
  83.4028091  57.4567070  65.8019485  82.8745041  57.8504257  67.1646118
  41.5680580   8.7219143  79.8526611  41.5265541   9.6782122  79.8546143
  42.3979950   8.5173159  80.2834473  52.4965782  25.9488220  66.6895752
  52.9765167  26.3072910  67.4361572  52.8375473  26.4269962  65.9337158
  19.3364067  11.4215698  70.2049713  19.1023407  10.5035915  70.0679932
  18.6697578  11.7513952  70.8074875  48.7018776  69.0117722  55.2182045
  48.6193390  68.0623474  55.1286964  47.8018608  69.3352356  55.1784897
  83.5622635  33.4784470  54.0981216  84.3549881  33.0481377  53.7777405
  83.6716080  34.3966980  53.8509483  67.4825363  17.4776382  82.6920166
  68.3951569  17.4089775  82.9724579  67.0196533  16.8286858  83.2219543
  71.1709900  56.5801163  17.7177181  70.6307831  57.3698044  17.7459888
  71.6628113  56.5968475  18.5387306   7.8006530  68.7454147  84.4134521
   7.1557298  68.0936737  84.6883087   7.5560040  69.5396042  84.8884659
  46.6497650   2.2520564  19.1402206  45.8147583   2.0543292  18.7160759
  46.4088249   2.5409615  20.0203991  26.9772301  51.3609619  42.5847893
  27.7713051  51.8951988  42.5684929  26.5127850  51.5976791  41.7819901
   4.6077061  47.3304787  70.7330399   3.6544878  47.4174042  70.7401886
   4.7620606  46.3982506  70.5802002  70.5388870  23.7707100  13.8125563
  70.4085846  23.2283058  13.0347042  69.6744003  23.8151226  14.2211304
  24.8237972  41.6471291  33.7550278  24.2570724  41.1650925  34.3572731
  24.9954662  42.4769859  34.2001152  23.9349594  45.0022125  46.2710876
  23.8441219  44.1282043  46.6506767  23.6801033  45.5972519  46.9762192
  75.2561569  25.7635040  68.6414566  74.8263245  26.1048946  67.8572845
  76.0401611  25.3236942  68.3126068  68.6947403  33.4768639  17.9410667
  68.8898849  32.6243668  17.5519695  68.0605469  33.2852859  18.6319542
  37.3505936  49.3959770  67.6822891  36.7955627  50.1524010  67.4925613
  38.2090645  49.6351738  67.3329468  18.2437840  60.6741371  80.4907379
  17.5042229  61.2264748  80.2373428  18.0850086  59.8420219  80.0450821
  29.0978928  48.5932503  36.8193626  28.5182381  48.7731628  37.5595398
  29.8060493  49.2309608  36.9091949  26.9133778  63.5531425  81.9949951
  27.3692284  64.1808090  82.5557709  26.2355175  63.1779709  82.5571213
  85.9151154  70.3540955  87.0151825  84.9945984  70.3167572  86.7553864
  86.0105743  69.6532745  87.6601410  24.3021793  62.6682510   8.7422638
  23.4901066  62.6883698   8.2359381  24.8034916  63.4176369   8.4208012
  83.7195511  10.2853937  63.8530273  82.7941284  10.0474310  63.9096222
  83.8426666  10.9347105  64.5454636  28.1474609  39.9456635  12.9981947
  27.8746109  40.5508118  12.3085728  29.0552559  39.7312546  12.7833233
  15.0560579  47.8087807   2.1182103  14.6528568  47.8797569   1.2529802
  15.6746178  48.5383530   2.1547797  50.6375275  53.7806511  73.2936096
  51.5003891  54.1800804  73.4038544  50.1295395  54.4360313  72.8154297
  19.3555393  39.3347282  76.5169144  19.9182701  39.8124962  75.9075623
  19.8263206  39.3627205  77.3498688  84.1767044  59.5354691  46.3757973
  83.6801224  59.5744362  47.1931801  84.7293701  60.3167953  46.3938332
  32.8343849  57.5957527   8.8639364  33.3857193  58.2829971   8.4898310
  33.1898003  57.4547043   9.7414417  70.2943573  12.2749557   7.7608795
  70.3623047  12.0138311   8.6792631  69.6288681  11.6923962   7.3948421
  50.8731728  35.2967453  34.0105095  51.0487556  35.0688667  34.9234581
  50.2966385  34.6002007  33.6964035  42.9423790  50.2920189  65.1011734
  42.6558380  49.4681206  65.4952698  43.6185989  50.6189308  65.6945419
  86.0879364  59.9943008  59.2706871  86.4829483  60.7085991  59.7706604
  86.2863235  60.2026520  58.3577423  31.3124104  29.4768677  10.6998014
  32.1267815  29.9524021  10.5357952  31.5524559  28.8030357  11.3358517
  83.2345428  43.7157593  52.8119164  84.1641541  43.6060600  52.6118622
  82.8142776  43.8042946  51.9564781  21.8608723  19.5080547  21.3028259
  22.1199436  19.0045929  20.5310497  22.6759930  19.8972054  21.6196442
  44.2493019  28.3298435  17.1094151  43.4901924  27.7531815  17.0231304
  44.4110413  28.6474209  16.2210369   6.8166585  63.1235123  33.4449730
   6.9631519  63.7343063  32.7226830   6.7702303  63.6792603  34.2229309
  82.0561981  60.7627831  61.6854630  81.1638184  60.9061050  61.3702621
  82.4669342  60.2274475  61.0065308  39.2762260  67.0480423  75.1968460
  38.7365189  66.3214035  74.8854904  38.9608612  67.8076248  74.7071381
  49.8650856  69.5970306  23.0389080  50.2264671  69.8035736  22.1769485
  48.9928093  69.9911652  23.0336189  67.4773560  60.1384621  80.9253235
  66.9749832  59.5348549  81.4725952  67.0367126  60.1148720  80.0759048
  48.5651321  64.9617691   0.5861832  47.7210922  65.0566330   1.0275767
  48.9260559  65.8480911   0.5664510  46.9879189  67.7431793  87.9176941
  47.3555069  68.1008682  88.7258835  47.7458534  67.4123459  87.4357071
  45.5603790  31.2824173  45.6874657  46.0669403  32.0700951  45.4895058
  44.6832962  31.4716244  45.3540649  46.9118233  67.0470581  80.3936234
  46.5075302  66.8337555  79.5526199  47.5647888  66.3599014  80.5266113
  70.6029434   2.7148385  20.3603401  70.6695023   3.3201246  19.6218071
  70.5909271   3.2799430  21.1328316  63.1407814  60.2178612  31.1507320
  63.4290581  59.6986847  30.4000092  63.9418411  60.3873367  31.6465225
  33.2943344   0.6422830  71.8830109  32.6928825   0.5408307  72.6207123
  33.5410576  -0.2528146  71.6502914  30.2737236  56.0882149   8.8102846
  31.1206245  56.5150490   8.6806536  29.7872105  56.2723846   8.0067797
  83.1659546  18.9081802  71.2668915  82.6531906  19.2683144  71.9905014
  84.0350723  18.7600822  71.6396408  65.7188416  17.4807701  80.4752426
  66.4724884  17.7638931  80.9930191  65.8785477  17.8411217  79.6029587
  60.3366699  42.6617050  29.4448452  61.2424431  42.7323227  29.7462139
  59.9692574  43.5345840  29.5838432  18.8934097  44.5405579  38.9263573
  18.6067905  44.1273270  39.7408028  19.4754982  45.2463760  39.2078285
   0.9383094  23.8437824  57.9516602  -0.0147065  23.8961010  58.0241547
   1.1681035  23.0288944  58.3981857   3.0258760   5.2451491   7.6191487
   3.5792804   5.8746643   7.1568861   2.1342971   5.4684658   7.3518505
  28.3378468  39.5188522  20.4964771  28.7225361  39.0717773  19.7425747
  28.2533493  38.8363037  21.1622219  71.0568924  18.6048431  32.5797806
  71.9509201  18.2724686  32.4993248  70.5181503  17.8204441  32.6832657
  18.4150639   6.8627453  16.0642052  19.2527447   7.3254018  16.0859528
  17.9170933   7.2346144  16.7921944   7.4450641  34.4166374  28.7974720
   6.5448050  34.1146812  28.6766930   7.3756413  35.1283607  29.4337616
  78.1194839  60.6839676  19.6823235  77.2939606  60.8924484  20.1196690
  77.8961792  60.6514626  18.7521019   4.5592289  39.5487938  13.8187733
   3.8504739  39.7830162  13.2195749   4.1705246  38.9029388  14.4087000
  64.1876373  50.4812965  61.8697548  64.6266022  51.1655502  61.3644447
  64.6775970  49.6838303  61.6692200  32.6510201  69.5971451  32.7071991
  32.9760246  70.2967148  33.2739487  33.4206734  69.0569839  32.5280724
  84.0895615   9.7713814  51.5808601  83.7271347   9.1892471  50.9130325
  83.3411484   9.9977331  52.1330147  52.3526917  66.6546249  80.3936768
  52.7946625  67.5036163  80.3837357  51.4333115  66.8612289  80.2254868
  27.1660233  53.2918282  56.6507874  27.5325756  52.4332466  56.8622398
  26.5004616  53.1112175  55.9869804   0.3300799  53.6494217  16.0135994
   1.1170810  54.1402702  15.7771111   0.6533087  52.7827568  16.2598648
  30.9530430   4.8567319  88.3340073  30.2247353   4.5014281  87.8245392
  30.5406723   5.4581351  88.9540863  33.6614532  45.1436691  26.4694576
  33.0871925  44.8736458  25.7528362  33.1450806  44.9907494  27.2607899
  68.9520035   9.8728247  64.2072830  68.8941574  10.1560755  63.2947845
  68.6166534  10.6150303  64.7101746  71.9852371  71.1289444  57.3534546
  72.0739746  72.0609207  57.5528946  72.7468948  70.7220535  57.7664261
  80.3457031  41.3735313  13.8555651  80.4640503  41.7108269  12.9676142
  81.1015396  40.8037605  13.9980631   5.6799488  36.0148697   4.0130925
   5.6738629  36.3653374   4.9038038   6.4388685  36.4258881   3.5991640
  69.2832718  41.7116928   5.5376740  68.4848099  41.2789803   5.8400888
  69.9635773  41.4052162   6.1372476  32.2834816  51.6502266  63.5879555
  33.2289543  51.7933426  63.5451622  31.9028702  52.5118599  63.4177895
  25.3450356  61.9207344  83.6562500  25.9097519  61.5166435  84.3150711
  24.4771919  61.9333496  84.0598907  14.9055653  17.2931328  63.6380844
  15.4429560  16.7489910  64.2137146  14.3564062  17.8025475  64.2340317
  16.9047985  27.0574780  78.0146103  16.1065331  27.2703323  78.4980316
  17.0435677  26.1249619  78.1801071  11.4805527  64.0644302   5.4604197
  11.9535036  64.2091904   6.2799273  12.1212902  63.6471596   4.8845949
  17.8559055  28.0247803   0.5184166  18.2368946  28.8865738   0.6869074
  18.2748852  27.7317352  -0.2907888  81.8478699  34.6690750  29.1704216
  81.5708923  33.7560692  29.0933876  82.6878586  34.6267929  29.6274319
  57.7097473  46.0708961  54.5903969  58.2095146  45.7335587  53.8469810
  56.8744888  46.3460503  54.2124252  34.4572449  66.2045670  39.8883667
  33.7829247  65.5319519  39.9838753  34.0096474  67.0240479  40.0989380
  61.8520813  15.0422859  88.7204742  62.6178398  15.2356396  88.1796799
  61.8986588  15.6755257  89.4367676  33.9590645  65.0261459  76.5145721
  34.4235916  64.5640182  75.8168030  34.2343330  64.5852890  77.3183746
  59.6871605  16.3842373  24.8666706  59.0273552  16.2111912  25.5381966
  60.0723076  17.2231541  25.1198730  76.2891922  16.1115646  24.9263630
  75.4453125  16.5498676  25.0358372  76.6846848  16.1323090  25.7977905
   1.4211713  55.6175117  67.1277924   2.2071800  55.7457848  67.6588058
   0.7315639  55.4254112  67.7632217  49.5691681   3.2530811  71.2946777
  48.8649330   3.0831950  71.9203186  49.2567940   3.9961126  70.7783813
  41.8896255   5.8688807  47.4997482  42.1297379   5.0244679  47.1182442
  41.3413696   6.2850161  46.8345566  25.9175930  20.3812351  12.4097300
  25.4427490  19.6245155  12.7534323  25.2320232  20.9993420  12.1564131
  64.4654160   8.3640118   6.6859450  63.7051506   8.3632240   7.2675209
  64.1078491   8.1507492   5.8240285  46.1446991  41.3381882  77.7491074
  45.5978546  41.8545990  77.1570587  46.8376770  41.9398842  78.0210953
  86.4884491  23.7823124  61.9209404  86.5078354  24.5813541  61.3942604
  87.1905441  23.9001102  62.5607910  14.4539967  41.4199905  70.8821869
  14.1220713  41.2504845  71.7638474  15.3032093  41.8388138  71.0223846
  47.9515190  60.3299866  49.6916084  47.3958740  59.8925552  49.0465164
  47.4106903  60.3785973  50.4798775  78.1345062  60.9029846   2.7909811
  77.8259964  60.5438194   3.6228795  79.0549469  61.1138077   2.9477584
  42.7819901  59.8443794  63.5904617  41.9505310  60.1613579  63.2377129
  42.6008835  58.9431953  63.8574753  60.1966476  14.9008446  86.2110825
  60.5579720  14.1153183  85.8004456  60.5171318  14.8689079  87.1124725
  44.3312874  13.7094011  82.8817215  45.0258598  13.7419014  82.2238922
  44.3617554  12.8137913  83.2181549  75.2938614  46.9240799  41.4146118
  75.5583267  46.0178986  41.5731239  76.1082764  47.3762321  41.1943436
  47.0719490  54.0399857  73.7042999  46.2246628  54.3414612  73.3765030
  46.9809036  53.0890236  73.7644348  59.9155655  13.6144600   2.5540483
  59.3007431  14.0872269   1.9930493  60.6592712  13.4199209   1.9837124
  47.3066330  24.7186337  82.4037628  47.1727562  24.1617432  83.1706924
  47.7124939  25.5124645  82.7520981  43.2895737  38.3170624  40.8984070
  42.4875908  38.7804146  41.1399918  43.7946472  38.2731476  41.7103195
  29.1177349  45.7425728  81.6091690  29.1989670  46.3330765  80.8602142
  29.6101303  44.9625130  81.3536606   7.5952253  54.9733467  41.9457779
   6.9790068  54.5831337  41.3259087   7.2419333  54.7506027  42.8070602
  68.5078278  35.5555229  12.5797405  67.9884262  35.2913284  13.3391209
  68.9606171  36.3495827  12.8637896  20.4265289  52.1412239  33.4239388
  20.1712227  53.0348396  33.6530724  21.1226158  52.2497025  32.7759209
  16.4768047  42.9545517   0.9493685  16.1005192  42.5831261   0.1514426
  16.3676395  42.2682533   1.6076317   9.8489456  55.0022202  44.3466721
   9.0064363  54.7014427  44.0061684   9.7674017  55.9553680  44.3797913
  79.4867783   3.7548723  26.8140984  78.8044968   3.2701938  27.2786560
  80.3073349   3.4140661  27.1701469  70.7539062  39.4479866  38.8435211
  70.0783844  39.1831779  38.2192039  71.5653229  39.4408417  38.3358002
   5.7354689  54.1862679  12.7387848   5.8054180  54.6899796  13.5497179
   5.7247653  54.8471832  12.0464659  50.6817513  58.9818039  62.2821655
  50.7659187  58.8754654  63.2297096  49.8420334  58.5747223  62.0691185
  12.1675091  42.7200851  63.6639977  12.3957052  42.0346489  64.2919617
  13.0041685  43.1271400  63.4391861  54.9312363  19.4760017  10.4675789
  54.2155876  19.9565411  10.8837032  55.0286484  19.8875732   9.6088867
  48.5294228  13.6908531  66.7693558  48.1584587  13.1618090  67.4755707
  47.8208275  14.2821894  66.5154953  46.7539444  55.6109085  25.7520409
  46.6974907  55.3209915  24.8415508  47.5427055  55.1867867  26.0899849
  40.6068611  50.5857887  84.1913757  40.0311394  49.9664040  84.6398621
  41.2799454  50.7984238  84.8378906   0.1028070  42.1787949  61.4066238
  -0.0681194  42.7583694  60.6642532   0.0284266  42.7451286  62.1747131
  74.3537521  10.6995878  45.1239052  75.0913925  11.2881050  45.2844276
  73.5794678  11.2268505  45.3206406  13.0539989  58.8871078  26.9874477
  12.8542223  59.6780319  27.4882088  13.1230106  58.1969910  27.6471519
  16.4387646  62.4137077  14.9086523  15.8436537  61.6658401  14.8560047
  15.9030781  63.1212845  15.2672672  33.8878136  63.6885300  78.8367157
  33.1095314  63.9527130  79.3273468  34.5788765  64.2709656  79.1520386
  46.7183762  55.1864433  16.1929150  46.9825401  54.2845993  16.0109158
  47.5068207  55.7043610  16.0305862  11.3426914   2.2864776  69.1405716
  12.2191896   2.0763838  69.4628220  10.8111105   2.3736057  69.9318161
  43.0464058  60.5648155  31.1215611  43.0214005  60.7781944  30.1887836
  42.7567139  59.6536217  31.1666679  54.6616669   7.7355175  39.3507309
  54.1230049   8.5207014  39.2529297  54.0321426   7.0149307  39.3769646
  29.2334328  44.2954865  23.6311169  28.6215668  44.2768059  24.3669853
  29.0039787  43.5265617  23.1092587  69.3344193  26.2896194  69.3595047
  69.6414490  26.8058014  70.1048355  70.0405731  26.3538933  68.7165070
  48.9737778  62.2799225  53.2313423  49.3438797  62.1431847  54.1034431
  49.6743927  62.7065430  52.7380219  66.1324539  13.4640083  43.7013359
  66.1122055  12.5923824  43.3062553  66.9511108  13.8495016  43.3891869
  69.7899628   4.5304236  26.7751503  70.2276382   4.1057410  26.0373726
  69.6916122   5.4426684  26.5024433   3.2867587  39.0417061  65.6365585
   3.6956055  38.3319778  65.1412201   2.3628757  38.7966843  65.6879044
   7.5021577   3.5106065  70.2220154   8.0449963   3.5019691  69.4336777
   7.5963125   4.3981333  70.5679398  56.1475029  56.1863022  50.4949455
  56.5161858  55.5375862  51.0945053  55.2552109  56.3257446  50.8121338
  63.7553902  64.8239594  71.8597870  63.7286720  64.6251373  72.7957306
  64.5405579  65.3605881  71.7512512  67.2672577  60.0575333  25.5628681
  67.7924194  59.8979912  24.7786579  66.4258957  60.3683052  25.2285557
   3.1318922  67.0162277  62.3276405   2.9146366  66.3162155  62.9432831
   4.0551453  66.8737106  62.1190109  72.4266205  23.5134907   5.2260733
  72.8226242  23.5499954   4.3553953  71.6257782  23.0036640   5.1037683
  52.8586693  17.6538448  29.3719673  52.4325218  16.8112698  29.5291309
  52.2634659  18.2983780  29.7547722  86.5385361  62.4068642  37.2684212
  87.1366043  63.1487389  37.1780472  86.1100922  62.3392830  36.4151344
  40.2510948   8.2503033   1.1971706  39.4463463   8.3599911   0.6906342
  40.0855560   7.4843988   1.7469164  75.6685333  46.4146729  48.0133209
  76.4565811  46.3744507  47.4714699  75.1937637  47.1800003  47.6891327
  77.9176178  34.7438431  54.6319046  78.7769089  34.6048241  54.2337570
  77.8034515  35.6942062  54.6294975  56.9368286   8.5239086  43.7316284
  56.2773323   8.7948799  43.0929794  56.8663063   7.5696898  43.7585640
  65.4561844   0.4967386   5.2813230  66.0880661   0.5491946   5.9984035
  64.8750610  -0.2233178   5.5263624   8.4426699  39.1459999  84.4351807
   8.2656546  39.1258888  83.4947052   9.1148138  38.4773102  84.5667419
  62.1491776  23.9334755   5.8562751  62.5717049  24.6778965   5.4278584
  62.8747101  23.4054585   6.1894841  42.3436394  65.0549850  71.8208771
  41.8432922  65.1283722  72.6335907  43.2394714  64.8757095  72.1064911
  65.9942169  36.9787941  85.7252884  65.3983765  37.0475197  84.9793167
  66.8555298  37.1880875  85.3639297  40.2601814  50.2105980  68.1858368
  41.1672173  49.9214325  68.2853165  39.9590416  50.3667641  69.0809097
  79.6948853  31.3439713  76.6448441  79.3657074  31.5472908  75.7693176
  78.9070816  31.2105598  77.1719131  15.3959036  57.1165771  60.4659424
  14.6846333  56.4893570  60.5960121  16.1860371  56.6381454  60.7169914
  46.7137871  60.4325676  20.0663624  47.4914398  60.9877014  20.0087662
  47.0293503  59.6181755  20.4580460  39.5595131   1.6986856  10.7780037
  38.9164505   1.1444864  11.2202311  40.0745506   1.0911226  10.2471209
  51.5386543  42.8398933   2.6904979  51.6052513  43.3735847   3.4823129
  52.3661652  42.3601265   2.6547270  83.1718826  22.1913719  31.4022903
  82.8928375  23.0814724  31.1876068  82.5303955  21.6282349  30.9691601
  80.0129242   3.9702573  57.5566139  80.8157425   3.7771459  57.0724373
  80.1217117   4.8749843  57.8496437  57.9868279  43.5610886   6.2367721
  58.2840347  42.7022514   5.9362755  58.7689857  44.1116333   6.1998100
  36.4858284  24.5723896   8.9913931  35.9106903  25.0019569   8.3582096
  35.8893013  24.1283035   9.5940332  39.6653900  50.0370789  65.5566940
  39.8766632  49.9522324  66.4864197  40.4738960  50.3557663  65.1554642
  22.1656876   4.2740722  26.5046444  22.5834694   3.4546001  26.7695122
  21.3342438   4.0039525  26.1148109  57.8703346  41.3775253  44.2409210
  58.2925186  41.6766357  43.4356079  57.7896500  40.4300423  44.1313934
  76.6749191  59.1527557  62.5223846  76.8276138  59.2650528  61.5841370
  76.2463074  59.9643517  62.7941170  48.3685570  67.6675491  32.3838310
  47.4557381  67.4400635  32.5605812  48.3485680  68.0873795  31.5238457
  68.9499817  47.1367645  65.2498093  69.3423157  47.9937172  65.4169464
  68.0234375  47.2523308  65.4605255   1.7834494  70.3348312  72.8110809
   2.2688458  70.3062744  73.6355896   1.1019350  69.6701965  72.9112244
  73.1793900  55.6667366  76.2358398  73.3154602  54.8100891  76.6406479
  72.2309952  55.7943153  76.2582779  37.1664963  70.7663803   8.1462746
  37.6487732  70.3330994   7.4420657  36.5128708  71.3008652   7.6953473
  17.7272453  42.0188560  69.9268951  17.2783985  42.2282753  70.7459869
  18.1031418  42.8511620  69.6401825  66.1362839  64.1502991  11.6966934
  66.9601517  64.0318832  12.1693954  66.1905060  63.5372162  10.9636030
  18.6330109   0.9737544  77.5991669  18.7974281   1.1749400  76.6779099
  19.1189251   0.1645054  77.7580185  47.0905037  63.7468414  10.0255766
  46.6460419  64.5152740  10.3836174  47.6354446  64.0929794   9.3188505
  41.2359962  68.5660934  73.3443680  41.8812141  68.6027222  72.6382599
  41.6120033  69.1047363  74.0405731  75.0385742  48.3342667   8.9346485
  74.4198303  49.0591240   8.8453598  75.0486679  48.1421051   9.8723078
  51.6531525  59.8873024  86.4878845  51.2202797  60.7313004  86.3593597
  50.9349289  59.2605095  86.5746078  33.1915092  62.8180351  49.0389366
  33.6631508  62.0316582  49.3135300  33.1221924  63.3457947  49.8344841
  45.8630066  14.8978624   8.3169394  46.6627884  15.4211693   8.2646255
  46.0787621  14.1908112   8.9250183   7.8807139   0.4336952  88.6291580
   8.5732822   0.8038918  88.0818558   8.1298742  -0.4834733  88.7429657
  71.7868958  42.6913033  40.6272583  70.9562836  43.1631012  40.6882744
  71.5402298  41.7669830  40.6592102  54.6518097  68.1098557  17.6142406
  55.5450287  68.0709534  17.9561100  54.7597733  68.1250000  16.6632690
   5.3405485  33.7291374  17.4398899   6.1353412  33.4714928  16.9728203
   4.6252298  33.4257393  16.8808708  62.4873695  44.8187065  62.7692604
  62.4932518  43.9588509  63.1897888  62.9035950  44.6727066  61.9197464
  84.7153702   9.1045971  72.5858459  84.3529205   9.9863710  72.6715164
  85.6619110   9.2384071  72.5370483  69.4549942  68.0471573  85.6601410
  69.3778687  68.6228256  86.4209900  68.7200623  67.4396439  85.7439728
  53.2235298   3.7796049  50.9414368  52.7892380   4.5374556  50.5499229
  52.6248245   3.0504682  50.7797508  69.9476929  52.9075737  41.5445442
  69.0931396  52.6883621  41.1731720  69.9351349  53.8610497  41.6279564
  75.5686035  20.8031540  18.3048763  76.2811050  21.3897705  18.0509834
  74.9038849  20.9264069  17.6272411   7.5832090  19.3532429  87.3999710
   7.6803284  18.4140663  87.2426529   7.6198335  19.7471390  86.5283432
  39.4405327   1.5165861  62.4788017  39.1398621   1.4357295  63.3839455
  40.1402969   2.1686327  62.5162086  38.3896713   7.3868217  25.1612587
  38.9429321   7.7002840  25.8767128  37.7906456   6.7660398  25.5760288
  83.3751221  42.1075096  40.4685326  83.5158310  41.2430000  40.8546066
  83.4080200  42.7099228  41.2116661  14.0819759  48.2044640  27.2897396
  14.4137802  47.5668983  26.6575603  14.1879997  49.0505142  26.8547802
  47.3929482   1.5128340  11.1338062  46.6608467   1.0288122  11.5158825
  47.5416718   1.0928087  10.2866392  32.3907471  44.7308769  79.7690735
  33.2379341  44.5913620  79.3459396  31.8208847  44.0613136  79.3906860
  35.3066216  33.5718193  31.1007423  35.4654427  34.2329750  30.4270363
  34.3529854  33.5174065  31.1628284  56.2113533  11.7976151  63.3342628
  55.5292397  11.6979303  62.6701736  56.1711311  10.9874344  63.8424187
   1.4418886  51.9545250  46.8428421   1.8106261  51.1642647  46.4481926
   0.9828821  51.6412544  47.6222038  73.5624008  14.0464983   2.0896449
  74.1435242  14.8070974   2.0861049  73.5331497  13.7631721   1.1758054
  53.5182076  37.9356041  49.1046829  53.2676582  38.4141808  48.3144798
  53.5488625  37.0191574  48.8300591  12.8631554  41.0564156  45.5663986
  13.5052385  41.7613831  45.6499672  13.1545582  40.5561638  44.8041229
  53.8296547  33.4293365  45.5918655  53.2186241  32.8173370  45.1815872
  54.4448357  33.6570625  44.8947792  52.1420212  12.0087423  57.1857681
  53.0246582  11.7783689  56.8957481  51.8718567  12.7120762  56.5953712
  34.2990303  17.5923023  73.3033218  34.5426521  18.2068901  73.9955368
  34.8675117  16.8352013  73.4442444  59.4205132  32.4307289  63.2465439
  59.9771423  32.4436607  64.0251541  58.5738106  32.7563515  63.5519943
  36.7022133  25.8465977  82.8539124  36.7268448  24.9362621  82.5590973
  37.6065521  26.0439415  83.0977554  28.1403332  67.4069824  74.4948120
  27.4680061  67.3905869  75.1759491  28.9672642  67.4452515  74.9753876
  28.0178814   0.9291549   7.8915215  28.1644211   1.8514723   8.1014948
  28.8857327   0.5939680   7.6663189  75.4403763   7.8614106  69.4780273
  74.8164062   8.5022821  69.1371765  76.1441345   7.8439202  68.8294449
  86.6125259  57.9255142  38.5386124  85.7920990  58.3016090  38.8574867
  87.2484055  58.6366882  38.6168900  29.2412224  46.9424438  53.9198799
  28.5495644  46.7037621  54.5370293  29.6183586  46.1058884  53.6475334
  41.2892265  16.8992348  66.5081329  40.8893204  17.6208324  66.9935226
  41.3201752  17.2078133  65.6025620  65.0565720  33.1775475  10.4513845
  64.5793304  33.9108238  10.8396883  64.3736801  32.5641670  10.1799850
   4.7957616  53.1206131  41.4980850   5.1515470  52.3707771  41.0212288
   4.2987523  53.6082458  40.8412552   9.7103596  55.2714043  80.6170502
  10.2756529  54.5602264  80.9185486  10.1379652  55.5980568  79.8254166
  20.1391354  49.0402374  72.9194489  20.5172424  49.6437645  73.5589981
  19.2872047  48.8047523  73.2868652  46.8741035  54.0411263  67.2887192
  47.3372993  53.3280334  66.8491898  45.9472923  53.8299026  67.1762924
  54.1128464  11.8283367  34.8691025  53.8078766  10.9840307  34.5368805
  54.7932549  11.6042862  35.5039902   7.4850101  41.0055275   8.9294443
   7.2808986  40.3161087   9.5613270   6.7314706  41.0203323   8.3393679
  68.9417343  61.9932480  12.6726189  68.6836090  62.7826691  13.1484499
  68.2700195  61.3487968  12.8955832  69.6128464  48.1414833  14.7156887
  70.2665482  48.4911118  14.1101608  69.9146042  48.4193840  15.5805273
  53.6522865  60.7070351  15.0364285  53.2229156  59.8851280  14.7990570
  53.0225868  61.3853989  14.7924337  50.8344955  63.3125954  50.8194656
  50.4589462  63.1926651  49.9472198  50.5435295  64.1841431  51.0877457
  38.5883293  37.4631386  60.5684471  38.5980453  38.3325462  60.1681175
  38.9213600  36.8811722  59.8853378  38.8144035  65.5158463  11.6402025
  38.2375526  66.0688248  12.1671658  39.3033829  65.0002213  12.2814960
  29.4728909  43.3962555  29.9218197  29.1889210  44.2641144  30.2088928
  29.2945156  42.8262863  30.6698494   1.3003656  18.9051762  75.5224609
   1.4177322  18.7864437  76.4649887   1.0532160  18.0381870  75.2007751
  20.3330383   1.0854051  83.6186981  19.7078228   1.6394336  83.1513748
  20.1643982   0.2028804  83.2886353  20.1921577  32.0478210  12.1589451
  20.1815395  32.5391960  12.9803286  20.9819927  32.3490143  11.7098598
  46.0756073  41.3811989  66.4910126  45.9866295  41.8385963  65.6548843
  45.2908707  40.8363495  66.5506592   4.3837957  48.6669273  84.9109344
   3.6426976  48.9695969  85.4357147   5.0218244  48.3571739  85.5537415
  23.0727482  52.1121216   2.7233853  23.6967182  52.7292747   3.1055059
  23.1182518  52.2776909   1.7817118  18.7843361  58.4034729  36.4541473
  19.6541348  58.2802696  36.8342857  18.7480087  57.7771835  35.7311859
  84.1983337  15.0841885  78.1189041  83.7577057  14.3724203  78.5830841
  85.0797272  15.1037798  78.4917145  62.2789307  41.0586548   8.1995716
  62.3381805  41.4664688   7.3356199  61.3928032  41.2610016   8.4996777
  83.2766800  59.6127434  49.0701752  83.6838913  59.1526833  49.8041763
  83.1542816  60.5077591  49.3867111  44.7955551   1.1881257   5.4047995
  44.1483040   0.4948036   5.2759547  44.5969734   1.8307462   4.7237444
  15.2141294  24.3287430  86.6909561  14.9653234  24.6793594  87.5461731
  14.8494844  23.4437923  86.6796036  24.9700909  18.1555099  13.6939278
  25.4911633  17.3543167  13.6409769  24.5192471  18.0927925  14.5359726
  79.6899872  54.6384048  19.8504124  79.1478729  55.0181923  19.1589584
  79.0803223  54.1192207  20.3748016  73.7462769   1.3070610  82.3494339
  74.1254807   1.2197057  81.4748993  72.8131485   1.1343634  82.2242279
  11.4191227  26.8087311   4.5647759  11.9014912  26.3556213   3.8732235
  11.7308655  26.4080563   5.3762612   1.9778233  55.1643906  87.0687943
   1.6413964  55.5908813  86.2806625   2.9248996  55.2968216  87.0270691
  41.4037247  51.0106812  39.0298042  40.6496544  50.7453575  38.5032921
  41.6996460  51.8282204  38.6294403  80.3745499  42.5287590  38.8248825
  81.1733322  42.5237503  38.2974892  79.7176285  42.9367256  38.2607460
  53.6138840  47.0326385  85.7521896  53.1627274  46.2247353  85.5072784
  54.0801277  46.8116417  86.5584183  46.8335381  29.6612759  43.0559769
  46.8971405  30.5893135  43.2816544  46.1610756  29.3173389  43.6439705
  37.8959846  55.2978401  66.8818817  37.9172783  55.0620232  67.8093338
  38.2461967  54.5293846  66.4312592  -0.1040185  55.7245483  41.5192757
   0.8377391  55.8537369  41.6316795  -0.1778861  55.1540871  40.7541962
  44.5115929   9.7656574   5.0274324  45.0574341  10.2831545   4.4354124
  44.6940613  10.1239338   5.8960953   7.3564081  31.0809765  69.4884567
   7.7987199  31.4308491  68.7150345   8.0536423  30.6649418  69.9954224
  26.9571495  58.0132179  29.9306774  27.6047211  57.3654976  30.2087860
  27.4637337  58.8130074  29.7894669  55.9848022  26.5228996  71.5442505
  56.6592941  27.2006874  71.5877914  55.6637268  26.4464340  72.4427414
  57.3238106  14.4092169  63.3829651  58.2650032  14.4195004  63.5569916
  57.0637589  13.4991617  63.5258064  47.0018768  22.9790268  80.4440613
  47.1756973  23.6261940  81.1275787  46.4408760  23.4367294  79.8179474
  46.8172417  29.9891701  23.4541149  46.5523605  30.8849163  23.6631813
  45.9934807  29.5226154  23.3127899  33.5048981  18.3835278   9.3699074
  32.7577171  17.7869663   9.4153738  33.1306076  19.2491188   9.5338926
  69.2344131  32.9901962  73.9551315  69.3585205  32.6674805  74.8477020
  69.3155441  32.2109146  73.4052429  73.7907333  38.6166267  79.1217728
  73.6879730  38.3801689  80.0436020  72.8968430  38.7564011  78.8092804
  17.8281498  63.0382500  46.9407806  18.3278236  62.3903694  46.4439850
  17.9653492  62.7957306  47.8565292  40.8759880  55.7140007   8.9545097
  41.6302795  55.1787987   9.2011528  40.7130508  56.2653961   9.7197847
  16.0922470  59.1952934  29.6318398  16.2549591  58.7979088  28.7763634
  16.8398380  59.7763824  29.7720985  63.3814354  46.2108231  42.9148331
  64.1623611  46.7423706  43.0692482  62.6538353  46.7684402  43.1903191
  13.7082386  17.7428398  15.5330210  14.0811281  18.3357582  14.8806162
  13.7024298  16.8873672  15.1036396  30.1193199  22.0735455  67.5774307
  30.0568905  22.5148258  68.4245453  30.0043755  22.7728691  66.9340286
  21.9504070  11.2855806  70.7512436  21.9519539  11.4671831  71.6910553
  21.0261002  11.3114891  70.5038147  66.3667297  38.5563698  13.8294296
  66.4840622  38.2198601  14.7178144  65.4380341  38.7828369  13.7798033
  39.6431923  46.3014526  24.2439556  40.3443832  46.0139809  23.6592178
  39.2178650  45.4910927  24.5243931  72.1039886  16.6164265  49.5790939
  71.6188202  17.1108799  48.9185181  72.9844742  16.5289059  49.2139626
  47.7755623   2.8278408  64.5614471  48.3549347   2.2619145  64.0512619
  46.9397583   2.3616202  64.5788269  71.1587524  39.7589760  72.2799835
  70.3676147  39.7979012  71.7425613  71.0568619  38.9610367  72.7987747
  50.3500328  48.4802589  32.2141762  50.6869850  47.6081161  32.4192619
  49.4119530  48.4234238  32.3958473  61.4205055  57.7427559  21.6653557
  62.0655174  57.1311493  21.3102169  61.8662758  58.1595116  22.4028072
  23.2107372  50.3851891  48.3877106  23.1079521  50.3677864  49.3392181
  24.1328869  50.6019936  48.2503471  57.8574982   5.1151886  50.8667259
  57.0004921   5.3010874  50.4830399  58.4807777   5.5421052  50.2789345
  54.4301109  58.8931160  49.0821228  55.3560486  58.8409843  48.8451576
  54.2240295  59.8268700  49.0389099  11.9593420   7.5823336  17.5131035
  11.9577894   7.5333323  18.4690475  12.8546562   7.3540654  17.2630291
  41.1956024  33.7164841   0.8967358  40.6839752  33.3567848   0.1721068
  41.3467407  34.6297302   0.6530830  25.4391060  45.6138496   4.4655752
  25.7187405  45.2597275   3.6213987  24.4851532  45.6600723   4.4017663
  51.4904289  46.1525078  26.1062832  50.6758537  46.4822502  26.4857159
  51.8979759  45.6512566  26.8126011  65.7995300  17.8729248  52.2049217
  65.5584717  18.3888779  52.9742813  66.7551346  17.8276463  52.2367096
  86.4311295  27.2916946   4.5386362  85.6388855  27.3618259   5.0712433
  86.1111374  27.2526722   3.6373503  53.3227882  52.8878899  76.2362671
  53.5004463  52.2463112  75.5484848  53.1752472  53.7084656  75.7660446
  63.5714722  41.5787430  57.3321381  64.3416595  41.5144081  57.8968506
  62.9720879  42.1528015  57.8090286  26.5857334  16.3767300   1.5698860
  27.3459072  15.7991056   1.6385632  26.5782604  16.6549072   0.6540295
  54.7734566  21.6000805  39.1024628  54.1002769  21.2152214  39.6636581
  54.2868690  21.9808521  38.3713799   2.0869048  36.7539062  45.6863785
   1.4758182  37.4786263  45.5537529   2.9417255  37.1155357  45.4524193
  34.1030350  67.6557236  11.9718904  33.2119942  67.9534149  12.1553497
  34.1878014  67.7253265  11.0209942  43.0962982  27.5406570  44.9160118
  42.5212364  28.2322617  44.5885696  43.9569550  27.9547749  44.9793434
  24.4097404   8.2665873  86.2751617  25.0655994   8.0571241  86.9401474
  24.0163498   7.4228172  86.0526123  35.0394020  10.9553556  14.6151342
  34.1137810  11.1871243  14.5393486  35.3761444  11.0187912  13.7213726
  86.7249756  52.6439667  38.1640511  85.8609772  52.2929993  37.9482613
  86.5509491  53.5295792  38.4828606  70.9071960  68.5129776  13.7502899
  71.2759628  69.3961563  13.7348766  71.1210022  68.1491241  12.8911448
  39.5672112  36.5633965  80.7290726  39.8233376  35.6553116  80.8903427
  40.0342674  36.8055840  79.9294281   3.9211853  68.7943649  88.8671036
   3.1509788  68.7486801  89.4336090   4.1138258  69.7295532  88.7997360
  74.9694824  69.2231140  69.8845444  75.3750076  69.3838348  69.0325165
  74.0900726  69.5925674  69.8047562  78.1748505  70.7371674  23.6341934
  78.4749374  71.6456375  23.6046448  77.8235168  70.5724030  22.7591801
  42.8339005  47.5741158  10.3015213  43.1630287  47.7561760  11.1817245
  42.7593689  46.6204758  10.2661762  76.8777924  69.2663727   2.9709489
  76.6958771  68.3696213   3.2519722  76.3495789  69.3816376   2.1810496
  22.6050873  42.6628380  52.0616951  23.1046734  41.8595886  51.9152718
  22.7034130  43.1576881  51.2482529  61.5695343  68.2622833  50.3101082
  62.0711174  68.3204498  51.1232872  61.6203728  69.1410141  49.9339676
  25.4718189  45.4997826  57.0643959  24.5410919  45.3176613  57.1940498
  25.6710892  46.1903114  57.6966133  27.1417789  54.6783180  40.7117882
  26.8986664  54.0508804  40.0310173  26.5305996  54.5039444  41.4275284
  78.9652939   4.5326371   5.8774161  78.9862289   3.6328337   5.5516143
  79.1933136   4.4572353   6.8039970   8.4766951  10.0625324  13.2570477
   8.7254581  10.0634222  14.1813574   7.5825810   9.7208567  13.2499790
  19.3177853  53.0007668   5.0315843  20.2001781  53.2980957   5.2534242
  19.4535542  52.1799889   4.5581732  33.2369499  64.0686951  17.2744942
  33.5275726  64.9702911  17.4119053  33.1252747  63.7158661  18.1572609
  42.6096802   3.8441646  35.2780113  41.8507271   4.0593081  34.7358475
  43.1040916   4.6619248  35.3332710  37.4482651  57.0828133  22.0499783
  38.3889275  56.9272194  21.9652538  37.2933693  57.1056290  22.9942856
  49.7821388  31.7111130  39.2901154  49.8638763  32.0106010  38.3846550
  50.5293961  31.1266270  39.4174500   3.8845735  71.5025330   4.7336383
   4.5307584  71.1408386   5.3401494   3.7136078  70.7928009   4.1145411
  50.4327164   7.0602942  86.7183838  50.5188026   7.4495625  87.5886078
  49.4903870   6.9383898  86.6026840  65.5767670  25.5815563  30.9006844
  64.7245026  25.1470451  30.8679314  65.6007767  25.9971294  31.7626324
   3.3031950  53.8588486  48.7932281   3.3946040  52.9072533  48.7448349
   4.0032454  54.1369858  49.3838234   6.5831733  62.3092575  15.7501755
   6.9928946  62.9357681  15.1536455   6.5804844  62.7527504  16.5984325
  79.3399048   0.8500745  79.2101135  79.4743958   0.7370883  78.2691727
  79.6876373   1.7216859  79.3988113  50.4878922   3.2355404  86.2656250
  50.6663094   2.3745315  85.8873901  50.3762093   3.8110628  85.5089645
   4.9057913  46.1460304  64.2216797   4.8637466  47.0861664  64.0467377
   4.2736797  45.7609558  63.6147308  37.2379494  10.6995115   1.0600055
  36.3338547  10.8779736   0.8011699  37.5881271  11.5540400   1.3117726
  83.2597122  56.2266769   8.2910051  82.7057037  56.5859184   8.9840088
  83.9014206  55.6871300   8.7528782  39.7712135  37.8695450  26.3824539
  39.6962547  37.1647072  25.7391663  40.7100868  37.9360123  26.5566120
  50.2710571  44.3222771  39.3913765  51.1596260  44.1885033  39.7211914
  49.8100014  43.5124016  39.6099129   1.4079229  17.8052082  51.5653763
   2.0779266  17.8660774  50.8844795   0.5873402  17.9981003  51.1118698
  61.8311081  70.8482819   8.9254332  60.8964958  70.7011185   9.0706062
  61.8868179  71.1619263   8.0227966  73.6283646  27.2925148  54.6948395
  73.7186508  28.0782852  55.2339554  73.2299805  27.6040993  53.8821678
  51.9834404  27.7992001  57.6927605  51.5302200  28.2850018  57.0036888
  52.7677345  28.3169289  57.8746223  79.2406845  23.4772835  70.5876923
  79.5577774  23.6948814  69.7111435  79.4110641  24.2637043  71.1061020
  64.6444626  14.3641739  68.2665405  64.3562622  14.1699333  67.3746643
  64.6115265  13.5207319  68.7179260   9.0717716   5.3369088  33.2433968
   9.4964170   5.7019348  34.0197105   9.2452641   5.9763098  32.5525284
  73.1306686  46.8354683  39.6900558  73.0501022  47.7788925  39.5497246
  73.6389465  46.7559319  40.4972458  29.0198669   2.7561619  77.5579453
  28.1587486   2.8240402  77.1455078  28.9040203   3.1534173  78.4210739
  57.9171066  27.4710903  22.6108150  58.0479012  28.4193077  22.6132088
  58.1114998  27.2047634  21.7121964  72.6283493  20.8108368   8.5757532
  73.0622482  20.7928562   9.4287701  73.1116867  21.4679871   8.0749826
  10.3039684  58.6650810  46.4483261   9.5407057  58.7000923  47.0248985
  11.0480623  58.8374290  47.0252609  54.7181969  18.9501476  40.8116455
  54.1866875  18.6972370  40.0568161  55.6211319  18.8099270  40.5265541
  73.0482101  66.2623062  34.5562363  72.4435349  67.0007095  34.4829941
  73.1787949  65.9693069  33.6543846  79.8629761  28.6890011   8.8191767
  80.6513977  28.1549358   8.9161119  80.0742111  29.3023605   8.1153278
   6.9643769  29.5154476  75.3667145   6.9549079  28.8222771  76.0267563
   6.3326325  30.1594715  75.6866531  61.1338425  37.0751762  22.5186138
  60.2154160  37.1688347  22.2657299  61.1131210  37.0000725  23.4726372
   0.8164970  38.8793640  44.9068642   0.2311367  39.5534706  45.2520638
   0.6865190  38.9117470  43.9590797  80.4878616   4.6448231  73.7279587
  80.2202148   4.3868361  72.8458862  80.9966125   3.9011562  74.0510025
  64.1298752  27.3183937  83.5309830  65.0393906  27.0873890  83.3421707
  64.1297989  28.2745819  83.5749588  31.9719315  17.4709148  75.2723999
  32.1559563  18.2271214  75.8296432  32.7060127  17.4412403  74.6588211
   2.6558301  44.9008141  18.9986877   3.5834713  45.0304070  18.8014069
   2.5123301  45.3911476  19.8081379  59.7326088  17.1539516  53.1215706
  58.8819351  17.2133389  53.5563812  59.5833206  17.5243378  52.2516518
  60.7502403  56.2208481  74.0266647  60.1756096  55.9039421  74.7235184
  61.4727249  56.6474037  74.4874268  43.1306419   4.0568318  60.7705727
  42.6358185   3.2563145  60.5957794  43.6006889   3.8749871  61.5843430
  57.1081238   4.9267569  67.7211838  57.3679657   5.7297645  68.1727295
  56.1753960   4.8339758  67.9151917  61.7725449  21.4451637  49.5614967
  61.9793968  20.8178864  50.2542915  60.8178444  21.5126057  49.5766907
  46.3233795  38.4704933  23.1508999  47.0100708  39.1372681  23.1411495
  45.9944763  38.4522438  22.2521667  12.5206032  34.2131157  27.5716324
  12.9751663  34.8053970  26.9726295  11.7477236  34.7031059  27.8523464
  73.4039764  28.3690662  12.2677765  73.1303482  27.4915028  12.5346823
  72.6594315  28.9291954  12.4871769  43.5908775  41.1244469  37.8774033
  43.4029541  40.2446365  38.2042809  43.3718033  41.0859261  36.9464073
  80.3366699  15.5961313  68.3382874  81.0824814  15.6838131  67.7447357
  79.5882263  15.4431877  67.7615128  68.4447861  16.5686989  67.6193542
  68.4044876  15.7921972  68.1776123  69.3483353  16.8744144  67.6991425
  20.4689827  49.2901039  70.0265884  19.5999756  49.2950478  69.6252975
  20.3125172  49.0268707  70.9334793  42.9283142  47.9862442  41.9390602
  43.2047348  48.6094093  41.2671280  43.5781975  47.2847366  41.8970146
   3.9216108  10.0923929  64.0936661   3.7814558  10.8150682  63.4818420
   4.0682650   9.3298073  63.5340347  70.7128220  30.3381214  47.0033188
  70.8007965  30.5364380  47.9356079  70.9242096  31.1610126  46.5624161
  31.9178925   3.8575561  65.6580124  31.3702564   3.1555195  66.0093994
  32.4827194   4.1092291  66.3886719  83.7116165   7.7480240  70.3864517
  83.4937973   6.9479918  70.8647156  84.1268463   8.3117361  71.0391693
  62.8054199  66.1951981  48.9344597  63.2857056  66.6545181  48.2455559
  62.3199730  66.8841858  49.3881798  64.5304947  25.3302727  85.4523621
  64.1311646  26.0459099  85.9469604  64.3040161  25.5136814  84.5406036
  81.2441406  62.4071236  85.5997009  82.0324631  62.2966309  86.1312790
  80.9759827  61.5147591  85.3806000  73.4897156  18.8881359  35.3762245
  72.9230499  18.2631950  34.9239273  74.3529739  18.7557678  34.9844513
  67.2665634   9.5237589  77.7243958  66.9239120   9.2262449  78.5671997
  67.5238037  10.4328804  77.8778839  65.8071136  56.0226746  88.6951141
  65.3462601  56.5732689  88.0621109  66.0086441  55.2206917  88.2129898
  63.9197540  34.5663757  64.1564789  63.4301529  34.1094742  63.4725456
  64.2030106  35.3822975  63.7438393  66.9031372  10.0582800   6.9985452
  66.3169403   9.3095903   6.8886790  67.5877228   9.9246874   6.3430114
  79.5560532  47.0400810  70.4216843  79.5262833  47.9960175  70.3825684
  79.4603043  46.7600212  69.5113907   9.7983284  20.8725376  71.5356598
  10.0105972  20.2863922  70.8092957   9.3774252  20.3078957  72.1839294
  24.9550171  65.9721985  66.3078156  25.2467003  65.1605606  65.8925934
  24.6026917  66.4961090  65.5883560  50.5896645  32.9369469  44.5804482
  50.3862190  33.6025658  45.2375565  51.4287148  33.2130356  44.2116661
  77.0714645  11.3031244  54.3555984  76.5005646  11.6399622  55.0461426
  77.8069763  11.9152832  54.3330727  70.7953491   1.5569123  47.1053581
  70.9238815   0.7976676  46.5368004  70.8637390   2.3099611  46.5184441
   3.0099189  46.1196709  32.1489372   2.0640795  46.2053719  32.0294609
   3.2141035  46.7096329  32.8745346  53.6419868  65.4066391  65.5508194
  54.2245407  64.7856674  65.1134872  53.4682350  66.0777130  64.8907394
  63.4714470  10.1668730  85.3890686  63.3248940  11.0973396  85.2188110
  63.6882553  10.1250486  86.3204498  33.0502739  12.9839621  17.9091625
  33.1704369  12.0493040  17.7412148  33.1226349  13.0677090  18.8599434
  72.2453918  67.5373154   4.0375843  72.4883499  68.4541702   4.1663952
  72.1737213  67.1818008   4.9234200  62.8308296  59.8207283  16.0044727
  62.9416580  59.6005363  16.9293861  62.2782211  59.1210213  15.6562395
  29.0200233   4.2041392  79.7179413  28.8411770   5.0221181  79.2540970
  29.6776524   4.4389105  80.3726501  42.7446213  65.7295380  22.2406425
  42.4150352  66.5233459  21.8193684  43.4196129  65.4047318  21.6447277
  48.7546997  31.1826973  53.0246620  48.2464333  30.6314697  52.4296455
  48.5998268  30.8062572  53.8909988  66.0361099   5.6645350  81.3124390
  65.7485046   4.7519970  81.3405609  66.9670029   5.6291637  81.5324707
  31.5751400   8.9092255  85.4320526  32.4860001   8.9968214  85.7129288
  31.3574562   9.7620268  85.0557861  71.5041199  24.0906448  50.5056190
  71.1036453  24.0983219  51.3749847  71.3741531  23.1963921  50.1899376
  32.3196106  56.9570351  58.1625175  31.6254654  57.6033516  58.0333900
  32.8204117  56.9772491  57.3470306   7.8530202   9.5784874  83.8923492
   8.5414772  10.2377024  83.9800720   7.7856770   9.4264774  82.9496994
  67.0699768  41.2277184   2.8170331  67.2232132  41.6565399   1.9750936
  67.9459915  41.0785637   3.1728115  57.9519043  48.9366074   8.0536070
  58.7286835  48.3790588   8.0981913  57.4927177  48.6450768   7.2659578
  71.0603867  55.8450432  73.4772415  71.2571259  56.3792877  72.7077560
  70.5430222  56.4194527  74.0417023   2.0707128   0.7958542  81.0897903
   1.2657924   0.3732583  81.3893661   2.2291279   1.4900881  81.7294540
  73.2034149   6.3961740  83.1523438  73.8924103   6.2571077  82.5025940
  72.8441544   5.5232625  83.3110580  57.3009033  11.2251463  30.9058456
  57.3559151  10.2776470  31.0301456  57.0053482  11.3313293  30.0016327
  10.8708448  38.7990952  44.4524765  11.6237288  38.9085236  43.8715935
  10.6994019  39.6780472  44.7905312  49.3680305  58.6030769  29.0790863
  48.6450272  58.3526726  28.5039368  49.0270729  59.3404808  29.5852604
  14.8544893  46.9077950  23.4008102  15.4702015  46.3348923  22.9437408
  14.9167204  46.6427269  24.3184700  52.0261803  25.0700760  57.4647446
  52.8509178  24.8285713  57.0431862  52.0093727  26.0264168  57.4278259
   5.4658136  56.9659042  53.4386406   5.6266952  57.5740814  54.1600761
   4.5362015  56.7494164  53.5106621   9.0875664  32.6242790  -0.2683246
   8.4352131  32.1071815   0.2041967   9.2371120  33.3881111   0.2888387
  85.2659988  57.1430893  81.5191345  85.8495178  56.3927269  81.6318130
  85.8365173  57.8453903  81.2068558   2.2615466  60.4290581  35.0991058
   2.5122304  59.7806435  34.4411201   1.3045384  60.4100723  35.1016388
  85.4145889  14.0361977  48.9375191  85.3545151  14.2019701  47.9966965
  85.8972397  14.7872744  49.2827225  30.4825077  22.8649330   2.1408434
  30.5426292  22.0093231   1.7159342  31.3901596  23.1024590   2.3305328
  53.4432983  52.6394730  17.2567997  53.4834709  53.5636711  17.5027161
  53.9920235  52.1955185  17.9033546  52.4636459  52.4930801  32.1873970
  52.4766808  51.8231850  31.5038033  51.9806213  53.2224197  31.7988377
  70.9267273  39.7054100  77.5064163  70.3021393  39.2405281  78.0632095
  71.2946320  39.0266190  76.9406281  67.6400833  37.4287491  73.7971954
  68.1307602  36.8831139  73.1825790  68.0871277  37.3073883  74.6348495
  64.5433960  25.2003860   1.8485237  64.6000519  24.2743416   2.0840266
  65.4321594  25.4342651   1.5808798  18.0148754  67.9291763  17.3642101
  18.3976479  67.1274109  17.7204266  17.1136303  67.6891708  17.1488400
  46.6635170  48.0250320  25.3923969  46.7956123  48.6461220  26.1086578
  46.3809090  48.5662003  24.6551723  77.8179779  34.1372147  86.6223450
  77.7969742  34.7427254  85.8813019  78.7158585  34.1904678  86.9497757
  53.4189034  61.6256599  80.5436249  53.7342491  61.8368492  81.4223709
  53.1775932  60.7006226  80.5916443   7.8274050  28.0407410  87.3518372
   7.9212346  27.1564884  87.7061310   7.2880640  28.5005569  87.9952011
  15.1012011  31.1329403  62.6746178  15.9190321  30.7824745  63.0275459
  15.1140327  30.8858719  61.7499428  49.5788078   4.7147136  35.9372177
  49.8355179   4.3872933  36.7992630  48.6379051   4.8739367  36.0119362
  85.9461136  71.3554611  23.2786179  85.9079971  70.6387177  23.9119129
  85.7928619  72.1437454  23.7995338   9.2787380  69.2892151  19.7595139
   9.6628771  69.3068771  20.6360722   9.4899950  70.1457672  19.3881302
  25.3620014  11.8831568  79.8307724  25.6099834  12.6169777  79.2684174
  24.7395229  12.2584038  80.4536209  14.8639088  60.3760223   6.4885478
  15.7696257  60.0703278   6.4389606  14.7365665  60.5991211   7.4106331
  40.2850380  34.4145432  69.0398636  40.8128738  34.7876549  68.3338852
  40.3615990  35.0457039  69.7554169  40.8774033  68.1961136  21.8589115
  40.5329208  67.4236374  22.3070660  40.7194977  68.9169922  22.4685307
   0.1256866  44.0953140  55.2746048   0.6161139  43.6469078  54.5856628
  -0.5357545  43.4604645  55.5497284  85.5738602  38.0919533  39.7393074
  84.9406128  38.0686073  39.0218964  85.6048584  37.1909065  40.0608368
  65.3032837  29.4962406  81.2879639  64.3919601  29.7828426  81.3477936
  65.3269577  28.6706104  81.7717056  82.5219269  60.3058052  32.9081879
  81.9951859  60.7312202  33.5847969  81.9473190  60.2717819  32.1434059
  25.6530609  39.3101273  53.7912521  25.5941925  38.3552628  53.7596626
  26.5271111  39.4847946  54.1401939  34.0316048  57.9350548  45.6779747
  34.8428726  58.4276543  45.5537796  34.2584000  57.0361061  45.4398918
  69.6288757  17.7853756  80.5630569  70.2532043  17.6421337  81.2743378
  68.9257431  18.2984886  80.9612427  72.1768341  42.0492973  35.4493980
  72.4549332  42.6284485  36.1589584  71.2545547  41.8709755  35.6333160
  62.6177902  10.3280306  23.9234791  61.7873116  10.3439398  23.4477863
  62.5605164   9.5509424  24.4794350  85.4628296  42.4066010  12.3460169
  85.2516479  41.4734383  12.3750477  84.9957962  42.7812119  13.0928593
  26.4549713  25.3932190  18.8018398  26.6060658  26.1838646  19.3197994
  26.6979046  25.6412048  17.9098110  86.6667252  33.0274124  53.7704811
  86.6266708  33.3426590  52.8675728  86.2722092  33.7299767  54.2871971
  59.9771309  -0.0537795   4.4309897  59.1537361   0.2944386   4.7730398
  60.2383232   0.5704601   3.7539845  82.6717987  33.1377411  21.8960342
  82.3256683  32.3673859  21.4455032  81.9116211  33.5209808  22.3336315
  39.2034378  43.5632515   5.2497048  38.3999290  43.0472527   5.1837392
  38.9100609  44.4722939   5.1879897  14.0507603   9.5316420  87.8063202
  13.6343479   8.8342638  88.3127747  14.0252028   9.2189150  86.9020081
  68.0111771  39.2339516  38.0599213  67.1529465  39.4960327  37.7267952
  68.2764740  38.5088348  37.4941826  49.0944061  19.2672806  32.7906990
  48.4321976  19.4009018  32.1125717  49.0228653  20.0401096  33.3509216
  19.4666748  52.6935730  47.7701454  19.5917397  51.8441658  48.1933517
  19.3247185  52.4827805  46.8472977  50.0645332  23.3784714  11.0325241
  50.4483910  23.1702328  11.8843012  50.8147163  23.5907936  10.4772043
  54.1838188  26.6336193  55.0698051  54.3559074  25.7206306  55.3001747
  54.9987335  27.0907612  55.2775764  26.2926502  36.4530182  29.1776676
  26.8973122  35.8024559  29.5345764  26.7245731  37.2927589  29.3342190
   4.6397152  57.7630501  62.4324150   4.9455595  56.8628159  62.5431709
   4.3388519  57.8038177  61.5246429   6.2498798   5.8958492   9.5011520
   6.3281760   5.2371569   8.8110600   5.3556828   6.2266393   9.4161768
  61.6219139  19.6953125  63.6793900  61.4870529  19.0829945  62.9561272
  62.5722656  19.7329483  63.7873039  16.5713882  65.8551865   7.8879519
  16.5448322  66.8112183   7.9270477  16.1155453  65.6359482   7.0753174
  48.5055580  24.9280815  28.8620586  48.8420601  24.0848770  28.5587311
  49.0683060  25.1586437  29.6012383  76.3530426  26.3832531  81.5215530
  76.5108643  27.1070385  80.9153671  75.4720459  26.0776367  81.3054810
  78.5329285  38.1931229  12.1252975  78.6671906  38.0752716  11.1849174
  78.5289764  37.3040619  12.4799528  80.9539032  69.6162643   8.9389830
  80.6661072  70.3597946   9.4686747  80.8209457  69.9006577   8.0347281
  70.9961243  64.9956894  62.7028961  70.8164902  65.9247208  62.5584641
  71.9513550  64.9352188  62.7132225  11.1474886  50.9580498  41.0495262
  10.4325762  51.2150154  40.4672012  11.6808157  51.7480659  41.1370811
  43.6810493  10.9105873  72.0675659  43.1862831  10.7608881  71.2619400
  43.7838821  10.0395231  72.4508514  54.2217674  37.6979332  24.7467842
  54.1575851  38.4688263  25.3105545  55.1528702  37.4759598  24.7496529
  84.5434341   7.5165725  64.1934662  84.3345718   7.2543406  65.0900345
  84.4763718   8.4713879  64.2014008  71.7521133  22.2951565   1.3365272
  71.8473587  21.7641468   0.5458385  71.2679367  23.0689926   1.0484618
   0.7780254  47.5556564  38.9680748   0.8979414  48.4774132  38.7395554
   0.1817352  47.2187309  38.2993813  53.1655922  54.6439590  74.1124039
  52.9294662  55.5249481  74.4028091  53.8634758  54.7818832  73.4719696
  62.1993103   4.4873886  42.7621880  61.5415344   3.8739486  42.4346886
  62.7507057   3.9608786  43.3409615  16.5040874  52.0665092  76.8907089
  17.0213680  52.3666840  76.1433487  16.8906231  52.5126724  77.6442108
  73.7014694  22.6043777  82.3302460  74.2241440  22.3834839  81.5593719
  72.8261719  22.2733192  82.1290436  66.0803986  28.6230888  52.4327774
  65.4625931  27.9868698  52.0725365  66.9426346  28.2734680  52.2079391
  48.1060028   2.5551300  48.4518814  47.7139320   2.0890861  49.1903343
  48.6626320   3.2203133  48.8567581  65.8671799  43.4185410  67.0780334
  65.4665604  44.2867775  67.1216507  65.1477585  42.8134727  67.2584457
  78.1171036   1.8294057  52.6821899  78.0385666   1.5185640  51.7802811
  78.3844376   2.7446210  52.5976791  64.1677780  71.1191101  53.2933197
  64.3666534  72.0546494  53.2553482  63.2863388  71.0465698  52.9272079
  25.6524429  11.3028574  67.8644257  25.0794201  11.1537895  68.6165237
  25.2285252  10.8362637  67.1441345  62.1789665  17.8728638  53.6112137
  61.4649582  17.3633919  53.2279854  61.9394150  17.9649315  54.5333672
  54.0096550  30.4420605  48.8627281  54.2500229  31.3685665  48.8559875
  54.6691551  30.0275669  49.4190445  33.5942574  53.5740471  67.6923828
  33.2583847  53.9627800  66.8847275  32.8493309  53.0949860  68.0554504
  56.5600128  23.9058228  77.3618240  56.0382347  23.6422863  78.1198044
  56.1433792  24.7100372  77.0521698  31.5283794  69.8778076   5.8345995
  30.6570282  69.5394287   5.6284928  32.1291084  69.2105865   5.5026813
  48.1164894  24.6742706  73.8825912  47.3018456  24.8670044  73.4184341
  48.4008141  23.8319645  73.5277481  24.6536961  50.7593346  23.9614925
  24.0899410  51.5037994  23.7512913  25.3718739  51.1383209  24.4682693
   6.2765384  47.7858925  42.6096916   7.0043807  48.2615929  42.2094574
   6.6142640  46.9004135  42.7442360  27.8775806  68.5133438  11.3056927
  28.3956566  67.8152618  10.9050503  27.1785164  68.6850510  10.6747761
  62.2290268  20.5496922  18.6930580  62.4831963  20.9336987  19.5322056
  63.0349388  20.1600571  18.3540535  86.3830566  26.7503605  11.4652119
  87.0646515  26.2778530  11.9431238  86.7197876  26.8175907  10.5717230
  36.3010979  71.3425217  26.4287548  36.9959145  71.2896194  25.7725067
  36.7640800  71.3699341  27.2660885  68.0794907  35.8216553  56.6665115
  68.8285904  36.0431328  57.2197151  67.3779831  35.6158867  57.2843895
  65.9660645  65.8091888  15.3488312  65.8978958  66.7080002  15.6708851
  65.7736664  65.8746796  14.4134569  52.1073303  44.4147911  87.4076538
  52.4587288  44.6542435  86.5500946  51.2133102  44.1240997  87.2274933
  42.2963905  30.1878223  14.6696253  42.3602676  29.2970009  14.3252563
  41.5460510  30.1618462  15.2633810  64.0478821   2.8773181  71.7324677
  63.8360062   3.8106985  71.7205734  63.3870621   2.4745114  71.1691742
  42.1253395  19.3341255  18.3157349  41.8447533  20.2291946  18.1250610
  42.5680542  19.0466690  17.5172348  27.5883293  43.7889061  56.3160019
  26.7933064  44.2935562  56.4877625  27.4157581  43.3454132  55.4854813
  32.4565887  44.8067627  44.6258469  32.7280655  43.8900375  44.5795479
  31.6753502  44.7975693  45.1788483  51.2406120  53.8255157  39.7833519
  51.8941269  53.1422348  39.6340866  50.6452522  53.4499245  40.4319801
  82.9358597  53.8079033  23.9968815  82.6880035  53.9325981  23.0807762
  83.4370193  52.9923897  24.0005474  77.4615250  56.4236450  83.9144669
  76.8526611  55.7503433  83.6108475  77.9689407  55.9946022  84.6034393
  48.2819099  61.0108948  40.5009079  47.7565460  60.6344795  39.7948380
  48.1992264  60.3852921  41.2206459  78.9677048   1.1174732  38.9909744
  78.2427979   1.2251071  39.6067352  79.2211685   2.0113447  38.7607956
  60.6534805  61.9332581  45.1321449  59.7080421  62.0819244  45.1487579
  61.0295296  62.7998543  44.9777756  12.4439220  54.3836136  17.5877647
  11.7166758  54.0021515  18.0795288  13.2088518  54.2468567  18.1467037
  75.3463058   4.0017724  80.0180893  74.8444366   4.0611267  79.2051697
  75.4904404   3.0637188  80.1426392  48.4705353  22.4569550  76.7680893
  49.0878754  22.4442101  76.0366745  48.9879227  22.7632332  77.5128937
  33.9867859  35.0288963  77.6699905  33.3164864  34.3504562  77.7515259
  34.8145752  34.5632820  77.7891541  10.6342049  49.2086601  33.2290154
  11.1984758  49.7290001  32.6571083   9.8537245  49.0357704  32.7025261
  53.6689186  10.9327116  21.0600700  53.5110168  11.8616924  21.2282772
  53.6451263  10.5251207  21.9258270  86.0648804  71.3166122  81.8172684
  85.9575195  70.5478668  82.3773956  86.0383682  70.9689941  80.9258118
  43.2003212  31.5771999  21.1102161  42.6978264  32.1948662  21.6414585
  43.8629494  32.1164246  20.6784840  17.1945801  24.5322380  84.2510300
  16.5256729  24.5959187  84.9327469  18.0228100  24.5038433  84.7300491
  80.4470978  37.5034981  59.3304710  80.6226044  38.3752670  58.9762878
  79.5651398  37.5669937  59.6970139  18.9850235  42.9908981  21.8039627
  19.6326656  42.8360977  21.1163368  19.3473663  43.7140274  22.3158493
   7.3251038  46.9889221  56.5592155   7.7306700  46.6455917  57.3553772
   6.3842864  46.9335327  56.7266273  44.8566971  24.3278618  78.9671326
  43.9376526  24.1180496  79.1331635  45.0705109  24.9978409  79.6164703
  66.7137833  33.7240181  47.5214272  66.8783493  34.3978577  48.1810379
  66.8113632  32.8973503  47.9940071  61.0568314   0.8734352  28.5827942
  61.3239975   0.1048204  28.0787239  60.2888145   1.2083069  28.1199322
  63.0535431  41.6088867  50.1388206  63.1132164  41.3907242  49.2087250
  63.8810120  42.0480766  50.3353844  24.9947491  70.4313278  66.5758591
  25.7689018  70.9006042  66.8868179  24.2622166  71.0087204  66.7909088
  85.2481003   1.1753353  75.3033524  85.5098495   1.8963952  75.8758774
  85.0514450   1.5941225  74.4653854  27.2737179  69.9154663  85.1288376
  27.0939655  70.1609116  84.2212753  28.2283001  69.9334793  85.1972580
   4.4246726  26.6851025  37.8047752   5.2920737  26.5378094  38.1818085
   4.1598663  27.5414944  38.1404877   0.6210609  47.3215332  74.1562042
   0.4204643  47.0719261  73.2541580  -0.2317374  47.5103569  74.5477600
   1.9220126  15.9230852  37.8191452   2.6200633  15.3476992  38.1320190
   1.1192989  15.4179029  37.9482727   2.0011182  46.0262413  82.6486130
   1.1201960  46.1885376  82.9860535   2.2927773  46.8771591  82.3213425
  34.6633835  47.9303703  57.0765343  34.2696495  47.2707558  57.6476021
  34.6871223  48.7251434  57.6094513  55.4742126  63.3775482  30.6066551
  56.0799026  63.5472603  31.3281574  54.6996689  63.8994102  30.8163681
  52.0723419  38.9764633  54.3035889  52.8994598  39.4377403  54.1645393
  51.4370003  39.4593430  53.7750015  82.7634048  28.4896393  25.9867039
  82.0327606  27.9178753  25.7511749  82.7072296  29.2174511  25.3675404
  58.1038437  35.2979584  58.5420151  57.5434761  35.0163918  59.2651634
  57.9373665  34.6603889  57.8477364   9.1413221  37.3369370  55.2646408
   9.7440462  38.0373077  55.0147705   9.0356932  36.8163986  54.4683266
   1.8513626  64.0895767  36.2737923   2.4477475  63.3852158  36.5276299
   2.2184691  64.4322205  35.4588928  53.3573608   1.8873614  84.1030121
  53.4606323   2.7676358  84.4645157  52.5277214   1.5757208  84.4646912
  74.0058441  23.4604549  11.0456800  74.1616211  23.7718887  11.9372931
  73.0768509  23.6316357  10.8910656  81.1220856  33.0761223  55.2241440
  82.0432739  33.1064987  54.9658318  81.1022797  33.4854355  56.0891876
  20.1884174  44.5278893  49.5483818  20.1439018  45.4771576  49.4337425
  21.0830460  44.2980118  49.2973289  50.7942238  65.9191132  60.4971581
  51.6206665  66.3583450  60.6979179  51.0197678  64.9895935  60.4603806
  24.5324421  45.9909058  49.4429512  24.0308475  45.1783218  49.3770332
  23.8746090  46.6838150  49.3849792  84.9074860  51.9595795  10.1685905
  84.8204269  52.8526344  10.5019121  84.0297165  51.7315788   9.8623734
  85.5689774  36.1224098  61.8316765  86.2680740  36.2379684  62.4752197
  85.3454819  37.0121460  61.5584564  52.8679466  31.6258717  78.9738693
  53.6823463  32.1020050  79.1359863  52.9204941  31.3678207  78.0536118
  84.1683807  70.5635529  56.9564018  84.3135834  70.7073898  56.0212784
  83.8382339  69.6668320  57.0123749  48.2397232   9.7371969  26.9152889
  48.7459259  10.5138969  27.1534615  47.3846397  10.0792952  26.6544571
  53.5274391  70.2989578  68.3841553  53.5204697  69.3441086  68.3174820
  54.3943748  70.5547256  68.0691452  35.2666016   1.8051605   2.5976729
  35.6431160   2.4173756   3.2298598  34.7068558   1.2329441   3.1225376
  24.0204277  59.1959839  59.2204094  23.7211895  59.2765541  60.1260567
  24.3053036  58.2854958  59.1423912  50.5268555  36.3995743  27.6768398
  51.0849800  36.0832520  26.9664383  51.1123581  36.9181404  28.2286549
  50.3575592  30.9557686  84.9085693  49.8539619  31.0924377  84.1061096
  50.1427116  31.7098980  85.4575348  24.6668129   5.1182079  78.1777267
  24.0122643   5.5201826  78.7488785  24.8078270   4.2479048  78.5504456
  13.8942471  25.7509575   9.6852007  13.7243595  25.5938416   8.7563925
  13.0390081  25.6561661  10.1044998  20.2136860  57.1078300  56.2408867
  19.3373241  56.7470016  56.3751450  20.6745033  56.4366798  55.7374611
  64.7747498  46.0644875  71.1045990  65.4993515  45.6705666  71.5904007
  64.6059113  45.4524765  70.3882446  62.4463692  42.5280876   5.7717838
  62.0711288  43.4039993   5.6812134  63.3927994  42.6711121   5.7651658
   0.0786968  33.2364731   6.2455559   0.8072605  32.8068657   6.6937342
   0.3894420  33.3616982   5.3489022  53.3508377  15.1067142  38.4142456
  52.9293747  14.6225033  37.7042160  54.2767410  15.1287689  38.1724892
  44.6705894  35.1334953  16.4718323  45.4151459  34.5519104  16.6255302
  44.9934540  35.7733459  15.8373356  13.9343767  57.0278816  28.9826355
  14.2911386  56.6650734  29.7933903  13.0706301  56.6238937  28.8991585
  11.4343529  33.2928123  31.7510643  11.9097023  32.7964363  31.0848160
  10.7555313  32.6920242  32.0584526  50.9768753  65.4945068   5.7131338
  50.2772217  64.8481522   5.8077250  51.1698990  65.5030670   4.7756367
  10.8026695  39.2093964  59.2869339  11.6420374  39.1601067  59.7443886
  10.9717331  39.7797089  58.5370064  14.9930077  30.7090893  15.7771864
  14.5885983  29.8740101  15.5419722  15.9247770  30.5828609  15.5980091
  32.5390892  38.7247505   2.5414166  32.3350754  38.4996643   3.4491315
  32.9415932  37.9336395   2.1831377  66.3743362  63.7110977  37.6352806
  66.9280472  63.2267532  37.0228691  65.7018051  63.0828590  37.8984261
   8.0001259  67.9248734  55.6459007   8.5388317  67.1822968  55.9190445
   8.6140976  68.5215759  55.2178612   7.0320072  45.0907784  44.1693878
   6.7068558  45.7645111  44.7665405   7.9511838  45.3182297  44.0293388
  73.4108047  69.7234879  12.1301241  72.9216309  69.5762024  11.3206511
  74.3287582  69.7222137  11.8588467  54.8412628  13.2145758  12.3175344
  55.3347549  12.3946953  12.2952948  54.4084930  13.2568474  11.4647999
  62.3929291   3.1824567  63.8037796  62.1088676   4.0748849  64.0015488
  63.1341324   3.0315032  64.3903503  61.4040070  25.9046135  59.0272713
  61.2335205  26.7595768  58.6320457  62.1745720  26.0445232  59.5776215
  49.2574577  69.6971359  34.1111069  50.1010475  70.1138000  33.9350853
  49.2509880  68.9224854  33.5488739  39.4045372  68.2265015  81.9217987
  40.0186653  68.9164963  81.6708298  39.8624802  67.7345352  82.6033325
  41.3435287  36.0858154  88.8066788  40.8283043  36.5678482  88.1598206
  42.2500916  36.3312454  88.6219101  11.0454035  11.0233231  82.2078476
  10.5569630  11.5086584  82.8727570  10.5265636  11.1224070  81.4095840
  36.9079323  17.5614014  79.2166901  36.7049408  17.1987858  78.3544006
  36.5046387  16.9511814  79.8341141  78.3642426  63.1749382  43.7769814
  77.7815094  62.4303703  43.9262314  78.3677979  63.6469841  44.6096840
  80.6739655  52.4100800  40.6898270  80.7578888  51.5752869  40.2290573
  81.3207321  52.9796524  40.2732697  45.8734550  32.5276184  82.3872833
  44.9282913  32.4617310  82.5235138  45.9730568  32.6191864  81.4396973
   0.2949858  20.4723587  85.6041412   0.2361096  19.6368217  85.1408463
   1.0367386  20.3643913  86.1994400  18.1757240  37.0970726   1.2981869
  17.3791714  37.2390518   0.7867387  18.3031311  37.9168777   1.7755941
  47.1478577  48.0768051  80.8897552  46.6113853  48.0708580  80.0970383
  47.4662285  47.1777000  80.9702530  36.3126640  17.7428646  84.1530685
  35.5142975  18.2463856  83.9939880  36.4668083  17.8291740  85.0938263
  42.4014511  63.8523102  29.4108639  41.5529327  63.7719231  29.8465061
  42.3176155  63.3161240  28.6223793  67.4350967  52.2789688  40.7164421
  67.1349487  52.4408913  41.6108246  67.1367722  53.0422287  40.2218056
  50.7373276  28.9224319  24.5470695  51.5022774  28.8679447  23.9742527
  50.3506927  29.7755661  24.3498287  73.6364899  34.1668510  89.0056305
  74.2442627  34.8166733  88.6526718  74.0316010  33.3237991  88.7833939
  69.5250931   2.0779085  41.6472626  68.7261734   2.5209694  41.9330254
  69.2525558   1.1752152  41.4826355  12.6394968  53.4999504  83.1904755
  12.5505323  54.3917236  83.5267181  11.9236822  53.4085770  82.5615997
  81.0677795  38.9697952  88.2655792  81.9451904  38.9376068  87.8843460
  81.0243607  39.8242302  88.6948700  68.3726120  35.5490189  63.5493202
  69.0165558  35.0082283  63.0920372  67.7882156  35.8612328  62.8584976
  26.0421410  31.4872932  88.8076248  26.1810055  31.9520931  89.6327972
  25.9564590  32.1808739  88.1535339  59.2812271  12.8138056  41.1835556
  59.2828751  13.5933685  41.7389908  58.4431915  12.8500175  40.7224579
  54.5094719  32.3406219  56.1002502  54.0245247  31.6355381  55.6713905
  55.4289856  32.1384201  55.9275055  35.2490044  67.6156540  26.6572552
  34.9286003  66.7329178  26.8426018  35.9042244  67.7799454  27.3354321
  36.4763680  52.7851334  82.3549881  37.1835136  53.2036057  81.8640060
  36.4592590  51.8849411  82.0300369  22.1214333  54.1480675  87.8676758
  22.9437675  54.6341476  87.8066559  22.1387939  53.5529594  87.1181564
  60.2290039  42.4707108  39.5120583  59.4693489  42.8368950  39.0592155
  60.9202080  42.4597778  38.8499794  78.8952942  50.3502426   7.9719839
  78.3617935  49.6670914   8.3780785  78.3541183  50.6827850   7.2558966
  79.7626343  34.3803825  48.4813690  79.7833481  33.4780045  48.7999878
  80.5807800  34.4814529  47.9948883  37.5568504  70.2634201  84.6821823
  37.7925682  69.3371735  84.7345352  38.3621101  70.7001801  84.4046402
  60.5893517  39.7124825  42.7729149  60.0197334  39.3045692  43.4251213
  59.9953003  40.2200966  42.2200508  65.5052032  21.3815327   9.4774685
  65.1038971  20.7767620  10.1015205  65.6579742  22.1802540   9.9823799
  48.4143562  60.6596718   8.8693838  48.1290054  61.2152023   9.5947733
  49.3702316  60.7016068   8.8972387  53.5200272   2.8832126  31.9725590
  53.3518791   2.3489008  31.1963692  52.7124481   3.3809538  32.1002388
  60.7123451  58.6574554  66.2258072  60.2759361  57.8948326  65.8460846
  60.1837807  59.4026794  65.9403458  56.6739006  53.1019859  74.9258118
  57.4019203  53.6853104  74.7114410  57.0348358  52.2212524  74.8244705
  59.1274223  39.1218605   3.8133378  60.0654297  39.1207237   4.0040560
  58.8503456  38.2188911   3.9685910  25.0931530  35.6084328  67.6527786
  25.3695374  34.8579025  67.1268997  25.0185242  36.3266716  67.0244522
  75.6341095  55.2799911  25.2905331  75.2634811  54.4035568  25.1869545
  76.0140228  55.2770844  26.1691055  73.9373093  11.8870201  86.3502808
  74.5874252  11.3134117  85.9446259  73.2616806  11.2915773  86.6746368
  65.4933090  45.8466301  82.4629440  65.0975418  45.9047585  81.5933304
  66.3843536  46.1750870  82.3430176  67.9830780  63.8584976  14.4620285
  68.6233826  63.7837296  15.1696005  67.2984543  64.4252396  14.8174438
  65.3181610  56.2155151  62.1277771  66.2030487  56.3132744  62.4794121
  65.1600342  55.2715073  62.1361732  14.4266748  30.8748074  59.8301048
  13.8619118  31.5250568  59.4124336  14.3029690  30.0807667  59.3100777
  83.6325989  48.9470139  38.5125122  84.3641357  49.4200058  38.9092026
  83.0790405  48.6977768  39.2525711  31.1718807  21.7984409  16.6460743
  31.0690174  21.5424480  17.5626526  31.6518497  21.0727024  16.2471199
  62.1168175  44.9933853  50.2304420  62.0402412  45.1625061  51.1694679
  62.9249954  44.4879379  50.1432304  29.9719219  46.3489037   0.2400863
  29.3623543  47.0863457   0.2111720  30.2997112  46.3442268   1.1393994
  75.8217087  64.1180725  50.8595314  76.7242355  63.8977928  50.6289787
  75.7657623  63.9458580  51.7994499  84.3378448  61.9824600  58.4199791
  85.0804214  62.1485329  57.8392639  84.0223846  61.1158752  58.1635551
  45.0484886  29.1492634  64.5182877  45.4400787  29.9964409  64.7308426
  44.5903511  29.2979469  63.6911049   5.8700247  65.5925140   1.4200618
   6.1732683  66.4667664   1.6649122   5.1998510  65.7490540   0.7547851
  65.0093842  37.6097946  35.2559395  64.7209854  38.5016632  35.0619469
  64.5637665  37.3863907  36.0731010  49.8592567  16.3819599  24.2649937
  48.9263039  16.1831398  24.3443661  50.1928291  16.3273048  25.1605244
   0.5733345  14.1435909  76.1623535   0.7211752  13.2199144  75.9593887
   1.3860171  14.4303236  76.5789642   4.8840971  46.7777138  27.2230949
   4.5919652  46.8862724  26.3180504   5.6423945  46.1967850  27.1619644
   7.0418491  54.4629326  73.5070114   7.1112299  54.2816811  72.5696945
   6.3012338  55.0648766  73.5803833  77.5431519   9.8279018  21.3718967
  76.7899246  10.0606232  20.8290119  77.2322006   9.9337063  22.2709789
  62.9236488  38.0639420  31.6846924  63.2865524  38.5066414  32.4518623
  63.6688347  37.6030655  31.2992992  32.1441383   7.3554797   3.9618814
  31.9273148   6.4628992   3.6925857  32.8632317   7.2497330   4.5847368
  48.1491089  12.4163094  25.1354027  48.8902206  12.7990208  24.6658096
  47.7774124  13.1457014  25.6314449  57.1654701  23.7664509  21.7754021
  57.1113319  23.4738235  22.6851654  56.2557831  23.7972412  21.4791698
  46.3959846  50.5280457  24.0213432  46.0454712  51.3273125  24.4144707
  45.9263916  50.4434128  23.1915531  13.4880676  69.7117767  65.1508636
  14.0858231  69.0252228  65.4467773  13.8646173  70.0179443  64.3258209
  72.6988678  15.3061161  82.1032715  71.7849045  15.1301870  82.3267899
  72.6569748  16.0234470  81.4708862  66.7397308  63.9444962  86.0791245
  65.8593140  63.5748329  86.0124817  67.3197556  63.2313881  85.8121338
  78.8746796   5.8709812  65.3842239  78.8526535   4.9360404  65.1801834
  78.2174072   5.9817548  66.0712051   2.7285495   7.2689776   9.7550926
   2.6718194   6.5478635   9.1281891   2.9552569   8.0316639   9.2229776
  47.0467987  20.0736046  60.2152863  47.6425285  19.5288696  60.7296829
  46.1729813  19.7642708  60.4540024  11.4148312  37.5359535  52.5389786
  11.6814060  37.7578354  53.4311333  11.5609064  36.5922661  52.4730568
  81.2614670   9.7180710  26.3720379  80.3641968   9.5552998  26.6629715
  81.5509949   8.8811722  26.0087070   1.2725735  43.7174263  48.9437981
   1.1577024  43.9977036  49.8518066   0.5836455  44.1758194  48.4626656
  78.4513474  32.5757141  10.8767185  78.4306946  31.6831894  10.5314627
  78.3732834  32.4677200  11.8245983  85.9732437  39.6226082  25.1747398
  86.2718658  40.5320282  25.1709232  86.7086716  39.1275139  24.8138142
  39.1874847  57.0669708  40.7881927  38.5550690  56.4174118  41.0953636
  39.3933182  56.7963829  39.8934059  84.9302826  27.5817146  46.4621201
  84.4070282  27.4554806  47.2536392  85.5786591  26.8780670  46.4888763
  10.7152977   0.2667943  56.8011627   9.9212446   0.6993774  56.4871826
  10.6811686   0.3648286  57.7527161   2.0166373  70.2979736  26.6130981
   1.7838621  71.2171402  26.4820175   2.0283389  70.1870956  27.5637817
  36.0088615  47.7934189  20.9453278  35.8909683  47.9130592  21.8876762
  35.6465797  46.9255791  20.7668972  27.2986488  45.8324547  42.5810814
  27.7996750  46.6070976  42.8362961  27.7413559  45.1057472  43.0194130
  82.2504196  49.7301598  36.2274780  81.9475632  48.8909454  35.8807373
  82.5918274  49.5209236  37.0968971  67.6300430  62.2315483  68.6966171
  67.5031738  61.2984962  68.8684998  67.4602814  62.6553268  69.5379410
  67.9675674  23.3402443  43.0827332  68.6900635  22.9688759  43.5890121
  68.3639221  24.0606976  42.5927505  53.0871277  49.2216568  65.7988281
  52.7880516  48.5093498  65.2336655  53.0208817  50.0048180  65.2524719
   1.1542073  46.0687027  10.5558033   0.4576999  45.6187820  11.0340118
   1.8006816  46.2899551  11.2261391  63.7977371  43.6897926   3.0613823
  64.6522598  44.0373840   2.8060362  64.0007858  42.9051819   3.5706823
  15.4445944   2.6722836  82.0300827  14.6376543   2.3193669  82.4049530
  15.6121998   3.4706230  82.5308762  45.8279572  62.9166183  14.0985222
  45.4090347  62.3941078  14.7824230  46.1690636  62.2713470  13.4792471
  76.1798477  37.8482132  81.1108932  76.1600800  38.5303497  81.7821045
  76.6299744  38.2541389  80.3700485  68.4070587  57.7169800  15.7568760
  67.5437241  57.9899483  15.4464474  68.6898499  57.0545464  15.1264448
  43.9020805   6.9037032  57.3750229  44.6088943   6.9506059  58.0187950
  43.6526451   7.8157883  57.2263107  76.9151382  71.1195908  62.7346268
  77.4076614  70.3003082  62.6853828  76.5692139  71.2445831  61.8509102
  50.4673653  43.1080322  66.9530106  49.7510605  43.4977951  67.4542389
  51.1778221  43.7465591  67.0143967  55.9812508   1.8890742  32.3760338
  55.4130554   2.4488318  31.8468304  56.8172264   2.3544762  32.4039536
  44.5556831   0.9031832  86.1984329  45.1668053   0.1733582  86.0978470
  44.1713943   1.0153643  85.3289719   6.5833836   4.7464361  34.1390648
   7.3979363   4.8813891  33.6547890   6.2275290   3.9307292  33.7866135
  72.9872818  47.5012817  43.4875984  73.3177567  46.6981430  43.0851212
  73.7730255  47.9649467  43.7771683  85.7784195   2.2378612  24.6320438
  84.9741592   2.3864067  25.1293716  86.1892395   3.1007097  24.5776939
  40.3068619  38.8644714  65.6901474  40.0705528  39.6068077  65.1339722
  39.5313034  38.7135963  66.2304916   9.1249390  50.8293266  55.1858902
   9.8980808  51.2743988  54.8389091   8.5463762  50.7298355  54.4298477
  52.2409515  34.2374954   8.9158278  52.0991898  35.1761894   8.7933769
  52.5989189  33.9382935   8.0800247   4.2736945   2.5715580  10.2871780
   4.1688552   1.6363857  10.4623728   4.2435575   2.9819918  11.1513929
  86.6258469  29.1073093  24.5646896  85.9045105  28.6739025  24.1085472
  87.3322144  28.4613419  24.5640259  53.6027641  33.8103142  66.1531754
  53.5085602  33.6347961  67.0894165  52.8176079  34.3067970  65.9223785
  72.3073730  64.6032181  32.1246796  71.5795517  64.3490295  32.6920395
  72.4997101  63.8163033  31.6147766  34.7041969  62.4981956  21.7377262
  34.3792992  61.9456787  22.4486370  35.5753937  62.1520119  21.5443325
   7.5420680  34.1050835  81.5536575   8.3815298  34.3836594  81.1876907
   7.2118354  33.4581947  80.9301910  51.2424660  23.1931095  71.4928055
  51.0789413  23.4952106  70.5993652  50.5630684  22.5379486  71.6522293
  81.4231873  15.1093407   8.1734571  82.3670578  15.1347523   8.0163326
  81.0329437  15.2287035   7.3076086  24.8247433  31.7248058   3.9115820
  25.4389992  31.0306225   4.1503925  24.5268154  32.0795937   4.7491956
  59.0457840  48.0040092  55.6974030  58.5441513  48.5984535  55.1395187
  58.7085342  47.1338730  55.4844360  76.4883957  57.6792221  17.3177834
  77.3092575  57.1868820  17.3216476  76.0093307  57.3521194  18.0791855
  41.0640068   2.8704267  21.8878155  41.7545662   2.4018624  22.3566513
  41.5082932   3.6221511  21.4957047  19.0399303  56.1028214  27.4322529
  19.8435745  56.1766586  26.9175339  18.4781590  55.5234947  26.9174500
  57.1641808  41.1398506  81.6440506  56.8281708  40.2796707  81.3922272
  56.7125816  41.3429604  82.4632263  18.8894672  67.9359131  61.6006546
  19.3180180  67.1770554  61.9965248  18.2896652  68.2518311  62.2764282
  61.4651985  38.2168732  11.0192709  62.2999954  38.6851234  11.0098457
  61.1039467  38.3536758  10.1434774  22.3223934  36.8558159  55.9928246
  22.8829823  36.5804214  56.7181740  21.9765949  36.0386734  55.6337585
   7.3367128  53.3050003  70.7077484   7.2031841  52.3594818  70.7740860
   6.5569925  53.6257896  70.2545776  52.3240242  32.1533928  61.3197823
  51.6655502  31.7166405  61.8600540  52.6740417  31.4594574  60.7610588
  69.6208572  12.4230995  21.5308666  69.4257278  12.9740925  20.7728653
  68.8285294  11.9012728  21.6579609  14.1682491  39.4406319  79.8788071
  13.2787657  39.7698212  80.0079803  14.7328129  40.1749802  80.1201248
  67.5919952  64.1359558  19.1902580  67.7040787  63.1856766  19.1650734
  68.2460098  64.4706116  18.5766602  84.7973709  31.0817089  34.5612869
  84.7296677  31.9845486  34.2505951  83.8902512  30.7853355  34.6356201
  57.8148384  53.1078377   5.7734375  58.0513611  52.5822678   5.0091977
  58.0651054  54.0009003   5.5367165  47.0897064  47.2459106  72.5670624
  47.5317764  46.6778564  71.9360886  47.7735634  47.8415718  72.8732605
  60.4789963  18.1846066  80.3074799  61.0573463  18.9020672  80.0486526
  59.7088966  18.2839108  79.7477341  42.7459221  22.8042793  63.8566284
  43.2852783  23.1150799  63.1294937  43.0767479  23.2779675  64.6197815
  36.0076790   4.7831106   4.2128687  36.3838654   5.6433921   4.3989687
  36.7544289   4.1847825   4.2373409  64.4817810  44.4281273  33.5440216
  64.5982666  45.3048820  33.9100266  63.7127380  44.0803375  33.9955139
  56.9708672  48.6207275  28.1907501  57.5927734  48.7214737  27.4701176
  57.4882011  48.7874565  28.9786587  22.3232994  42.5402641   7.1191301
  23.1815453  42.1164436   7.1145573  21.7178898  41.8583755   6.8280306
  81.7062378  46.8722382  13.3572836  81.6605911  46.0426559  13.8326187
  81.4149704  46.6569443  12.4712572  81.7436295  32.4443359  27.4575081
  82.1791229  31.6022854  27.5899086  81.0632019  32.2627640  26.8092136
  86.0030289  41.4521751  84.2520599  86.9531479  41.3528671  84.1916733
  85.8322601  42.3317223  83.9152145   5.1752615  58.5337601  12.5174809
   4.9391456  59.2739601  13.0765753   4.4956355  58.5161972  11.8436623
  29.6258240  58.3191376  31.4792995  30.1475601  58.7207451  32.1740913
  30.2667694  58.0628281  30.8161793  61.1112404   3.5267658  59.2376213
  60.6440659   4.3384032  59.4356728  61.1392899   3.0570457  60.0711746
  75.7167740  16.7898617  75.1386337  74.9980850  16.8002625  75.7707825
  75.9354630  17.7127438  75.0094070  84.7518768  11.5260906  77.9139938
  84.1011276  10.8942518  77.6081543  84.3158722  11.9929352  78.6268616
  85.7522812  43.7259064  38.1572456  85.7077408  44.0181770  39.0676460
  84.8905029  43.3465271  37.9850578  77.4430389  31.1609364  56.8771706
  78.3580551  30.8904858  56.8007698  77.2287216  31.5260525  56.0186882
  71.5319824  21.7853050  68.1676254  71.3081512  21.5738716  69.0739517
  71.7980804  22.7043743  68.1947937   5.3660135   9.3245163  66.3673096
   4.8798008   9.8531637  65.7345657   5.6739254   9.9542236  67.0191498
   1.0040127   2.9293036  49.8815308   0.8474644   2.1593637  50.4282608
   0.4819646   2.7742388  49.0943489  13.5188904   2.2730525  87.5104218
  13.2131834   1.7142278  88.2249069  13.0804110   3.1111217  87.6574173
  55.3854713  15.6176090  72.2925186  56.2836533  15.5376768  71.9714050
  55.4226189  16.3273449  72.9337082  72.9534454  48.5937691   6.7707815
  73.1971664  49.3846474   6.2898006  72.7667007  47.9473801   6.0899453
  75.9755783  51.7638702  78.4441833  76.1122971  52.3107185  79.2178040
  76.6257706  51.0661774  78.5261078  69.7981339  20.8605118  37.0815811
  69.6355438  20.7498398  38.0183563  69.5784073  21.7756119  36.9068222
  51.0779495  69.9068069  78.6406860  51.0240211  69.3086777  77.8953247
  50.8560486  69.3657684  79.3984909   4.0754247  21.0524445   6.5864110
   4.2575035  20.3415680   5.9718108   4.2780910  21.8498249   6.0971861
  61.8803673  17.7704468  36.0264435  62.4696732  17.0333920  36.1867561
  61.8753319  18.2567863  36.8508720  43.5342941  63.4879646  46.3978653
  44.3342628  63.2900124  45.9109383  42.8749390  62.9041977  46.0227699
   3.1946464  52.7646141  54.6722717   3.0276308  52.1705284  55.4039803
   4.1271276  52.6573029  54.4846649  21.8238354  65.5293655  45.6269302
  22.5343056  65.7644043  45.0300865  22.0298691  65.9927063  46.4387779
  42.9415207  35.0652885  76.7077789  43.8145790  34.9024544  77.0648346
  42.9631348  34.6740761  75.8344421  82.3622131  64.5413742  71.6858673
  82.9686966  64.8661804  72.3513870  81.4934769  64.7138138  72.0488968
  54.6655884  21.2149258  77.2231064  53.7831192  21.0504951  76.8907852
  55.2160530  21.2369766  76.4403381   7.8674278  54.2357712   5.0722098
   8.5714951  54.0044937   5.6780415   7.5493531  53.3952904   4.7425814
  29.3650112  51.5638123  20.2504692  28.6010056  51.0884438  19.9240456
  29.9579105  51.6083031  19.5003204  67.7742310  45.5020599  46.2913055
  68.6754684  45.3271790  46.5622902  67.8413696  46.2608681  45.7117081
  51.8054008   5.3764143  22.2834435  52.4327354   5.9672971  21.8668633
  51.7902565   4.6050529  21.7168713  27.0562134  45.7642365   6.5883417
  26.6118813  45.7139549   7.4346700  26.3792496  45.5427895   5.9488807
  42.4891815  33.0267868  74.4760056  42.8797493  32.3438263  75.0212173
  41.5496407  32.8455505  74.5015335  40.7833138  10.6728086  20.8480320
  40.6385956   9.9002523  21.3943329  41.3735657  11.2230568  21.3628750
  22.2249947  48.7275772  38.7390747  22.3373470  49.2331619  39.5440559
  21.6883564  47.9789200  38.9993782  74.7133179  66.1224518  87.3919983
  74.9104156  65.3148651  87.8665390  74.5781708  66.7763596  88.0778351
  73.4413757   8.7331591  73.3162460  74.0195694   8.1395483  72.8371277
  74.0253830   9.4064121  73.6653824   7.8938937  27.8676147  41.3800354
   8.8128090  28.0819855  41.2191887   7.4260225  28.6884155  41.2263680
  71.5450134  59.1988678  65.1178360  71.6528473  58.6852264  64.3173523
  71.4861450  60.1049576  64.8149033  53.3831291  18.7077217  61.0045891
  54.0110130  18.4997692  61.6965065  53.1275291  17.8564301  60.6493416
  27.4497738  38.4022331  30.8870354  27.2514553  39.3373375  30.9368057
  27.4109592  38.1005249  31.7946129  39.6158867  45.4073029  67.3468628
  39.9967041  44.8611336  68.0345459  39.7293434  46.3037643  67.6626434
  42.8497581  22.9760876  13.7988501  43.3956451  23.2322483  13.0554667
  43.2557259  23.4038868  14.5527802  77.9869614  64.3068314  82.9805450
  77.2426453  63.7212906  83.1196976  77.9499817  64.5240173  82.0490494
  68.5178833  49.1924210  50.0505219  67.7715378  48.6246109  49.8587265
  69.0017548  49.2387047  49.2259254  68.7208786  36.9364548  76.2095566
  69.2319412  36.4197578  76.8325043  67.9701385  37.2474785  76.7154007
  59.5450020  38.2806931  69.1957703  60.1355400  37.9177933  68.5356140
  60.0800209  38.9149094  69.6730118  62.6480942  60.8058090   9.7491436
  63.2414551  61.1404381   9.0767002  63.0190735  61.1199074  10.5737343
  50.3407173  30.8840466  88.8914795  50.7304115  31.5314922  88.3039551
  51.0890579  30.4190369  89.2656174  21.9028568  31.5564499  18.1669178
  21.5423260  32.2404861  18.7311382  22.2224617  30.8889828  18.7740192
  46.1544151  43.9856110  86.5665054  46.3044128  44.6681404  87.2206345
  45.8978310  43.2173080  87.0765152  83.3388901   7.9332838  59.5687218
  84.1136856   7.4369025  59.3050346  83.5921707   8.8496284  59.4573936
  71.3430862  45.1282120  62.9535561  72.1322479  44.5995903  63.0719414
  71.5267105  45.9413757  63.4239578  67.1576920  60.3006058   7.3573565
  67.4930878  59.7941284   6.6176114  66.8510132  61.1193390   6.9676728
  65.2005920  50.5185432  67.3039627  64.9851685  50.7698746  68.2021027
  64.8799744  51.2444191  66.7686691   6.7990851  35.6860733  63.8414917
   7.2632036  36.3585205  63.3428497   7.4902010  35.2078972  64.2996826
  76.6651154  31.8621769  49.7329979  76.2774429  31.4293709  48.9723244
  77.6093369  31.7986851  49.5893021  77.8264694  11.1931705  76.3013229
  76.9667053  11.6118069  76.3435211  78.1718445  11.4412851  75.4437790
   5.0668573  48.7827263  60.9103584   5.9518261  49.0710220  61.1338501
   4.6536632  49.5550766  60.5243835  78.5919266  21.5769844  67.8479309
  79.1489029  20.9739399  68.3402176  78.3607025  21.0952759  67.0537491
  83.7713699  71.1286697  53.7560387  83.5709305  72.0503311  53.5929451
  83.1421661  70.6479187  53.2182579  31.7225113  50.9271317  11.0510759
  32.6342125  50.8056297  11.3161659  31.6876278  51.8234787  10.7170429
   6.4524732  70.8739471  30.2507782   5.7817974  71.5544357  30.1928387
   7.2699447  71.3246994  30.0391350  30.6460876  61.8171120   0.8718482
  30.2896271  62.1750793   0.0588128  29.9091606  61.3579521   1.2747607
   7.8989615  49.3475609  58.5395126   7.2517943  49.7886505  59.0898285
   7.9071183  48.4443817  58.8564262  17.7399883  32.5383301  16.5449200
  17.7522678  32.4638863  17.4991417  16.8569260  32.8456383  16.3399982
  73.8312988  11.0336733   9.3022270  74.1549606  10.9726410  10.2009783
  72.8981628  11.2251186   9.3961802  71.4646225  24.2377167  10.2506905
  71.7846680  24.2400799   9.3485842  70.6971207  24.8094673  10.2340336
  40.6116753  60.9418907  62.2076912  40.0368614  60.3759880  61.6923485
  41.1409569  61.4023933  61.5565147  29.9225159  44.9152374   4.7349129
  29.6375675  45.2487183   5.5856938  29.8912315  43.9631081   4.8281689
  80.1025772  51.3692856  36.2425232  81.0021667  51.0422630  36.2364616
  79.5865936  50.6579895  35.8629837  75.1371536  54.5491753  47.1615906
  74.6510010  55.0221100  47.8370285  76.0506210  54.7952995  47.3073044
  20.1026020  12.7994890  11.6744995  20.3199253  13.0906954  10.7889481
  19.7632084  13.5827026  12.1076517   2.4170902  27.6243973  36.0032082
   3.1881905  27.2976036  36.4667168   2.1815686  26.9176655  35.4021301
  28.7203503  17.5550766  67.9293518  27.7791214  17.6823082  68.0482330
  28.8555241  16.6184921  68.0734711  70.0479202   2.2254159  49.7306328
  70.5869827   2.9766212  49.9782906  70.3535156   1.9897060  48.8546867
  84.9271698  19.0784016  75.2506485  85.8379288  18.7847652  75.2736359
  84.5816345  18.8550739  76.1149139  52.8126488  58.7092056  67.1267014
  52.4109535  58.7588539  67.9941177  53.6494751  59.1636314  67.2239227
  14.4871817  27.4725266  86.4802551  14.2852592  27.5204830  85.5458298
  13.6426497  27.5933628  86.9143066  43.9799881  69.6689835  10.8948870
  43.7548256  68.7703552  10.6540737  43.3609886  70.2104568  10.4051056
   2.9380817  31.5466022  45.0707436   2.8156872  31.6453934  46.0149345
   3.8869643  31.5746632  44.9479980  29.1800556  51.1087341  22.9322929
  30.1101532  51.0330925  22.7191486  28.7316456  50.9818840  22.0961895
   2.1281860   4.2800903  81.9820633   1.9461430   4.8293943  82.7445297
   2.5843525   4.8601441  81.3724060  57.9512596  25.9872646  79.5605240
  58.8651695  25.9972668  79.2761002  57.8115311  25.0981331  79.8863373
  45.5209885  47.5940056  63.5056953  45.3972359  46.6798935  63.2501221
  45.5743141  48.0693932  62.6766014  66.7576599  53.8244705  42.8138275
  66.4367142  54.5987778  42.3515778  67.6230011  54.0785332  43.1345482
  15.8189430  57.9429970  68.2238922  15.5362549  58.1046219  69.1240005
  16.0331097  57.0102768  68.2039261  67.6382294  11.4320726   9.1599007
  67.1039581  11.2588902   8.3847933  67.6292114  10.6076012   9.6461096
  13.8312950  26.5209122  75.0996475  13.5972719  27.3100452  75.5882492
  14.1967821  26.8477783  74.2775726  16.8078842  19.2318954   5.6365891
  16.0001202  18.7435341   5.4776845  17.5071030  18.6040840   5.4544449
  62.7842712  54.7152748   9.9030552  62.7646370  55.6221695  10.2086544
  61.8638992  54.4548569   9.8665342  81.0818863  22.0763111  37.8483200
  80.6873703  22.8297329  38.2875786  80.5048752  21.9036217  37.1043625
  15.4304571  37.3871918  68.4439850  15.1860809  36.4688454  68.3292847
  16.0797024  37.3762283  69.1472626  79.5982666  70.1949005  60.8753014
  79.2188644  71.0721512  60.8231087  79.4390564  69.8133392  60.0119934
  11.1417627  43.4740295  68.5268250  10.4623194  43.7417526  67.9080276
  11.0743866  42.5197258  68.5584106  83.7124176  66.8804092  14.5203810
  84.2201309  67.6895370  14.5818396  83.2081070  66.9748917  13.7123070
  74.9238815  55.0960541  56.8897629  75.7168198  55.5551987  57.1666641
  75.2173843  54.2052994  56.6983452  81.6975250  21.6475086  33.6294174
  80.8670502  21.9346123  33.2497864  82.3515701  21.8608284  32.9638748
  84.0763550  67.4781418  49.2476082  83.4343262  66.7681885  49.2481232
  84.8785934  67.0753403  48.9153557  44.9239349  62.1212196  84.7462234
  44.1327248  61.6978989  85.0794144  44.7282524  62.3054466  83.8275299
  77.4731750  19.4124260  72.9004745  78.1743546  20.0561485  72.7994766
  77.8198624  18.6156521  72.4989853  79.0441208   2.6837423  10.7755928
  79.8668442   2.9587562  11.1802235  78.4334793   2.5994573  11.5078821
  67.0429459  48.6316338  46.9407806  66.9446411  48.3816643  46.0220375
  67.8307343  49.1750679  46.9581642  84.6568298  59.9155998  69.6401672
  84.4832077  60.6244392  70.2595520  84.0915070  60.1074905  68.8919525
  74.8287430  23.2601662  26.4523487  75.0625381  24.1883564  26.4584656
  75.6055527  22.8197784  26.1075821  83.7782211   1.0939254  41.0224609
  82.8444443   0.9821127  40.8441620  83.9751434   1.9807569  40.7208290
  54.0463219  46.1330795  22.8499756  54.0347977  46.7301598  23.5980358
  53.7592545  45.2935524  23.2091694   8.0844479  33.1137543  84.0937576
   7.3865857  33.2889023  84.7250595   7.8591857  33.6492653  83.3330231
  65.1263046  22.8549881  33.1330338  65.7899246  23.0984459  33.7784538
  65.4236069  22.0122623  32.7900200   0.7045757  50.3218498  55.0450020
  -0.2312600  50.3952942  55.2322159   0.8993169  49.3916054  55.1588173
  69.4393768  54.3089867  86.2795563  69.7882690  54.8965378  85.6092682
  69.4880524  54.8150864  87.0905609  18.4304485  19.5433102  75.2315063
  18.2971478  18.7018280  75.6678162  19.2704334  19.8566074  75.5669174
  46.8434486  40.2658920  40.8175507  46.7532005  40.5445786  39.9062767
  47.0888824  39.3423386  40.7623863  30.7343922  27.4457169   4.4017725
  31.5449238  27.7891235   4.0258169  30.9477329  26.5461807   4.6498709
  32.6687126  67.4471359  43.6595650  32.4863701  68.3107986  44.0297928
  32.7673988  67.6050110  42.7206459  24.5261459  47.1410942  86.1560135
  25.4231510  47.0226135  86.4683838  23.9782391  46.8644562  86.8905182
  23.1321468  70.8369675  80.8759232  22.9452000  70.1700058  81.5365677
  23.1981010  71.6531830  81.3715820  49.6910133  52.2019081  82.0925980
  49.9871635  52.5071564  81.2350693  50.4535522  52.3085938  82.6612701
  55.1372070   9.4719124  64.5238495  54.5303841   9.2271166  65.2224731
  54.6156921   9.4160852  63.7231369  14.4707336  19.9293709  72.7766953
  14.3534460  20.4728031  73.5558929  13.6527615  19.4378471  72.7021408
   7.5720692  29.8074970  83.0679245   7.7626190  29.0113583  83.5639954
   8.4318447  30.1432934  82.8144302  68.5576019  35.6633949  51.9753952
  68.2415009  35.3797493  52.8332176  68.1154556  36.4982452  51.8212547
  83.3023224   5.1376166  23.7798500  82.4025879   5.2949133  24.0661411
  83.8417206   5.6063633  24.4166851  69.4247055  64.3415222  48.7815361
  69.5279236  63.7050781  48.0740662  70.2210159  64.8714218  48.7450790
  12.0792074  55.5021057  10.7806997  11.1703377  55.6761818  10.5359812
  12.2693119  54.6441536  10.4012175  40.7397652   3.9846144  63.4806480
  41.3544464   4.6836410  63.2575798  40.8457146   3.8646300  64.4243698
  37.5402184   0.0961114  28.9940739  38.1472931  -0.4549953  29.4880085
  37.6095581   0.9574704  29.4057598  59.5564537  17.8761253  15.9419508
  58.9034729  17.2138901  15.7154751  59.4031906  18.5864925  15.3189592
  70.7700882  16.4739323  62.9611435  70.8816223  17.4037132  63.1593857
  69.9454269  16.4294605  62.4772148  37.5079842  23.7921352  72.3514328
  37.3805962  24.5002136  71.7200623  36.9541588  23.0811501  72.0289307
  79.6286011  28.8342648  15.7345467  79.1994247  29.3363800  16.4273129
  79.5176239  29.3681850  14.9478788  44.9867249  52.1144257  61.4996452
  44.0712090  52.3277626  61.6800728  44.9723587  51.1910324  61.2479172
  78.0637512   1.0629127  14.4341850  78.3970795   1.7521573  15.0086956
  78.8343506   0.7555425  13.9567738  25.6814594  71.1887665  10.9827099
  24.7944336  70.8625488  11.1343517  25.9967804  70.6852798  10.2321739
  51.5225716  28.9922943  42.6788025  51.3083725  29.4990826  43.4620781
  50.7833443  29.1394043  42.0887718  85.8522797  38.0194702  27.7755241
  86.4807053  37.8246307  27.0802917  85.0731049  38.3295937  27.3140697
  40.0796509  69.1996307  65.4069443  40.2098312  69.2544479  64.4602280
  40.8849754  68.8009949  65.7367630  53.3817062   6.0440965  36.4683647
  53.9095001   6.7437582  36.0834770  52.9665070   6.4486461  37.2300606
  60.7498016  61.5111351  82.2967300  61.1450500  60.7548981  82.7304611
  60.4119987  62.0486221  83.0131226   7.1531487  46.1504478  47.2935410
   6.4562392  45.9053116  47.9021912   6.7563376  46.8147278  46.7300644
  35.8451042  17.1656570  19.8041115  36.3756332  17.9623737  19.8003025
  36.4221954  16.4953709  20.1700611  61.5694771  68.0358047  88.1558533
  60.7252693  68.4869614  88.1571655  62.2162132  68.7380142  88.0861511
  74.4972382  11.3838892   3.6473446  74.7890701  11.2660532   4.5513258
  74.3521347  12.3262978   3.5634217  61.5984344  19.3450165  74.9632721
  62.4390411  18.8912582  74.9023285  61.4025002  19.3614693  75.9000549
  29.2574863  26.4916439  75.2770309  28.5641155  27.1131115  75.4989471
  28.9045830  25.9918804  74.5408707  64.7300034   9.6507130  11.6867628
  65.4674988   9.6665125  11.0767765  65.0348434  10.1504335  12.4441156
  42.6568718  62.3937149  69.0771484  42.7512512  61.4435730  69.1446457
  43.0860558  62.6190033  68.2517548  52.9716721  59.0752487  84.1815643
  52.6751900  59.7931786  84.7409439  52.6944885  58.2829628  84.6416550
  68.1384277   5.2896261  50.1134377  68.6970291   5.8860130  49.6149292
  68.5210190   4.4245071  49.9670715  46.5587502  54.5346985  23.4162045
  46.0549850  53.7215538  23.3808384  47.3528595  54.3464241  22.9160290
  46.6226845  68.6606827  60.4297791  47.3127022  68.3019638  59.8717232
  47.0072594  68.6761169  61.3061905  63.7600517  68.6502075  28.1003094
  63.9982643  67.7367020  28.2583866  62.8142090  68.6794662  28.2443943
  81.5719757  19.6396790  81.6214371  80.7643433  19.4227180  82.0871506
  81.3204727  20.3398857  81.0192032  59.1353912  39.8458214  51.5743713
  58.5947227  40.6355591  51.5893364  58.7758102  39.2961502  52.2706413
  67.2836227  38.4629288   0.0942528  66.7127686  39.2158241   0.2475758
  67.4138794  38.0804710   0.9620041  52.3957901  13.6705303  61.4161377
  51.7359657  13.6628895  60.7227364  52.5818024  12.7459784  61.5799522
  69.9237213  48.1615639  23.2368202  70.0608444  48.2647896  22.2951336
  70.2952957  48.9554520  23.6214066  82.1622391  -0.2792746  22.7656479
  82.5177917   0.1472411  21.9859676  81.5853729   0.3773827  23.1558418
  59.6471252  58.0951805   4.1548705  58.8234062  58.5745277   4.2440052
  60.0281754  58.1084480   5.0328536   3.7893214  31.9819679  35.3797874
   3.1905375  31.9501686  34.6336784   3.8142364  32.9061775  35.6276779
  45.5081177  60.9436607  35.7972221  46.4579735  61.0609398  35.8130646
  45.2932320  60.8546524  34.8687096   5.7952595   6.3524065  71.4427032
   4.9441242   6.7901039  71.4575729   5.6211400   5.5038629  71.0354080
  59.0972328  11.5074558  63.3751106  58.2364464  11.3698912  62.9796944
  59.0013199  11.1915836  64.2735901  48.6766243  28.3777142  74.0174561
  48.7749786  29.3295784  73.9947815  49.5342026  28.0548401  74.2941284
  67.1035995  50.9237747  51.8420181  67.5904388  50.3700333  51.2316246
  66.9520187  51.7364311  51.3594818  52.9656372  15.4270096  31.6981659
  53.7843361  15.8732052  31.4816551  52.5031052  15.3566637  30.8630924
  70.5880432  31.7744408  -0.3001799  71.2410583  31.8027000   0.3991089
  69.8335648  32.2423820   0.0576190  44.7738800  41.7458611  46.2994232
  44.0468864  41.3566475  46.7854538  45.5585976  41.3941917  46.7198715
  66.4302216   1.2856728  55.4712601  67.1422806   1.3240846  54.8327293
  65.6574631   1.5747095  54.9859428  81.7359848  18.4733372   1.4558419
  81.4609604  18.1948700   2.3293691  81.4883804  19.3968105   1.4098191
   1.8996810  60.9527702  65.5378113   2.3294699  60.9243660  64.6829987
   1.0150754  61.2669868  65.3507996  -0.0720932  38.0138626  19.8963776
   0.7499697  37.6703720  19.5464325  -0.5101309  37.2501907  20.2720890
  81.6580887  31.7878361   1.7131783  80.7943954  32.1447334   1.5060652
  82.2642899  32.5051689   1.5282854  84.7039490  67.5460739  34.8702545
  83.8555145  67.9890823  34.8815765  84.9040527  67.3882217  35.7928963
  25.1775990  40.0578308  26.5932579  24.6551647  39.9019203  27.3800144
  25.7029152  40.8298416  26.8036728  58.1198120  57.4457321  56.1907310
  58.3462372  56.6812477  56.7203789  57.1850357  57.3444862  56.0113564
   9.4153147  35.0440559  35.1050987   8.6774492  34.7663841  34.5622520
   9.6391783  35.9151688  34.7775574  46.4120369  15.5673399  66.0685730
  45.4738159  15.4094200  65.9635544  46.4784279  16.0956993  66.8639679
  54.0142021   4.5059285  81.7267914  53.9111214   4.2239008  82.6356735
  54.2309647   5.4362636  81.7878189  23.9783192  30.6764965   1.3155723
  24.8003559  30.4533920   0.8788664  24.2354221  30.9008865   2.2098753
  73.4463272  44.3033791  52.3920670  72.9178314  43.6428871  51.9441071
  73.1686172  45.1342659  52.0064011   4.3744807   1.3477553  62.0921135
   4.2179394   1.1430378  61.1702576   3.8199756   2.1083453  62.2660637
  14.4349937  31.1685696  73.3316345  15.0194702  30.6155472  72.8131943
  13.9731607  31.7016735  72.6845322  47.5065804  43.4910812  23.0061913
  47.9096527  42.6574554  23.2487488  48.1732712  44.1473846  23.2087193
  61.6591263  62.5147934  30.5513306  61.5277367  62.4282875  29.6071453
  62.0140457  61.6681366  30.8223267  73.7356186   1.6771665  69.8602066
  73.8700333   0.7824793  69.5476379  72.7844696   1.7751499  69.9042053
  85.2258530  26.2124557  87.4208450  85.6070938  25.3446121  87.5540161
  84.5081635  26.2582836  88.0525513  20.5910244   4.0086031  21.7612362
  21.0332623   4.6018724  22.3684330  20.1080799   4.5866623  21.1706047
  34.5787010  33.8508224  21.1521072  35.1849937  33.3401337  21.6886101
  34.2219734  34.5061493  21.7517090  37.2840881  61.7580643  65.0942764
  37.2493896  61.7026711  66.0492401  37.5792732  60.8915100  64.8146667
  -0.1416425  62.5770149  16.6459885   0.0368192  63.2059174  17.3451748
   0.1872310  61.7438698  16.9835453  35.5764847  53.0764046  84.8088379
  36.0939865  52.5377922  85.4074402  35.9351196  52.8838196  83.9425125
  75.7820816  48.3759842  57.0421600  75.9427643  48.5673943  56.1181602
  76.0046616  47.4498787  57.1371346  11.7783556  67.9171906  21.1088505
  12.6223011  67.5968781  21.4272652  11.9203587  68.8506241  20.9514675
  60.9928856  53.8183022  12.3451767  60.3828125  53.9658394  13.0678635
  61.8490257  53.7415771  12.7663355  19.0502758  30.5132580  66.8108673
  19.8282299  30.4964523  67.3683014  18.3359394  30.7470760  67.4035568
  34.6542397  55.3524323  72.5674667  34.4175339  55.0358658  71.6956940
  34.4656410  54.6159668  73.1490936  57.9908791  13.9672680  11.8700171
  57.2587929  14.5130520  11.5829678  58.2014465  14.2904081  12.7460728
  71.3227158  20.6850071  41.8780479  70.5009995  20.8187561  42.3504028
  71.8641129  20.1735535  42.4793282  20.5759220  53.9171829  16.9613647
  19.9494591  53.6673965  17.6406155  20.0388107  54.0657997  16.1831264
  68.8909836  23.6276550  69.2889557  67.9883575  23.3144569  69.2305908
  68.8090744  24.5745564  69.4025269  86.3443146  28.8156776  40.7688484
  85.7012634  28.4944019  41.4009094  85.8541107  28.9018841  39.9512253
  24.1094055  26.6830826  73.8032684  23.1686440  26.5821285  73.9482040
  24.4575462  25.7933388  73.8614578  42.9940796  35.3746758  61.1887207
  43.0718002  34.6830330  60.5315933  43.1108856  36.1871376  60.6962814
  39.9099236  57.2799683  10.8884411  39.9588814  58.1223106  10.4364510
  39.9915924  57.5008850  11.8162127  56.3453751  44.1561279  75.2039871
  56.8314171  44.7813797  74.6663589  56.9908485  43.8243446  75.8281021
  41.7644730  34.7615166  66.7531433  42.4077873  34.0767136  66.5703125
  41.2513885  34.8292809  65.9479218  17.9897785  50.8111954  51.0937500
  17.4810905  51.0523643  51.8679008  18.8158569  51.2844620  51.1929817
  75.8830795  48.6826248  11.7318287  76.4295425  48.2729568  12.4024906
  76.3476715  49.4876823  11.5031986  50.9494133  35.3921471  37.5535774
  51.7642059  35.2379990  37.0754776  51.1748123  35.2297897  38.4695816
  43.6892433  12.4515562   9.0664463  43.1962852  12.9212112   8.3936558
  43.1002731  11.7526712   9.3508806  19.8924255  50.7335129  63.8904343
  20.0875149  50.3991203  63.0150185  19.8517895  51.6834946  63.7803917
  12.3685684   0.3767522  -0.0357088  11.4207277   0.2972692   0.0715825
  12.7331009  -0.2692403   0.5693051  84.9400787  35.9403954  44.3978233
  85.7798004  35.8322906  43.9512711  84.5534058  36.7182617  43.9957848
  29.1236744  65.5797348  13.6319590  29.7569389  65.4073257  12.9351912
  29.2012939  64.8267746  14.2178469  54.3350906  49.2925949  52.2063522
  55.0143967  49.8918152  51.8969917  54.7444000  48.4280205  52.1715546
  38.6849289  39.9134598  74.4856567  39.6028824  39.7706604  74.2550049
  38.4303818  39.1204910  74.9575043  44.9513702   5.2244277  16.3563328
  45.8500252   5.5512586  16.3135529  44.5820007   5.6405296  17.1352158
   1.5277461  18.6553478  78.2083435   1.8896692  17.9141350  78.6939850
   1.2515520  19.2732639  78.8851929  80.6226501  29.4751015   2.8624628
  80.9534836  30.3436241   2.6334484  80.2366028  29.1443310   2.0514219
  45.0935440  66.7703629  49.0181847  45.4436569  66.9672546  48.1493416
  44.2814064  66.2936249  48.8467560   5.4983811  15.2466745  86.7944107
   5.9780607  14.6005621  86.2760696   5.2273788  15.9097071  86.1594467
   0.6876709  25.5359135  80.1251068   1.4009039  25.2401772  79.5593567
  -0.0162417  25.7704239  79.5203400  35.2947273  61.6808624  31.5784931
  35.7754707  61.2416153  30.8769398  35.9421387  61.8020477  32.2730484
  50.3648987  25.3743744  77.9411697  50.2216454  24.5062103  78.3180008
  49.7416840  25.4267578  77.2165375   2.6419327  18.6578369  16.7059860
   2.9545953  17.9597111  17.2813950   2.5080516  18.2294369  15.8605385
  63.1321945  43.3952599  20.4357929  63.5977516  43.9410934  19.8021107
  62.2092018  43.6145248  20.3083458  36.2983856  58.1671867  37.3507347
  35.5643806  58.0375633  37.9512901  36.9794502  58.5710678  37.8885612
  67.3471909  53.3585625  11.6943264  67.7056503  53.3690453  12.5818100
  66.4133072  53.5330544  11.8111391   9.1475105  60.3956985   7.0612407
   8.4923773  60.1353531   6.4137449   9.0258646  61.3401299   7.1586585
  68.9991608  58.2616997  77.6796036  68.0582962  58.3728256  77.8162003
  69.3215103  57.9085617  78.5088348  41.0228882  57.7182083  69.9508514
  40.1361237  57.9110298  69.6463852  41.0718079  56.7622719  69.9559708
  80.9951859  42.4199791  11.4153299  80.5790558  42.2398415  10.5723467
  81.6467972  43.0938530  11.2216311  19.2139931  31.4958935   2.9424701
  19.9566154  30.9163933   2.7724049  18.8226509  31.6427212   2.0813520
  54.8296547  27.1312008  60.8516045  55.5855484  27.2952766  60.2877464
  54.4507103  26.3196106  60.5140305  73.7601318  48.7954521  77.4222412
  74.3488083  48.7335892  78.1744766  74.3219452  48.6331100  76.6644592
  67.5239334  70.9761276  40.9443741  66.5830078  70.8327713  40.8426743
  67.6155243  71.3535385  41.8192482  66.9068375   6.8072958  46.7856102
  67.0200424   5.8608899  46.6976814  67.6203690   7.0813551  47.3617973
  59.6511421   5.4094286  88.1172867  59.1582489   6.1633434  87.7934036
  60.0897255   5.0590096  87.3419876  35.4668579   2.5319121  72.7113190
  34.6857529   2.0786960  72.3939896  35.7679062   2.0020761  73.4494781
  61.1410065  23.8403416  22.5253601  62.0168495  24.0707855  22.2154732
  60.9061203  24.5469780  23.1267948  71.0415421  52.5439262  87.3714523
  70.9958725  52.6825066  88.3174667  70.3114929  53.0530777  87.0192795
  28.6360302  63.1623497  39.9444237  28.7103920  64.0134125  39.5126915
  29.2979774  63.1856766  40.6354485  65.1504517  52.7925224  20.9226971
  64.2038574  52.8544006  20.7947788  65.5058594  53.5442886  20.4485989
  86.4568939  58.4992218  66.6409149  87.1726685  58.2165222  66.0717163
  85.7062836  57.9760780  66.3596115   4.6985478  63.1072311   9.9533806
   4.3376074  63.8876801   9.5328398   4.9660401  62.5452995   9.2261162
  72.3353119  38.2663345  29.2344818  73.2865372  38.3590851  29.2874146
  72.0798950  38.8305206  28.5046272   6.0761576  65.3031998  57.2241173
   6.3297853  66.1547470  56.8680725   5.6923246  64.8376083  56.4810600
  81.2576218  19.3768368  62.2868462  81.9890671  19.6484127  61.7323494
  81.4164047  19.8135872  63.1236649  73.9379883   6.3627930  26.3925400
  74.5700455   6.9509988  25.9793243  73.0884247   6.7739782  26.2331696
  73.1069336  29.6957874  33.7985039  74.0236206  29.4250298  33.7475281
  73.1407394  30.5961342  34.1217155  75.0989838  35.4719849   7.3960733
  76.0057907  35.6504631   7.1469398  74.6410065  36.2981262   7.2411971
  42.7685013  36.2876358  46.2445984  41.8804359  36.4514732  46.5619698
  42.7383575  36.5218048  45.3169746  70.7478485  44.7329979  78.8249435
  70.8000412  43.7884903  78.6786118  71.5194855  45.0868797  78.3827057
  85.3463135  52.9648781  53.3361435  85.1186905  53.5358543  52.6023827
  86.0375977  53.4363289  53.8010063  40.7371864   5.0410948  56.0477791
  40.2392540   4.2275567  56.1280937  40.2063675   5.5908976  55.4714279
  32.8538437  30.9526863   0.0767127  32.5938072  31.8670235   0.1889701
  33.4390297  30.7778835   0.8137546  34.9796295  35.2701111  81.2568512
  35.5997505  34.8710899  80.6465530  34.7980537  36.1327934  80.8839722
  57.1483498  54.9040794  88.5837097  57.5497093  55.6340179  88.1121902
  56.2356110  55.1675415  88.7008514   5.1956081  50.4235420   0.6010548
   4.5031843  50.9709244   0.9714025   5.9394226  50.5465889   1.1908270
  10.1671219  14.3965378  25.4358292  11.0778198  14.6402130  25.2700443
  10.1962185  13.9056845  26.2570763   1.7110107  13.5222044  12.6398048
   1.1953279  13.5811777  13.4440594   1.7703891  12.5836067  12.4616432
  21.1439896  39.6530609  83.3909149  21.4981461  39.5625038  84.2755661
  20.6140785  38.8661957  83.2633591  27.0498238  19.9232597  70.7406006
  26.1236210  20.1620502  70.7037430  27.0531788  18.9676590  70.6854019
  70.4064560  40.8864212  22.3395653  70.2017517  41.7546043  22.6868210
  71.0032959  41.0547295  21.6104012  16.3852406  62.8285027  25.2330132
  16.6173477  63.1026726  24.3457756  15.4511242  62.6253242  25.1842537
  50.8808594  35.0285187  87.3593979  51.7803192  34.8282928  87.1003418
  50.9121895  35.0781784  88.3147964  31.4178181  12.1054249  72.3832626
  30.5863190  12.0204639  71.9167633  31.6003170  11.2243757  72.7098770
  81.9726791  24.8363018  73.1065750  82.1068497  25.5080280  72.4379883
  82.8216629  24.7586212  73.5418015  57.0980949  61.0850143  32.2762032
  57.2858696  62.0000572  32.4851837  56.4661255  60.8122444  32.9413719
  23.1916943  53.8756790  13.5896063  23.7560177  53.4474411  14.2333345
  22.4822426  54.2553864  14.1079998  11.8152027  35.9639740  36.6498795
  11.5632362  35.1908646  36.1448555  11.4146080  36.6966934  36.1820374
  55.9787331  10.5738258  11.4066486  55.2543907  10.1711063  10.9277134
  56.3319550  11.2266130  10.8022194  53.7972832  11.2209263  61.5592842
  53.5839920  10.8718967  60.6938858  53.5058746  10.5433064  62.1693230
  63.9722137  25.5966549  54.4733353  63.3420868  26.3171387  54.4647293
  63.6083984  24.9677029  55.0964622  82.9825821  62.2565536  49.4948425
  82.6918640  62.9350281  50.1042557  83.6612167  62.6809464  48.9698944
  73.9024124  17.5308723  46.8075943  72.9735336  17.3381538  46.6800346
  74.3053741  16.6763802  46.9615402  48.4345589  26.8443031  63.0479279
  47.6697807  26.3404903  63.3263474  48.5034256  26.6755257  62.1082458
  36.9244995  51.3770103  21.9683075  36.2185097  51.9100533  21.6026859
  37.5673141  52.0132523  22.2817020  18.8220062  14.6318855  56.5388031
  19.0815125  14.4807062  55.6299400  19.0219078  15.5549240  56.6945953
  44.1623230  64.3349075  66.1928635  43.2566605  64.2710876  65.8896561
  44.6711655  63.8735237  65.5262070  32.0130959  37.8005066  19.7197552
  32.4815750  38.5320320  20.1217861  32.6376915  37.0754776  19.7409210
   1.7354664  65.1138763   2.6433022   1.8730131  64.1892776   2.8492866
   1.8560067  65.5658188   3.4784369  65.2853546  65.4076614   2.2829876
  66.2069778  65.4926758   2.0388124  64.9348984  66.2952499   2.2081637
  21.2505665  45.1525040  29.4554806  21.2448368  46.1046562  29.3574619
  21.2672882  44.8194580  28.5582428  35.8315239  33.0935249  39.8429909
  34.9698219  33.4713783  40.0188446  36.1297340  33.5365562  39.0486183
  28.7242355  19.9879456  21.4614067  29.5142708  19.7213364  20.9913063
  28.2849236  20.5954380  20.8662663  59.3134079  40.0681381  48.6099129
  58.8620224  40.8192749  48.2248497  59.2155914  40.1883659  49.5544815
  13.5144815  62.6944733  63.9119225  13.7879572  62.1545067  63.1703835
  12.9701681  62.1135216  64.4433823  81.3419647  61.6635132  27.5889702
  80.7997360  62.1889153  28.1773357  80.7201767  61.2735100  26.9745502
  59.1216698  69.1564713  88.2155151  58.1664658  69.1105804  88.1741562
  59.3171082  70.0934525  88.2054138  20.6395531  34.0056305  81.9179993
  20.1729126  34.4296951  82.6381760  21.5141869  33.8344269  82.2671967
  80.8480759  45.7707863  49.0037537  80.9376221  46.1266098  48.1196671
  79.9061813  45.7855110  49.1735992  47.4040070  38.0124245  32.2972679
  46.8855095  37.3608055  31.8252659  47.2230110  38.8361702  31.8445988
  51.8631248  23.7385139   3.2652438  50.9418602  23.4888763   3.3372447
  51.8480492  24.5821667   2.8132977  82.6031876   6.7813349  78.7910156
  81.8653793   7.0060048  79.3579330  82.6312866   7.4860907  78.1438980
  43.3917847  25.5703430  70.7403564  43.1843414  25.9251900  69.8759079
  43.6398354  26.3350296  71.2599335  66.0192719  64.3790359  24.3869972
  65.9354630  65.2761002  24.0637531  66.8751831  64.0895691  24.0709915
  57.1347122  63.7815247  75.1458588  58.0784569  63.6277466  75.1897659
  56.7480965  62.9061699  75.1685410  38.3124352  61.9993286  86.6910400
  37.7727203  62.4166107  86.0196075  38.0098228  62.3829384  87.5141449
  24.9550991  61.1003227   1.6379082  24.0654087  60.8462105   1.3927286
  24.8670368  61.9957809   1.9644538   4.2388272  47.3154907   4.5711260
   4.1196799  48.1953545   4.9287257   3.6366460  47.2753410   3.8281600
   0.0152504  34.4031410  39.8268280   0.0413704  33.4866333  40.1017151
   0.0993574  34.8998070  40.6407547  44.3253479  23.3933334  74.3684540
  44.1903076  22.4477596  74.4308014  44.9197083  23.5984917  75.0901794
  80.3404846  30.5380154   7.1217217  79.6906433  30.8389664   6.4866023
  80.8867874  31.3062687   7.2877655  34.9643517  53.1874390  21.3385429
  34.9473495  53.7118568  20.5379601  34.0554810  53.1790848  21.6387386
  82.3972931   2.6756392  74.2623596  82.1824417   2.1741307  75.0488434
  82.6359863   2.0133781  73.6137695  22.7277126  45.1822548  31.7255268
  22.1730843  45.2112999  30.9459267  22.4746914  45.9563904  32.2284470
  50.9896584  19.0715637  14.5673704  50.9380417  19.8979931  15.0475607
  50.8093872  19.3110867  13.6583252  77.5814285  32.1445923  88.2889023
  77.4193726  32.8645515  87.6792908  77.9446716  31.4465027  87.7439651
   8.3170567  36.4313774  19.7643585   8.8392010  35.9595032  19.1155663
   8.9388237  36.6514664  20.4580441   3.9088862  70.6724243  85.6415939
   4.5293331  71.3985748  85.7047119   3.7548606  70.5699387  84.7024460
  47.6345520  32.4978828  43.7447052  48.1300583  33.2006836  43.3242569
  47.4972878  32.8046417  44.6409683  67.6052704  28.5886517   6.1371222
  68.4978790  28.9141006   6.2535415  67.6223068  28.1398602   5.2918239
  26.2315159  65.5044861  76.5050964  25.4865246  64.9643250  76.7686157
  25.8395176  66.2396164  76.0337601  40.3916664  58.0184097  13.4321070
  39.7177277  58.5067024  13.9049816  40.8063965  58.6694527  12.8660879
  43.6148453  69.3252716  78.9847794  44.3791389  69.6040497  79.4891281
  43.7695656  68.3972092  78.8087311  48.7309227  29.4487858  67.5297623
  48.5079308  29.1052380  66.6646194  48.8845596  28.6698647  68.0644684
  33.8482857  69.6302948  71.4971924  33.2460709  68.9210739  71.2723007
  34.6370087  69.4455185  70.9872818  22.3953323  36.9779167   9.7304974
  22.1576252  36.5430870   8.9115658  22.6938782  37.8469429   9.4623613
  76.3240585  28.2591000  79.4189606  77.1306686  28.4128361  78.9270554
  75.6676178  28.7975235  78.9768982   2.4928861  25.8772049  60.4464531
   1.5687948  26.0572166  60.2735863   2.9530177  26.6490917  60.1167526
  25.2745380  35.8239021  74.1338577  24.6878071  35.7298431  74.8842773
  24.8475533  36.4740562  73.5759888  79.0317993  70.0345993  54.1481819
  78.5681458  70.8691559  54.2172890  79.6788635  70.1765900  53.4572563
  24.1976776  30.0327187   7.1390972  25.1035671  29.8264656   7.3694406
  23.8947887  29.2676983   6.6499825  67.8060837  62.4092598  77.8130112
  67.5557022  63.2025299  78.2865677  67.0972519  61.7908401  77.9900284
  80.8174896   1.4017485   7.5367870  80.8955765   0.5881715   7.0385628
  79.9002991   1.6567111   7.4368558  39.6255455  71.6843338  80.3951187
  40.2663383  71.0791016  80.7683716  38.7951202  71.2101898  80.4377441
  45.0268059  34.7728691  31.0415268  45.1406898  34.2953644  30.2197914
  45.2009926  34.1229477  31.7223282  27.5036011  17.4007778  85.8145218
  27.2373219  18.1958122  86.2763138  27.6380310  16.7547054  86.5078888
  82.0104218  52.0135727  55.5654678  81.4382248  51.2530899  55.4630432
  82.0419464  52.4086685  54.6941833  66.5298233  70.9596405  79.8626633
  65.6417465  70.7834091  79.5520325  67.0884933  70.4049606  79.3181839
  80.7764206  39.6307259  57.4204979  81.3275986  38.9223862  57.0877953
  80.2287827  39.8781891  56.6754570  11.6176958  51.8815765  54.4421997
  11.9704380  52.7667961  54.3517265  12.3453169  51.3685837  54.7938271
  64.5352631  21.5847416  19.8591290  64.7659531  22.0563812  20.6594830
  64.9103928  20.7122669  19.9786892  64.3758316  65.9154510  87.7261276
  63.9477234  66.5593948  87.1619492  64.3108978  65.0921936  87.2421265
  48.3399429  45.6552620  45.5384941  48.6689148  44.9809990  44.9440384
  47.4556427  45.8418427  45.2231598  52.8780518   0.3921496  17.1009731
  53.7503624   0.4406653  16.7098846  52.3888626   1.1014438  16.6840477
  48.7467346  18.5790310  28.6280365  48.8555641  17.9067822  27.9553776
  49.6337204  18.7432842  28.9482117  79.9861908  50.1768112  55.7461166
  79.9466095  50.4342957  56.6671867  80.0177155  49.2203369  55.7659454
  62.1748314  37.0045891  83.1579437  62.6043625  36.1921501  83.4256668
  61.3581238  36.7198563  82.7478790  67.1361618  30.6553307  71.2904129
  67.8023376  31.3390980  71.2203217  67.3443222  30.0447445  70.5832443
  85.5171661  63.4409294   2.7642765  85.2701645  62.5562096   3.0335245
  86.2543488  63.6668739   3.3314939  78.6420288  64.9609756  63.5522346
  78.5762100  65.4542770  64.3698883  79.5762939  64.7744370  63.4595947
   5.4888401  40.8031197  82.3061676   4.9236898  40.0961800  81.9945984
   6.3338714  40.3822060  82.4642334  71.2563705  27.0121765   8.5553837
  72.0829544  27.4414978   8.7760258  71.4559174  26.0766163   8.5891914
  48.6476784  58.7662506  84.1393127  49.3376694  59.1334381  83.5867538
  48.2147522  59.5298500  84.5210419  84.6865234  50.2483597  79.0700150
  84.0066986  49.6523514  79.3844070  84.3223343  51.1223946  79.2102509
  17.7989388  47.6143646  11.6232185  17.9113503  48.4673767  11.2037363
  18.5211792  47.0844994  11.2858171  49.8327141  58.3025551  67.9886017
  49.6782303  59.0966644  67.4769821  49.0402031  58.1990242  68.5153198
   8.4420881  37.2426453  72.1535950   7.7397733  36.6149178  72.3237228
   7.9933362  38.0816765  72.0493011   5.1691351  45.1330032   6.0211754
   4.7742424  45.8749809   5.5631809   5.7834477  45.5314941   6.6376610
   4.9772010  11.3658638  86.9570160   5.5709076  11.9558716  86.4926529
   4.1284904  11.4991093  86.5349121  60.1567192   3.1862655  41.5418701
  59.7352867   3.3714821  40.7026329  59.5511703   3.5349185  42.1960754
  52.5619507  56.7549438  47.9102783  51.9149666  56.8756104  48.6053162
  53.2642937  57.3678284  48.1278114  26.4077759  57.0631752  86.0632553
  26.1169052  57.5080719  86.8593063  27.2015476  56.5970879  86.3257828
  52.3080940  66.3645782  50.2003822  52.0770340  66.8451080  50.9953232
  53.0358009  65.8013687  50.4639511  31.0088310  19.2131672  12.9024992
  30.2704544  19.4557266  13.4612455  31.4963360  18.5690727  13.4160290
   3.6123705  55.7478104  82.7204285   4.4182291  55.2613869  82.8942566
   3.6032248  56.4401550  83.3813400  51.2540398  64.5233459   2.5700417
  50.3521538  64.2675323   2.7634184  51.1892395  65.4364090   2.2901433
  40.8634148   4.1406498   5.3465691  41.4398994   4.8998423   5.2598419
  41.4282570   3.4491765   5.6916041   2.6829743  55.0195084  34.1670570
   2.1538012  54.5158272  33.5485802   2.1853447  54.9939499  34.9843330
  85.3496475  59.4086266   8.8797483  86.0851288  58.8081856   9.0013142
  85.4335632  60.0382195   9.5958509  40.1345406  58.7038155  36.5753670
  40.7892418  58.7617760  37.2712364  40.1784058  57.7942543  36.2803993
  35.0179825  48.0047188  75.2094116  34.8607788  48.3693695  74.3384628
  35.6010208  47.2612152  75.0561142  74.2953644  71.2529297  67.8732758
  75.0338287  71.7770844  67.5631790  73.7048874  71.2027359  67.1215744
  46.8601723  70.7314148  88.8345337  45.9755592  70.5688400  88.5070190
  46.8658524  70.3458099  89.7106094  37.9408493   0.6635329  60.3496513
  38.3529701   0.6744342  61.2135201  38.2486458   1.4654802  59.9273071
  55.3858871  68.9100189  34.5232315  55.2873192  69.4868317  35.2807312
  54.9320984  69.3659134  33.8143806  75.3589859  19.0958748  48.8984756
  74.5508728  18.8549480  49.3514061  75.3967056  18.5058041  48.1457329
  35.0225410  68.8231277   2.9500434  35.1499481  68.2314072   2.2085140
  35.4331131  69.6430588   2.6754823  23.1482468  34.8353119   0.1056491
  22.2248154  35.0818901   0.0536132  23.1967201  34.2459106   0.8583052
  79.8201675  46.3941917  67.5953293  80.2549210  47.2026367  67.3239670
  78.8969955  46.5369720  67.3865280  19.1762676  31.8584213  85.1071472
  20.0362968  32.2711487  85.1861420  19.3284588  31.0914879  84.5549850
  30.0299034   1.7800820  66.9157486  30.6802483   1.6515851  67.6062393
  30.2138004   1.0871077  66.2815552  84.5501938  48.9068985  26.0831184
  83.8496246  49.0830040  25.4550838  85.1583633  48.3386459  25.6104164
   4.0295620  26.4800777   3.6179585   3.4776793  25.7250996   3.4138415
   3.4129462  27.1634674   3.8806303  74.4187241  31.7265625  27.1394405
  74.9951096  32.2708435  27.6758766  73.7717285  32.3377228  26.7871456
  29.7171535  53.1893272  38.0224686  29.9266548  53.4843521  38.9086380
  30.2607479  53.7345581  37.4537277  57.0207329  67.0573654  82.8873138
  57.9676247  67.1364517  82.7716904  56.7068443  66.7013550  82.0560760
  46.4208794  37.3980598  48.0841942  46.3265152  37.6439018  47.1639290
  46.0939941  36.4994125  48.1267700  41.6673584  62.1140594  20.3902111
  42.0880432  62.6477470  19.7160950  42.2412338  61.3540764  20.4867687
  56.3095169  32.1104774  71.0342941  56.6638718  32.6774216  70.3492813
  55.5725021  31.6636486  70.6179047   9.4169159  63.0100555  60.2996521
   9.0596294  63.8049812  59.9038353   9.1016970  63.0298958  61.2032433
  69.5973816  57.5857658   8.2274714  69.0121536  57.3391304   7.5112929
  69.0144424  57.7397995   8.9708977  29.0071468  47.3056259  71.1766281
  29.9621525  47.3347206  71.1187515  28.7144337  48.0809288  70.6976166
  20.4414654  52.0322762  51.0735893  20.7824726  52.7594376  50.5528336
  20.4076138  51.2957306  50.4631920  80.5509033  54.7560844  14.6012087
  81.0965424  54.0332451  14.9110689  79.6975708  54.6030464  15.0069609
  39.4760857   5.0846858  72.2242126  39.4312744   4.2105966  72.6117554
  40.3639984   5.1452112  71.8718185  75.4528961  42.7980118  29.5961876
  75.7877731  42.1166000  29.0132942  75.7593689  43.6173935  29.2077065
  76.5367355  40.8270073  61.5402031  76.8249741  40.2258148  62.2270164
  76.6019363  41.6948662  61.9387054  68.7509232  31.7598896  24.0359421
  68.4006729  32.3560638  24.6978588  68.8767471  32.3087006  23.2618580
  30.6718559  55.5221481  30.0756130  30.4571228  55.3773193  30.9971046
  31.3254490  56.2213402  30.0890160   0.8632000  52.9595451  79.9656296
   0.2975815  52.5862389  79.2896500   1.4213437  53.5790710  79.4956284
  22.8832054  48.4942474  25.3311729  23.1713676  47.6743698  25.7324123
  23.6145058  48.7574844  24.7724800  71.7967148  34.7438202  35.5691414
  71.7344208  34.3903923  34.6817627  70.8875809  34.8643799  35.8433075
  35.1628380  43.5732040  71.0692215  35.4060097  43.2455559  70.2033463
  35.9967842  43.7893333  71.4864197  71.8749161  65.9462738  75.1967697
  71.2435074  66.3419952  75.7975616  71.9006805  65.0235443  75.4500198
  36.5470772  49.1607361  76.9922028  35.9106178  48.8838043  76.3330688
  37.3415031  49.3506279  76.4931488  52.7215347  30.0961380   3.7042959
  53.3660469  29.4797497   3.3565848  51.9886093  29.5459023   3.9805055
  62.4828568   0.1789707  60.3936462  61.6556015   0.6501088  60.4931831
  62.2814827  -0.7177463  60.6611900  64.1935577  53.0578232   1.8868258
  64.5572739  52.4543571   1.2389288  64.8647995  53.7325172   1.9890741
   4.5464039  32.6191483  37.9272270   4.5198960  32.0629272  37.1486740
   5.3221989  32.3256531  38.4049683  10.0468063  24.3866901   6.8935800
  10.2718649  23.5674438   7.3345089  10.8879423  24.7451744   6.6103644
  63.0178947  47.8219833  22.4344673  63.0212555  48.7241287  22.7543945
  62.3600426  47.3799667  22.9712009  85.6635361  47.6378288  78.0804749
  85.7238617  47.9769096  77.1873779  85.6188507  48.4196091  78.6309738
  35.7688408  23.8537331   1.9589117  36.6104584  24.3090096   1.9337232
  35.4991608  23.7979794   1.0421808  76.4563904  40.5678940  66.6720428
  76.8203278  39.6830254  66.7000198  75.5677490  40.4723244  67.0147018
  82.5304947  58.5137558  63.4915047  83.3256226  59.0113106  63.3006134
  81.9300919  59.1570206  63.8682823  22.8673973  28.6117725  82.0085602
  23.5669956  28.1533546  81.5431061  23.2065334  28.7283459  82.8960495
  24.5172386  42.2513313   1.1215066  23.7567997  42.0345726   1.6609319
  24.8528137  43.0654831   1.4967154  53.2616119  30.1896629   0.6742256
  53.5053520  30.5611057  -0.1736262  53.8131523  29.4123497   0.7626440
  19.7538471  47.3396111  43.9468575  20.5983162  47.7105064  44.2028618
  19.3630962  47.0436745  44.7690315  54.4645271  31.8659115  30.5903969
  55.1500015  31.2507229  30.8509731  54.9360733  32.6664009  30.3599758
  11.6611786  69.3290176  86.0377121  11.2568007  69.9782486  86.6132278
  11.3813238  68.4858017  86.3939362  19.2657776  66.2307510  28.5715160
  19.2879372  66.4768524  27.6467571  19.3558350  67.0594101  29.0421085
  61.9916840  17.6647205   9.6140852  61.6516457  16.8797073  10.0434599
  62.0395317  17.4292507   8.6875343  21.2615509  39.8114243  19.9880543
  21.8708935  39.8998260  20.7209396  20.4148960  39.6389885  20.3999691
  50.1378632  56.5619202  76.0739670  49.5275002  55.8283768  76.1488266
  49.7194595  57.1593399  75.4540787  68.0326309  68.6641464  57.7066383
  68.6312943  68.9868774  57.0330772  67.2362289  69.1815186  57.5870552
   0.4917182  31.0365009  51.3616791  -0.2318895  31.1913490  51.9688416
   0.0668777  30.7798557  50.5432205  47.1290169  41.9977989  26.9274235
  46.9389877  42.8014679  27.4114037  47.4903641  41.4024925  27.5841351
  20.4423885  63.7671509  38.1270256  19.8892307  64.5280075  38.3040810
  21.0677948  63.7519302  38.8515053  72.1962662  58.7571449  80.9161682
  73.0138626  58.6337013  81.3983765  71.7411346  59.4529037  81.3905182
  62.6560822  64.2420197  80.0761566  62.8048973  65.0622711  79.6057510
  63.4406395  64.1277542  80.6124802  58.9553795  56.5752144  21.1371994
  58.9095917  56.5755272  20.1810951  59.8024445  56.9739265  21.3365517
  81.4180450  29.8523502  57.6680527  81.3278809  30.6447315  58.1974258
  81.0123825  30.0764008  56.8305168  69.7823105  -0.1045651  51.0979958
  69.9359131   0.7487105  50.6923332  69.9901886   0.0289784  52.0227585
  51.4026108  42.4425278  17.5517178  51.7606850  42.4794540  16.6647835
  50.4717827  42.6371155  17.4425087   9.5136137  33.3136864  59.6151314
   8.7189741  33.2429161  60.1440659   9.5488262  34.2349930  59.3578644
   3.1441998  67.8903275  18.8714504   2.5662711  67.4908829  19.5215874
   4.0090780  67.5290985  19.0657005  73.2344131  38.3935852  86.1183853
  72.8411789  39.1490135  86.5553436  73.0357361  37.6542969  86.6930313
  49.1118507  21.8129883   7.2127061  48.2745705  21.9180584   6.7608771
  48.9099960  21.2562122   7.9646950  25.7626266  21.5213699  20.2628174
  26.0902386  22.3479595  20.6172924  25.1984043  21.7801151  19.5341644
  14.1613722  43.2674255  74.6248093  13.7373428  43.6209793  73.8428650
  14.4382086  44.0401382  75.1172638  20.9513378  54.5804291   1.0960016
  20.3519077  53.8972969   1.3964143  21.2813187  54.2577133   0.2574316
  72.8158722  11.8704262  82.1691513  72.6056290  12.5765619  82.7802124
  73.5982285  12.1759882  81.7100449  63.8674355  48.5156555  51.6254845
  64.3723831  47.7386665  51.8653717  64.4958572  49.0801125  51.1752548
  65.6939468   8.6409559  75.4721603  66.1705093   8.2632675  74.7329254
  66.3740311   8.8581276  76.1097717  80.5833740  22.8111038  63.8937492
  79.9336014  22.7037029  63.1991386  80.7021637  21.9302006  64.2488937
  38.0230827  34.5285950  19.5413418  38.3748512  33.6569405  19.7222042
  37.0984840  34.4683266  19.7815857  42.1937637  65.5465240  44.1371384
  42.4709930  65.2256775  44.9952965  42.8758278  66.1677017  43.8818817
  41.1737747  34.3376541  63.3822212  40.6007500  34.1118164  62.6495056
  40.7160492  35.0461578  63.8347054  69.9590988  60.5218620  10.7067690
  69.3717651  61.1825027  11.0739574  70.7233734  61.0176163  10.4129324
  75.8320999  67.4753647  15.8980427  76.6455154  67.8750381  16.2060013
  75.2445374  68.2153702  15.7451124   2.4946303  42.3019524  43.3531532
   1.8264951  42.5173607  42.7024384   2.7480464  41.4021301  43.1473961
  26.8593330  63.2892265  51.0335541  26.6481953  63.3349953  50.1010513
  27.3777237  64.0763550  51.2006683  50.1246681  48.9419746  70.4218826
  50.6103783  48.1792068  70.1080322  50.7192650  49.6788712  70.2816162
  46.2584381   4.4634557  13.4393206  45.5522728   3.8533332  13.6521883
  46.0917397   5.2256341  13.9938726  54.3100929  29.4331131  68.3009949
  54.7071953  29.2870903  67.4423828  53.6185265  28.7739792  68.3602600
   8.7733822  31.4641476  67.2033157   8.2255507  30.7186852  66.9575577
   9.3344679  31.6104279  66.4417267   7.4428072  36.3022804   9.4776201
   7.3647552  37.1306229   9.9508934   8.2796593  36.3672409   9.0175228
  74.3909760  48.8536797  69.6128693  74.6362534  49.2606773  70.4437866
  74.3647003  49.5793800  68.9892502  13.5282440  52.8824348   0.9640074
  14.3252068  52.9848671   1.4841909  13.0470695  53.6986961   1.0997388
  21.2803230   7.6519604  19.9674873  22.1182785   7.3404164  19.6254292
  21.4486942   8.5585022  20.2245178   0.7523238  66.6089706  14.1660671
   1.2882072  67.2588806  14.6206884   1.3781167  66.1022263  13.6485519
  47.7768822  28.5287075  65.1095581  48.0648727  28.0017815  64.3641434
  46.8639297  28.7403851  64.9147644  79.5371323   5.0290279  32.5490532
  80.2293701   5.4209185  33.0814629  79.7435074   5.2962875  31.6533890
   6.5309567  46.3785133   2.9218385   6.3332834  45.4427071   2.8841276
   5.7415309  46.7754173   3.2899470  16.5170860  56.3835831   6.0175104
  16.2402630  56.1731453   6.9093161  17.1949539  57.0502739   6.1281700
  57.4422340  18.0517139  59.2437477  56.5416374  18.3544827  59.3598938
  57.3932610  17.4261055  58.5209427  37.9634857  38.4582443  84.0161896
  37.8618927  38.1490364  83.1160202  37.7157173  39.3821678  83.9814682
  20.9446182  35.9994278   7.8935256  21.2294807  35.5473289   7.0993648
  20.3109989  35.4040451   8.2938709  48.4662514  12.4050436  21.7333107
  47.6545830  12.8343811  22.0036774  49.1378670  12.7834082  22.3007622
  45.0737457  33.6235809  77.9838562  44.7434769  32.7909660  77.6463547
  45.8103676  33.3795738  78.5442810  33.5677109  61.3594284  15.3471889
  33.4832039  62.1969566  15.8028612  33.1781693  61.5145493  14.4867077
  73.7635880   6.2373948  66.0333328  74.1278458   5.3702292  66.2110138
  73.2275467   6.4340305  66.8015900  41.6963959  50.6323471  30.0739403
  41.1172714  50.3421593  29.3692150  41.3049011  50.2716904  30.8694859
  83.2534027   0.5802873  31.4821720  82.8808136   1.4472629  31.3216705
  82.6871338  -0.0177989  30.9944553  54.5161438   3.7311528  68.3422546
  54.9579468   3.0078297  68.7870483  53.6303215   3.7300858  68.7049561
  84.4605331  59.6372833  39.9645271  84.5835114  60.5738258  39.8096123
  84.7338943  59.5067902  40.8725357  52.6264839   8.5265074  50.8378143
  52.2534485   8.5232553  51.7193260  53.5621605   8.6752758  50.9742432
  34.7151260  68.0210724  66.1179352  34.2556725  67.5843582  65.4007034
  35.6078224  68.1396866  65.7935028  37.0028839  46.5653877  41.2578735
  37.6455307  46.5084572  41.9649773  37.0767670  45.7285385  40.7991219
  32.6878014   1.7960877  40.2992287  33.3966522   1.5467272  40.8921738
  32.6522598   2.7509048  40.3566170  80.4366684  16.9729099  78.5336456
  80.4645844  16.4468212  77.7344666  79.5832672  17.4055424  78.5059128
  75.3712921  57.8745499  53.1917152  75.2771530  56.9240074  53.2536888
  75.4030838  58.1718712  54.1010132  50.0303154  21.1370430  43.2955475
  50.4818764  21.0099945  42.4611740  50.6207924  20.7593365  43.9473953
  23.1580143   8.7922478  68.0263977  23.5981255   9.0674706  67.2221680
  23.5363865   9.3471432  68.7084274   7.5138297  52.7964706   8.9932022
   8.1324806  52.1256065   9.2820663   8.0600767  53.5578651   8.7979393
   7.2604451  18.5387650  58.6937981   7.0215721  17.8783646  58.0433807
   6.8614874  18.2293129  59.5070038  74.1747437  12.9811497  47.7664452
  74.0715714  12.0784674  48.0676956  74.4017410  13.4726276  48.5558472
  43.3305092  39.9196014  17.9571857  44.1511765  40.4078751  17.8914299
  43.1994934  39.5525360  17.0829258  79.7016525  31.7210064  49.6778374
  79.5445023  32.0988464  50.5431519  80.1833420  30.9126682  49.8533325
  79.4590912  70.9408569  86.2266693  80.0380096  71.5020599  86.7425537
  79.0107193  71.5418320  85.6316681   7.1277370  69.8032227  61.8752022
   7.1671662  70.7397766  61.6814384   7.1942463  69.7529144  62.8287621
  69.4270325  29.0546532   1.1566027  69.7656174  28.6444569   1.9524233
  70.1116867  28.9111042   0.5032426  78.8865814  32.7569008   1.5395665
  78.2474747  32.3282127   0.9703638  78.6052856  33.6713448   1.5694796
  48.5166702  70.0040894  44.1187477  48.9829788  69.7578583  44.9175949
  47.8061028  69.3664474  44.0499878  13.0177879   1.0507005  10.7904425
  12.4840298   0.6047119  11.4480352  12.8579168   1.9819412  10.9436226
  12.7407379  57.1475601   6.9209046  12.1834440  57.6454849   7.5190063
  13.4988775  57.7129555   6.7733064  75.6597824  28.7670918  33.4564590
  75.4616089  28.1510544  32.7511520  76.1550980  29.4670105  33.0310020
  63.9521790  50.7724800  46.5782471  64.0982208  50.2491531  47.3663025
  64.5914001  51.4822617  46.6402168   0.5948431   4.5356197   9.1011772
   1.5096569   4.4939213   8.8225937   0.5929077   4.1470075   9.9759398
  15.0467234  25.0219173  71.5921097  14.8783894  25.9622936  71.5322113
  15.9196167  24.9103851  71.2154846  12.2103844  44.4594383  43.7950821
  12.9778175  43.8991241  43.9105186  12.4092607  44.9807587  43.0173264
  60.8299522  47.6497192  14.5250282  60.3309898  47.7586784  15.3345919
  61.3566208  46.8640976  14.6721802  58.9812737  50.2327652  32.4827652
  58.5396881  51.0809441  32.5254936  58.8898735  49.8704872  33.3640327
  67.8474579  31.4194202   2.1108518  67.6907501  31.7213917   1.2161520
  68.5165863  30.7408867   2.0208828  47.7372093  30.2836399  36.7391243
  48.0398216  29.8732319  35.9290466  48.2665939  31.0772324  36.8178329
  81.0069351  20.6875725  85.7233658  80.4838715  21.4585209  85.9430847
  80.5028992  19.9501591  86.0674667  32.2635078  41.4051819  82.4672852
  32.8573189  40.7734451  82.0616684  31.6674805  41.6600418  81.7629929
  19.2752705  11.1808987  15.6068268  18.5454350  11.2763004  14.9948874
  18.8734264  11.2555666  16.4723778   3.1511874  45.3782425  51.1087456
   2.2058339  45.2464409  51.1806297   3.5061052  44.4993210  50.9754753
  33.4587936  50.4808388  32.2676735  33.2695160  51.0265388  33.0309677
  34.2610588  50.8522568  31.9007263  34.9599037  23.7529583  68.8922043
  35.7180977  23.2283535  69.1494293  35.3233185  24.4431973  68.3374634
  57.4895210  19.7585754  64.5000458  56.5325470  19.7788181  64.4954529
  57.7349625  19.8270397  63.5773811  43.2712669  61.1866798  66.1838303
  42.7726669  60.4536324  66.5447617  43.4665527  60.9237518  65.2844086
  75.7978592  44.1725082  13.5716047  75.0321884  43.9661522  13.0355072
  76.4759216  43.5720215  13.2619658  78.0776443  26.0486546  63.5904961
  77.9011078  26.9767532  63.7444305  79.0325699  25.9827347  63.5937424
  33.2948418  43.7033882  84.4154587  32.5371513  43.1731758  84.6624603
  33.2789574  43.7126503  83.4584351  45.5112190  24.4794025   1.5506482
  46.3697815  24.8910027   1.4522225  44.9957275  25.1160717   2.0457749
  56.2993240  42.0924721  72.9127960  55.9793472  42.7312622  73.5498199
  57.0388069  42.5273743  72.4882278  35.7277718  51.8027000  67.8427429
  35.1214066  52.5272713  67.6892700  36.0996552  51.9804878  68.7066422
  83.3112030  68.2325134  76.5564651  83.6867676  68.9198532  76.0062408
  83.9074860  68.1705170  77.3026810  46.5580139  45.4965363  13.9980297
  46.5783310  46.2819405  13.4512587  46.0775986  44.8537865  13.4762011
   7.4702816  70.0082016  58.0951996   7.6011472  69.2242508  58.6286125
   7.3949742  69.6787262  57.1996536  82.0262222  60.3005333  11.7329845
  82.2644348  60.1548347  10.8174210  82.7887726  60.0029373  12.2291527
  29.3671741  32.5678177   0.6848585  29.1476345  32.6048164   1.6158069
  28.8021965  33.2254562   0.2792198  57.1922722  13.8170576  50.8394547
  57.5881195  13.3766680  51.5915146  57.9041595  14.3343658  50.4628334
  81.6905136  10.1638250  30.9732914  82.0006561  10.2254295  30.0698261
  82.1715698  10.8479919  31.4388371   2.3420138  70.8036804  62.4087563
   3.2921464  70.7805786  62.2949753   2.2149434  71.1486664  63.2925377
  44.4295273  16.1141949  42.5706482  44.3433990  15.7018776  43.4301872
  44.9488640  15.4942636  42.0585861  75.4921341   1.2969881  80.2794800
  76.2526321   0.7967251  80.5754623  75.3517990   1.0083827  79.3776779
  79.8708267  66.8214645  83.2096252  80.7742844  67.0708389  83.0151672
  79.9102249  65.8770599  83.3605347  17.1384773  22.6152630  76.2286377
  17.9186573  22.0775146  76.3642044  17.1742573  22.8604259  75.3040619
  26.2871685  42.4247284   4.5135722  26.8266525  43.0394287   4.0162435
  26.6291084  42.4739037   5.4062595  61.1371231  31.8994675  71.6327209
  60.4222679  31.4342384  71.1982422  61.5848160  31.2260456  72.1448822
  81.0164108  12.4068518  62.9207878  80.2779999  12.3953857  62.3118134
  81.5180283  13.1839590  62.6743851   2.7190034  51.5390511  65.9223709
   1.7628162  51.5754128  65.9471741   2.9763887  51.3825760  66.8309402
  44.8512001  47.6035309  66.1133041  44.6460686  46.6775703  66.2427444
  45.0526009  47.6760902  65.1803513  44.3669395  60.3311920  77.8960114
  44.2890472  60.8589935  77.1012802  44.5530853  59.4473152  77.5792313
  50.0058441  68.9760361   6.7774177  50.6241684  69.6990128   6.6715302
  50.4895630  68.3184280   7.2772131  56.4297485   8.8950481  36.1760979
  55.5613518   8.9343796  36.5768166  56.9823837   9.4261637  36.7494583
  75.3736572  53.9600754  41.3239250  76.0954666  54.0202980  40.6981468
  74.8379669  54.7333107  41.1468048  66.2694778  44.9771805   4.7309957
  65.7682724  45.3378258   5.4624047  66.8966522  44.3815613   5.1410160
  23.2555103  23.1128578  44.0634041  23.0367794  23.1771240  43.1337509
  22.4244919  22.9065323  44.4912720   9.8042746  71.1378403  74.5657883
   9.3911943  70.3773956  74.9748306  10.5567093  70.7779770  74.0961380
  26.6117516  16.5860519  29.4789486  25.9166260  16.7232304  28.8353519
  26.3157902  15.8361597  29.9949894  41.5085487  31.4359722  12.0866451
  41.9557304  30.7651119  11.5706968  41.7596588  31.2493668  12.9912729
   3.2391758  26.6650143  68.9201126   4.1281986  26.9112930  68.6647415
   2.8003237  27.4978714  69.0932922  69.2610550  15.7802782  45.0679359
  68.8418961  15.2794008  44.3681793  69.4183426  16.6428509  44.6839294
  72.3738937  54.6612511   4.2346635  72.6126251  55.1763992   5.0052867
  71.4579163  54.4240685   4.3794751  61.2987061   6.2960420  59.9152336
  62.2198372   6.3580232  59.6624298  60.8472366   6.8994236  59.3250313
  30.1819229  71.0257034  33.4844894  31.0904942  70.7324677  33.5533600
  30.0394382  71.5509872  34.2718925  68.9900284  53.7768593  54.1336708
  68.9949036  54.0901985  53.2292213  69.9140625  53.6473465  54.3472672
  75.2134552  57.0067101   3.1254106  74.8776016  56.1867371   2.7633626
  75.9391708  57.2439575   2.5481067  23.1884766  26.2463665  16.7363415
  22.3150158  26.1565685  17.1174412  23.7857895  26.0376663  17.4545994
  32.4363136  12.7974691   3.0838156  32.0134277  12.8363752   3.9416540
  33.3481140  13.0328808   3.2553718  71.5702133  50.0993118  76.7956314
  71.7917786  49.9081039  75.8842621  72.2955933  49.7318420  77.3006287
  34.4897652  47.3270531  64.2259369  34.5478516  46.7231407  64.9663086
  35.1358948  48.0062103  64.4195709  53.4215393  34.4190483  57.2281494
  53.8553467  33.6652603  56.8283424  52.5200119  34.3732414  56.9097443
   8.9180937   7.5980310  27.0529881   8.1710291   7.2513556  26.5651951
   9.4508047   6.8285804  27.2539768  36.5054131  61.7208633  26.9218597
  36.9232750  60.8982811  26.6669445  36.9342003  62.3847466  26.3818321
  69.8334198  69.8902130  56.1175728  69.7229004  70.4538422  55.3518410
  70.6424408  70.1976242  56.5264854  19.1470451  69.7511826   8.2441978
  19.6924286  70.5331039   8.1582375  19.4167175  69.1899643   7.5171895
  40.7772865  37.0885239  19.8179779  40.7461014  36.7373543  18.9280682
  40.4547882  36.3749619  20.3684826  38.4372711  67.0952835  48.8958702
  38.4567986  67.7247009  48.1749802  38.1334190  67.6025620  49.6485786
  72.5363312  49.8302002  59.0184212  73.1640091  49.3223419  59.5325508
  73.0291443  50.5982513  58.7295265  55.3065453  13.0805655  31.8718586
  55.1394463  13.3083458  32.7864227  55.9715233  12.3933449  31.9138355
  50.7292824   9.1042490  77.9952393  51.3144608   8.8076582  78.6922607
  51.3114662   9.3015556  77.2615128  45.3577766  35.4756432  26.5192719
  45.2390480  35.0296211  25.6807022  44.9907951  36.3487015  26.3802605
   2.9283264  56.9525642  78.4507217   2.2303145  57.5255089  78.7681274
   2.7527583  56.8571281  77.5146103  68.8068771   9.1230764  50.1433601
  68.8492813   8.7331553  49.2702065  68.0071869   9.6490068  50.1322212
  15.3827868  10.4678850  70.5708237  14.7055321  10.0160313  71.0742035
  16.0045376  10.7772322  71.2295837  41.8400917  62.1234360  59.8971939
  42.6316490  62.0940704  59.3597870  41.1268959  61.9499168  59.2828026
  12.0924501  62.6226463  80.7015457  12.6107550  63.0536461  80.0219650
  11.4448977  62.1087074  80.2190781  53.2900467  34.2344360  39.1024628
  53.6784172  34.4178886  38.2470436  53.8768120  33.5902977  39.4987297
  80.6342621   8.1751060  84.4393539  80.8115692   7.4864068  85.0800476
  79.8063736   7.9175458  84.0337753  19.5847931  44.5755157  65.9908600
  18.9471397  44.5958672  65.2772675  19.0548248  44.4888802  66.7832336
  19.2651768  26.8241119  16.6370754  19.4212990  27.7540359  16.8016930
  19.1240044  26.4475136  17.5056801  32.4056396  62.3492393  63.1198578
  31.7730007  61.6326370  63.1696892  31.9660053  63.0867157  63.5430336
  73.9879913  32.8586349   7.1160870  74.4144897  33.6910629   7.3195481
  74.6597214  32.3501129   6.6617460   2.3447714  54.1684608  12.8162403
   2.3065627  53.2136002  12.7613907   2.4538541  54.3505783  13.7496033
  26.5422859  70.3188782  48.7006493  26.7084808  71.1165466  49.2029800
  27.3426208  70.1843338  48.1931114  30.6028137  62.8554955  30.8638668
  29.8707504  63.4693222  30.8044643  31.3714695  63.4111862  30.9927406
  20.9851189   2.4660835   3.0321605  20.0644627   2.6490536   3.2196379
  21.0577507   2.5524855   2.0816391  34.9124298  66.2770004  82.9602356
  34.1293373  66.6751556  83.3403244  34.5788879  65.7052612  82.2687912
  80.6446915  53.9896164   1.9373200  80.5807190  53.0980072   1.5950130
  81.1622009  53.9022903   2.7378163  61.5028076  52.5755692  38.7358894
  61.2533340  53.1137123  39.4871559  61.6799812  53.2061386  38.0378723
  60.2570992  23.8652000  51.1430817  59.7182045  24.2281570  51.8459969
  59.6437073  23.3645744  50.6051674  64.9017639   2.5422156   8.6223602
  64.2544174   2.4107845   9.3151045  64.5194550   3.2178149   8.0623312
  32.3173218  66.2847977  21.1130447  31.6766758  66.2773361  20.4018841
  32.0262184  66.9907150  21.6902561   8.8100109  61.2501869  57.4964027
   9.0831842  61.3088951  58.4119148   9.2829962  61.9584084  57.0594368
  13.8206568  35.7361031  38.8554230  14.1841574  36.3884811  38.2566681
  13.0612745  35.3826180  38.3921547  11.9819574  59.3924446  57.2326584
  11.3557186  59.5130424  57.9464569  12.7360954  58.9705544  57.6443825
   3.7148643  64.6217499  31.2597160   3.2434156  65.0285492  30.5327473
   3.0744612  64.0350571  31.6620884  13.1764908  61.5745735  86.7163391
  12.2259035  61.6853447  86.6977539  13.3190317  60.6774712  86.4144669
  18.4972115  67.1225967  32.7224083  17.7030239  67.5268173  32.3729820
  19.2067471  67.4999924  32.2024460  44.3753510  40.6327629  73.4013977
  45.3135681  40.5885391  73.5858536  44.1009865  41.4781723  73.7566986
  84.5998230   6.7140255  56.0416679  85.2041626   6.8012271  55.3045082
  84.0820770   7.5189095  56.0234261  30.5131493  22.8815632  13.9533873
  30.4514847  22.5561199  14.8514490  29.6039829  22.9639416  13.6655293
   8.6333427  60.1159744  51.6708374   9.4145737  59.5630913  51.6858711
   8.8263969  60.8202477  52.2896805  68.9147339  33.8082314  80.7109909
  68.4429245  32.9810944  80.8083420  69.7852707  33.5529099  80.4056931
  76.7826309  66.3812714  32.8817902  76.5098190  66.3485107  33.7987061
  77.4725342  65.7212830  32.8134422  74.9545975  38.2583122  50.4665298
  75.1771240  37.3325386  50.3682442  74.9332962  38.5958977  49.5710907
  59.9685020  32.0665703   9.1821785  59.1696701  32.4406815   9.5538540
  60.0092468  32.4225769   8.2945795  67.3046036  14.0893564  37.0836258
  67.8776474  14.3277464  36.3549080  67.4636154  13.1550140  37.2176132
  18.2001514  28.9989586  79.7640610  19.1101894  28.8209896  80.0015259
  17.8381004  28.1408863  79.5430145  79.5658264  10.6339779  44.5038757
  79.1217651  11.0664024  43.7744560  79.8181915  11.3488016  45.0883179
  47.3054810   5.1094947  18.8467274  47.0115280   5.4768190  18.0131226
  46.9483604   4.2214613  18.8563728  43.6683044  14.7185936  11.3484468
  42.9467850  14.7018614  10.7196684  43.4563942  14.0263510  11.9746466
  40.0476494  -0.0431970  84.8270645  40.1793289   0.6088935  84.1388321
  39.5625763   0.4223037  85.5084229   6.1096883  31.7011929  30.5786991
   6.8131657  31.2909870  31.0817719   5.7163706  32.3289642  31.1848640
   3.4210927  44.1832237  87.4897995   3.1934063  44.9619598  86.9819031
   3.6356807  44.5191536  88.3600540  83.0561447  61.1334953  81.9335709
  82.7512894  61.7088776  81.2319794  82.3749924  60.4651451  82.0081940
  36.3939781   3.8500149  66.7879639  37.1197281   3.7116628  66.1793747
  36.8150024   3.9735093  67.6386795  70.9588242   8.5110407   0.8593883
  70.4040833   9.2759352   0.7063106  71.3006058   8.6363592   1.7446634
  51.1958504  20.4495487  20.6605110  51.0556030  20.1125813  19.7756290
  51.7160606  21.2431755  20.5349331  62.5902252  10.0396299  70.1548843
  62.3273354  10.8975334  69.8215408  63.0860672  10.2334366  70.9503860
  84.1067963  13.0140352  18.4938431  84.7543106  12.8158941  19.1703815
  83.5937347  13.7357244  18.8573818  70.0793152  51.6267242  62.2653580
  70.4515533  51.7833595  63.1331902  69.1965485  51.9936447  62.3135948
  63.7673416  25.6472435  74.1199265  63.4412727  25.0853996  73.4169006
  62.9776077  25.9865437  74.5411530  57.3946991  32.8601608  37.8350906
  56.7159996  33.3222733  37.3431053  57.7764168  33.5294075  38.4031029
  63.4793549  51.4745941  73.8767166  62.6184158  51.0884438  74.0376740
  63.3033257  52.2232246  73.3068085   8.2870865  50.9872322  12.5207062
   8.5984774  50.0983009  12.6912012   8.4651794  51.1292076  11.5909986
  73.2292099  68.9664688  20.1698914  74.1827240  69.0302124  20.1153145
  72.9108047  69.7518082  19.7248173  62.0498962  18.8847542  38.4132118
  62.3795013  19.6694565  38.8512039  62.4579201  18.1582508  38.8843155
   7.4712138  65.7575836  63.5236511   8.3552847  66.1243668  63.5347977
   6.9608817  66.3456879  64.0803604  72.5522156   2.2222497   2.2764769
  71.9790421   1.6502305   2.7868667  73.3514099   2.2885427   2.7990916
   5.7225409  16.5706120  76.9480743   6.2040992  16.1440430  76.2392960
   5.6732368  17.4896145  76.6849518  56.7377586  65.7310638  73.2447281
  55.8543816  65.9942398  73.5028305  57.0174866  65.1255569  73.9312744
  85.8572464  18.3427048  72.3905945  85.9594421  18.8216190  73.2130432
  86.7487869  18.2509613  72.0544815  71.3848114  60.4613304  22.6271305
  72.2980652  60.3757820  22.3534908  70.9713058  60.9663696  21.9270020
  17.1607227  55.7276115  18.3870010  18.0237637  56.0071068  18.0815887
  17.2386055  54.7791328  18.4897480  64.8636169  36.3984222  20.8000298
  65.0361938  36.2950096  21.7358475  64.8039551  37.3449593  20.6706467
  84.2713470  24.3709049  27.0890522  85.1576538  24.7277107  27.1471920
  84.0315170  24.4741631  26.1681538  19.0697651  14.2122135   5.9421515
  19.0320168  13.6175060   5.1930656  18.6396980  13.7329464   6.6503730
   9.1320877  49.7634163  17.3660069   9.1170931  50.1472664  16.4892693
   8.2119226  49.7265587  17.6271000  57.0284958  49.8145638   4.7191706
  56.7386131  49.5599899   3.8431609  57.8575859  50.2703896   4.5740581
  79.7073288  28.3220234  44.0846100  79.7419434  27.8805656  44.9332275
  78.8852615  28.8120213  44.1028862   4.3912868   0.6543484  53.5684929
   3.6273155   1.1298395  53.8948174   4.5168476   0.9844883  52.6788445
  50.2489433   7.0144696  58.6491127  50.3399582   6.7933359  59.5759621
  49.5098534   6.4858508  58.3482170   9.8983488  46.3705444  46.8177834
   9.7959414  46.0198708  45.9330368   9.0101061  46.3843575  47.1742439
  72.8186951  18.3678722  56.5716934  72.8447266  18.6434898  55.6554031
  73.7207489  18.4651241  56.8767776  47.3763542  68.3690186   5.8984642
  48.2854195  68.5061646   6.1649699  47.1090851  69.2061996   5.5190811
  82.9352570  47.8818207  64.1245956  82.3039322  47.6336899  63.4492531
  83.1473007  48.7948189  63.9304008  78.4976578  14.8390121   8.9397745
  79.0074539  14.0634174   9.1738615  79.1146011  15.3972874   8.4665461
  80.1894836  36.9671135  31.6502457  80.0078201  36.0278549  31.6822453
  79.5412292  37.3565712  32.2370262  78.9225006  35.8375206   4.0038004
  78.6413803  35.5318222   3.1413908  79.8153458  35.5051384   4.0964160
  57.1775970  28.9885235  40.0118713  57.0556946  29.2731571  39.1061363
  56.5919533  28.2374897  40.1077995  80.9691925  51.6359215  62.2914619
  80.1018448  51.2498817  62.1693115  80.8547058  52.5587921  62.0646782
  69.3179092  55.6555862  56.6025429  68.6855087  56.3709984  56.6694946
  68.7841644  54.8790627  56.4341698  30.0842495  36.6569977  12.6425467
  29.7106609  36.3354568  11.8220148  30.6837444  35.9644394  12.9203949
  66.7785187  40.5229645  17.8512325  67.7152252  40.6719818  17.7223854
  66.3637009  40.9381790  17.0950871  47.1111488  70.9772644   4.8688669
  47.7902946  71.4606705   4.3984284  46.3666725  71.5781708   4.8988996
  62.8568878  50.4141960  14.5670500  62.2754288  50.0040665  13.9267902
  62.6940231  49.9353943  15.3797340  50.8841286  57.1136093  78.7074051
  50.5246124  56.9548149  77.8346176  50.4786034  56.4445152  79.2588577
  24.7327900  34.4516411  27.8071289  25.3124619  33.7007103  27.6794052
  25.2559147  35.0750504  28.3110485  11.6800041  45.5887527  52.9464378
  12.3310890  45.0504303  53.3964691  12.0623417  46.4661827  52.9334297
  47.2957039   7.0347123   7.5580568  46.4207191   6.8994756   7.9218469
  47.8333588   6.3580256   7.9694633  81.6742935  52.0948410  75.3989792
  82.2376785  52.6984520  75.8832169  81.4469299  51.4168129  76.0352249
  72.5680161  34.8103447  16.5925617  72.8194809  35.5957260  17.0785408
  72.6322174  34.1016998  17.2328186   7.7653384  25.7972031  31.9641991
   6.9495850  26.2026787  31.6703148   8.3133602  25.7659664  31.1800251
   1.1013250  45.0860710   4.1962748   1.1013211  45.4269218   3.3018181
   1.0910467  45.8667297   4.7500744  22.2046089  24.3101864  88.0728073
  21.6759090  24.6987228  88.7697678  21.6857948  23.5672169  87.7644882
  31.1815739  61.9461136  35.4707603  31.8374805  62.4332047  34.9719963
  31.4664173  62.0241852  36.3812523  30.2715607  20.1440315   1.4634696
  30.4362259  20.0674744   0.5236526  31.1359272  20.0589333   1.8657897
  72.1372375  70.4047165  70.0113678  71.6295547  69.6406479  70.2846527
  71.6453400  71.1527481  70.3500595  39.0880737  57.3304596  46.6695938
  38.4057198  56.6837158  46.4897461  39.9057808  56.8823891  46.4532089
   6.2064686  39.7005234  29.2402306   6.9957705  40.2269249  29.1132069
   5.9314423  39.4636574  28.3545189  29.1496754  60.6526451  37.4721870
  29.6274776  61.2887840  36.9399605  28.3294544  61.0935936  37.6936340
  83.6906128  31.9368591  12.3249025  84.0103531  32.3534622  11.5246258
  83.3764114  31.0789986  12.0392675  83.4152527  36.9002724  25.6596851
  83.5525360  36.0500984  26.0775242  84.1726303  37.0096245  25.0846596
  55.8790474  21.2100010  20.9393997  56.4413414  21.2969837  20.1696663
  56.4874611  21.0826340  21.6673012  43.0281143  43.1374741  76.9210739
  43.1796646  43.1128731  75.9762650  42.2015572  42.6704712  77.0433044
  71.0937729   0.3498138  16.1309261  71.4002457   0.4378146  15.2283926
  70.3039017  -0.1867505  16.0644131  57.0159836  43.2816010   8.7567377
  57.0975456  44.2256203   8.8924017  57.1143036  43.1660690   7.8116355
  39.2137642  18.0648937  21.8040237  39.9312096  18.1267300  21.1734028
  38.6272964  17.4041920  21.4355717  78.0694427  24.8658085  86.4925156
  78.8320923  24.8760414  85.9141617  77.6541290  25.7173920  86.3563232
  45.8753052  42.5092049  44.0522995  46.7560043  42.6630440  44.3942528
  45.4342422  42.0123100  44.7413483  80.4597092  36.3772736  51.7466354
  80.4404068  35.4484482  51.9771690  80.2907486  36.8323708  52.5716019
  37.4583282  50.0299759   9.0197725  36.6270790  49.6556091   9.3115101
  37.3180275  50.2332153   8.0949793  67.4161758  31.8160877  58.3662109
  68.2059937  32.3084259  58.1425514  67.7212906  31.1313572  58.9614258
  83.5211487  38.8386192  53.2823334  83.6959991  39.4691315  52.5836792
  84.1390610  39.0715027  53.9752884  42.8695984  13.1763544  13.7776346
  43.4056091  13.7941761  14.2748499  43.2846832  12.3265257  13.9250441
  52.6457138  25.1036930  18.4916725  53.1295013  24.5446148  19.0996323
  52.2152634  25.7499485  19.0514011  34.5230865  64.4980240  47.3928223
  33.8732300  65.0933990  47.0193939  34.0065117  63.8468819  47.8675728
  63.4921112  48.2064018  54.5291061  64.4371490  48.3304787  54.6170578
  63.3207512  48.3259811  53.5949936  39.8692017  63.9071007  13.7472210
  40.4760742  63.8205223  14.4823685  39.1850777  63.2613983  13.9240742
  75.1063843  28.1445122  36.7803116  75.6750183  28.7964535  36.3706055
  75.0269089  28.4334698  37.6893883  59.0034370  54.0595856  49.2419891
  58.1632957  53.8162193  48.8531914  59.6366768  53.4702568  48.8321877
  18.6557846  42.3636398  27.7156162  18.5340614  43.1335182  27.1600056
  19.3017406  42.6378021  28.3666210  16.4151173  43.3026466  23.4324970
  16.8790188  43.9936295  23.9053268  17.1037941  42.6988297  23.1543560
  31.7450790  58.1839104  25.8258934  32.3317947  57.5983620  25.3472176
  32.2940674  58.5655861  26.5108509  73.6418610  20.9171696  16.4085140
  73.3785019  21.5169487  15.7105618  72.8883514  20.3382473  16.5238266
  11.5746851  60.6419182   2.2269199  12.3470163  60.2994080   2.6768339
  10.8480415  60.4524498   2.8204870  33.9236526  56.0278282   6.4910936
  33.7398643  56.2464256   7.4046955  33.0601616  55.9246368   6.0911345
   7.4272032  28.7007847  66.7446594   6.7186079  29.1044807  66.2435074
   6.9814677  28.1739941  67.4080200  19.7940521  34.9740906  66.3960571
  20.2152500  35.8335495  66.3836746  20.1599693  34.5391083  67.1661987
  14.5372543  50.9355507  36.9760666  14.7052212  51.8700562  36.8547211
  14.0181780  50.6843185  36.2120819  36.4745827  45.8274040  56.0100212
  37.1734123  46.3367920  55.5996666  35.7906418  46.4693260  56.2007980
   0.4981212  32.2580566  69.5295486   0.2238434  32.4929161  70.4160309
   1.0133646  33.0077591  69.2317276  21.6321411  46.6177902  80.6560593
  21.6194744  45.6742706  80.4953003  22.3196430  46.7399940  81.3107605
  80.2262650  65.0498505  80.5072937  79.5468521  65.5139389  80.9964294
  80.7676697  65.7442017  80.1318054  30.4694996  39.3531723  79.7325134
  29.9144363  39.1087875  80.4730682  29.9707050  40.0277672  79.2716904
  70.4231796  63.2760201  44.5655365  70.0977707  64.1746521  44.5125084
  70.0985184  62.9529305  45.4060326  62.5707474  49.5840378  20.3177681
  62.6696243  48.7105713  20.6966000  61.8259392  49.9642143  20.7835541
  44.7824669  52.3591003  41.4872208  44.0230293  52.9410362  41.4583969
  45.5362930  52.9489937  41.4893913  84.3075943   2.7890282  88.4853821
  85.2585068   2.8983583  88.4793472  84.0530777   2.8549142  87.5649948
  55.3526764  23.1270905  62.4820175  55.3352890  23.6522446  61.6819267
  55.9403343  22.3995171  62.2782326  56.8737640  63.0660324  56.7854614
  56.3894081  62.2406883  56.7646828  57.1430054  63.1628036  57.6989021
  15.4611216  42.6156883  83.1766815  14.5675659  42.9276085  83.0335159
  15.7131672  42.9901390  84.0207748  64.8532028  70.4618225  36.5923004
  64.7945404  69.7926483  35.9103928  65.6203003  70.2121506  37.1075249
  69.5790710  69.4666519  82.9516678  69.2606812  69.4143906  83.8528442
  70.4979935  69.2043991  83.0067215  50.8110008  60.0604744  78.5979843
  51.3070641  59.4866180  79.1818008  51.1652374  59.8802910  77.7271881
  56.7811775  44.3913498  40.9544907  56.6212082  44.9116020  40.1671028
  57.1142387  45.0209274  41.5939713   6.8422771  25.5082569  42.1262207
   5.9910145  25.9284344  42.0036087   7.4573913  26.0718937  41.6569901
  83.3275146  17.4208736  55.7002563  84.0239944  16.8643761  55.3517532
  82.5742188  17.2426491  55.1372185  70.3115692  35.0939217   7.5071082
  70.6403351  34.2479515   7.8112144  70.0696793  35.5588493   8.3080826
  67.8749771  70.6407089  87.3119507  68.4412994  70.1221924  87.8834839
  68.4757004  71.2135544  86.8352814  84.0085526  59.1236725  13.6555901
  84.8053131  58.6341629  13.4512005  84.3225327  59.9467888  14.0299253
  80.6910629  43.7636642  66.6971436  80.1936874  44.5295029  66.9840851
  80.0294189  43.0853500  66.5616913  35.2569695  22.1772919  15.3909225
  34.9689980  21.3924122  15.8570423  34.6875191  22.2221794  14.6228456
  36.4819374   4.2645707  23.7215405  35.6952667   4.8086815  23.7579975
  36.1894073   3.4473164  23.3181133  40.6322098  60.8681908  71.0170898
  40.7885246  61.6512566  70.4892654  40.9594955  60.1473808  70.4789963
  66.6406250  29.8708668  18.5549355  67.1106491  30.2569637  17.8158569
  66.0586395  29.2235279  18.1568451  39.7819710   7.0043526  81.0983200
  40.5022278   7.5261378  80.7444839  38.9916534   7.4668260  80.8194885
  75.3654480  19.4735565  67.0243988  75.8615341  20.0106564  66.4066162
  75.9124680  18.7002964  67.1624908  76.2467041  66.7375641  13.1903944
  75.3633041  66.3855362  13.2995358  76.3046722  67.4430923  13.8346777
  54.9303322  45.6305923  82.4342041  55.8645515  45.8173256  82.5269241
  54.8973846  44.8196373  81.9267654  45.5159454  46.7936821  52.1838684
  44.7319069  47.1352043  51.7538910  45.2097168  46.4993248  53.0416603
  82.4773788  24.9684067  31.8161888  81.7951736  25.4591866  31.3579655
  82.8916626  25.6128845  32.3899879  18.2719440   2.6317971   8.9353647
  18.3066006   3.4852681   8.5033722  17.6693249   2.1163144   8.3993073
  63.4872513  15.7512274  23.4619884  64.2314835  16.1850452  23.8793087
  63.1019211  16.4239159  22.9005241  30.0104008  39.8069115  67.5998459
  30.1770344  40.1446533  66.7198486  30.2026844  40.5438766  68.1796188
  68.4970169  12.3757544  32.5147438  67.5903168  12.3916264  32.2083626
  68.9909897  12.8175201  31.8240452  19.9056396  33.5514793   4.5417066
  19.1007442  33.8883591   4.9352655  19.6089363  32.8813133   3.9260168
  30.9194717  54.4576797  12.0236111  30.3444576  55.1800461  11.7710695
  31.4760265  54.8236542  12.7110281  57.7424507  23.1281891  80.2615433
  57.7703514  22.3264122  80.7836609  58.6609840  23.3299026  80.0831070
  75.4483566  56.3227005  12.4903688  75.7581024  57.1362572  12.8883801
  76.2298737  55.9370003  12.0945282  57.9288063  38.5776520  65.2443390
  57.9090042  37.6207123  65.2340088  57.4379387  38.8189087  66.0298767
  66.2352600  71.6240845   0.3237380  66.5554123  71.0526047  -0.3742239
  66.5139008  71.1939697   1.1321886  75.6582794  30.8556843  12.7224703
  75.4730530  30.5733089  11.8268223  74.8794632  31.3464794  12.9847717
  17.4113503  16.8241234  16.0079193  17.3869514  17.7631435  15.8238602
  17.8474941  16.7578144  16.8573971  -0.1558767  22.1924629  67.1564026
   0.5644432  21.6423759  67.4642639   0.2327561  23.0613041  67.0548553
  76.4070969  67.6344070  82.0249100  76.1426392  67.1929321  82.8320007
  77.1601257  68.1677399  82.2793198  15.3188610  25.9318943  58.3480263
  15.1354914  26.5194530  57.6149597  15.4556007  26.5154877  59.0943184
   1.7217499   5.8162122  33.7720947   2.6675498   5.8197041  33.6248474
   1.4924190   6.7394881  33.8779259  73.0227814  71.8855972  48.9222221
  72.5768661  71.1268463  49.2986374  73.1421890  71.6599197  47.9997063
  35.6161461  55.0721016  88.0879288  34.7176933  55.3990974  88.0421829
  36.0236282  55.3771629  87.2772980  50.0236893  57.8813782  13.0494356
  50.7031174  57.4005241  12.5767918  49.5235481  58.3248940  12.3643198
  35.9919739  43.3610954  22.7016525  35.1926460  43.1597099  23.1882248
  35.6836395  43.7723618  21.8941746  25.1805820  54.9449997  69.3893814
  26.1286278  55.0054855  69.2719727  24.8799667  54.4227829  68.6456375
  64.0855255  55.1441078  67.4972229  63.1913910  55.2975311  67.1919022
  64.0984726  55.4963417  68.3871689   5.0098882  27.4641571  43.9966927
   5.8278694  26.9905796  44.1478996   4.6727853  27.1040802  43.1763649
  72.5268631  17.9208450  70.0859833  72.8589325  18.8169117  70.0309296
  72.1470871  17.8595753  70.9624786  73.1488647  31.7644253  13.5242224
  72.2706375  31.4243736  13.3530235  73.0964966  32.6912956  13.2909794
  52.3358307  30.3452892  30.4166641  52.7585678  29.5220928  30.1719666
  53.0575066  30.9676342  30.5066776  83.4332809  24.7719288  45.9395485
  84.3335114  24.7938366  46.2640991  83.4519577  24.1361332  45.2242546
  85.3190842  42.7042732  32.5563850  85.6883469  42.0077667  32.0134735
  85.1081161  43.4036903  31.9378872  15.1775103  45.5162354  81.2264633
  14.5425510  45.0316772  80.6989594  15.1387253  46.4102135  80.8865662
  13.4324846  12.3849802  24.5861320  14.2516155  12.5240974  24.1108418
  13.0822411  13.2652950  24.7225380   0.8035440  49.8429909  58.4548798
   1.4077669  49.2523956  58.0050545   1.1439211  49.8993645  59.3477364
  52.5510597  42.6718178  15.1133957  52.7340164  43.0945282  14.2743044
  52.6626320  41.7370796  14.9400549  58.2508278  70.6277618  33.4582176
  58.4390717  71.4484482  33.9134789  58.6529541  69.9528351  34.0050316
  52.0455627  24.7326984  86.3730850  51.1473503  24.5473843  86.0990295
  52.0158730  25.6323586  86.6986084  31.2134228  60.3221283  39.9470978
  30.6922817  60.5584183  39.1797600  32.1203842  60.4513969  39.6697121
  59.1762276   0.1981227  88.6573563  58.5484543   0.8333995  89.0016785
  60.0100021   0.6681055  88.6445541  60.8722572  13.1577196  48.2402344
  61.5192719  13.6923323  48.7004471  60.3924828  12.7097816  48.9369392
  39.8732033  15.4035616   2.0802860  40.2208138  14.5461264   2.3256454
  40.6496811  15.9400101   1.9204967  31.4633636  55.6400948  54.2265625
  30.8329124  55.0584297  54.6513290  31.2733517  56.5052071  54.5894775
  42.5122910  23.1017284  71.7582397  41.9928894  23.5565624  72.4212494
  43.1700363  23.7425365  71.4881287  20.4852886  59.9726295  52.0162392
  20.6908817  59.7733574  52.9296150  20.9297237  60.8032112  51.8464088
  74.5891800  17.5914040  88.5450287  75.0374222  16.8346062  88.1674500
  75.2804489  18.0818577  88.9898148   6.3439670  36.0591431  74.1523132
   6.1679244  35.1249199  74.0406723   5.5553560  36.4922028  73.8255386
  69.0545502  14.5201283  64.5848923  69.0094376  15.1530523  65.3015518
  69.8248672  14.7831144  64.0812225  25.8567066   0.8668672  19.2162247
  26.7063389   1.2955256  19.3192120  25.7357044   0.3765106  20.0293293
  54.0014305  10.5054121  39.2682838  54.3354912  11.1062660  38.6022453
  53.1260185  10.8352509  39.4709816  83.0424118  57.0762787  45.2336845
  83.5879059  57.0302277  44.4484825  82.7617416  57.9903793  45.2770576
  10.5976620   8.8300314  78.9791183  10.4212103   8.9919252  78.0523605
  10.5040760   7.8826494  79.0788193  73.6816101  -0.0306580  46.4315414
  74.1727676   0.6937252  46.0439034  73.0045090  -0.2334615  45.7860641
  21.2983398  50.1930885  17.5313663  22.1344109  49.7435417  17.6543484
  21.0873413  50.5470123  18.3953419  60.4367027  28.9454403  50.9804688
  60.4900284  28.0662346  51.3551483  60.8292885  28.8597794  50.1116943
  42.8927307  33.4773827  71.4225998  41.9605789  33.5372505  71.2134476
  42.9505844  33.7489090  72.3386536  43.6884270  23.1130314  20.7170315
  44.4316788  23.3982029  21.2485256  43.6196938  22.1733665  20.8859692
   4.6286464   6.6310444  32.9668884   4.5815430   6.4452353  32.0290794
   5.2739820   6.0087018  33.3022423  11.0969048  27.7639675  81.9246445
  10.7814312  28.0649433  82.7767715  11.3271942  28.5669231  81.4572449
  84.5089798  18.7673397   4.8573537  85.2427979  19.3161449   5.1340375
  84.7876587  17.8744621   5.0606627  62.1410828  21.2432899  13.1797342
  61.4471245  20.8127403  13.6790171  61.7433548  22.0566711  12.8691597
  82.8552322  29.1434174  36.6858635  82.0387726  28.9660110  37.1529388
  82.5763931  29.5114708  35.8474007  15.1067123  42.6160011  78.3908386
  15.6479750  42.0870934  78.9769440  14.6796074  43.2503395  78.9665375
  80.7146606  56.8355179  21.7666492  80.5095825  57.7259636  21.4815483
  80.2025833  56.2738304  21.1848240  55.2949142  57.2957687  40.0936852
  55.2404251  56.4314728  39.6859398  54.4790649  57.7299957  39.8445435
  64.3974152  53.3751678  11.6106005  63.7445717  53.4967384  12.2999792
  64.0035248  53.7739754  10.8346920  54.5500221  25.3498631  46.0277367
  53.6332817  25.0811520  45.9676476  54.8962364  24.8557281  46.7708397
  23.3230553  69.6354904  11.3992033  23.0432091  69.4123306  10.5114441
  22.7034664  69.1781769  11.9677181  67.2645950  25.9115772  54.7125206
  67.4650421  25.0926208  55.1656952  66.3088608  25.9302406  54.6630745
  53.0989838  24.0799522  75.6411285  53.0126076  24.9643440  75.9969635
  53.2293243  23.5242748  76.4095459  44.5430641  64.7638702  38.9071007
  43.9681664  65.3797379  38.4527550  44.5444298  65.0635452  39.8161774
  77.4370422  50.9513474  38.7906418  77.0145950  51.0082436  39.6476898
  77.0589600  51.6734886  38.2888451  45.6841049  46.2790146   5.7992444
  46.0509186  47.1470757   5.9670277  46.4463425  45.7258644   5.6282334
   4.6023908  44.3522148  55.3117523   5.1186037  44.2342796  56.1091537
   4.2810650  45.2522736  55.3653831  34.8171768  38.7734337  63.8172874
  34.6790886  38.3092613  62.9916344  35.2971573  38.1516113  64.3642654
  57.1700096  32.6180801   7.4391537  56.9722557  32.8108368   8.3556519
  56.7362633  31.7814503   7.2713752  44.9240189  37.8243256  45.7556419
  44.4501190  38.3888702  45.1449547  44.2382889  37.3400154  46.2154770
  72.8999329  56.3928566   0.7054579  73.4305115  55.6008072   0.7913423
  73.5303955  57.1108322   0.7625381  12.5451870  69.7861176   9.7587872
  12.8209152  70.6593170  10.0375853  11.9252443  69.5045242  10.4315481
  70.4972916  42.0358734  61.3747673  70.9203033  42.8613739  61.6110725
  69.5653229  42.1920509  61.5273209  25.0651798  44.9484711  74.7810669
  24.3704357  45.2640381  74.2031555  25.8041267  45.5317497  74.6079330
  67.8507538  51.3354492  17.7545338  68.5069199  51.8064041  18.2682247
  67.5481415  50.6371040  18.3350277  30.7487812  54.0477371  75.0448837
  30.0757923  53.3810120  74.9077835  30.6612339  54.6344414  74.2936554
  77.2415237   5.5192676   4.0391145  78.0335693   5.1886754   4.4629045
  77.4850922   6.3886094   3.7210727  27.0002880  39.1212234  68.1767273
  27.2845421  39.8352699  67.6061478  27.6259155  38.4165993  68.0084152
  84.9836044  24.2974682  64.1699829  84.0372543  24.1601200  64.1276779
  85.2948456  24.0938950  63.2879868  39.1587181   4.6888814  82.2668610
  38.5799065   5.0010161  82.9624023  39.5081444   5.4867606  81.8699646
  69.9230118  17.8639259  71.7880096  69.5782394  17.0628281  71.3935394
  69.6468735  18.5616035  71.1936798  64.2833710  46.5092888  77.8119202
  64.0017624  45.9636078  78.5461960  64.7959366  47.2092056  78.2164230
  44.3173180  53.6801491  51.5149231  44.7389908  54.4854660  51.8147354
  44.1488914  53.8299904  50.5846481  61.3504143  21.5438423  81.2290268
  61.8398628  21.3956451  82.0381622  60.4711647  21.2157440  81.4174500
   3.9178877  32.9666481   7.0013943   4.8020711  32.6000290   6.9951382
   3.3588791  32.2391624   7.2743478  86.2758255  26.1787586  60.5133286
  85.8035812  26.1914597  59.6808281  86.0391159  27.0045261  60.9355888
  46.1078033  40.6849823  17.6880531  46.5121765  40.9099236  18.5259781
  46.7141495  40.0607605  17.2894039  41.2316093  41.0209770  76.8387680
  41.5871315  40.4551506  76.1534348  41.0407372  40.4269867  77.5646973
  56.1219864  34.4215508  73.2940140  56.6452141  34.3785400  74.0943985
  56.5052528  33.7571945  72.7213211   1.9521463  35.8473740  83.7089844
   2.2598410  36.7502518  83.6291580   2.1426373  35.4532738  82.8577347
  78.0285568  43.1765785  12.2557335  78.8605576  43.5066681  11.9165401
  78.2772446  42.4824905  12.8661680  76.6201324  40.5387230  27.8791695
  76.3726349  40.0046387  27.1243629  77.1587830  41.2389946  27.5107899
  80.2428970  61.9279785   6.3359289  80.4064560  62.5010490   7.0849757
  80.9904709  61.3303070   6.3238788  51.6912003  39.5723457  85.3624344
  51.0131493  39.2557144  84.7655945  52.0889359  38.7770004  85.7166443
   3.5933361  35.8943062   2.1667922   4.2132530  35.9337044   2.8950660
   3.6836343  36.7408943   1.7293326  48.7327919  34.6176796  73.7527390
  49.4915237  34.0383301  73.6826630  48.7655602  35.1522751  72.9594116
  60.8078690   3.5499129  81.0710068  60.0201035   3.0067408  81.0460968
  60.4801102   4.4487352  81.0406036  54.5434265  46.7180176  43.1913071
  54.4833603  46.1127243  43.9303894  53.8591499  46.4280777  42.5880394
  11.1383543  39.2208023  55.1550865  10.9459047  39.7170982  55.9506264
  12.0690174  39.0080910  55.2247391  22.9975224  68.4840164  61.3653984
  23.4213524  69.1634216  61.8898163  23.1812611  68.7314529  60.4591713
  80.7668762  17.1344738  16.7395706  80.7472992  17.7059002  15.9718962
  81.6868820  17.1191673  17.0033646  75.3955231  49.8742142  46.4564514
  74.5607758  50.2158241  46.1359406  75.5848465  50.3968430  47.2357140
  35.5471649   4.5098705  16.6956043  35.2020187   5.2321453  16.1707954
  35.5827255   4.8570728  17.5869064  55.6632500   0.1216983  83.4502106
  54.9551620   0.7587897  83.5448608  56.1746635   0.2107702  84.2544174
  17.9697495  64.6392212  12.8523884  18.0617886  65.1178741  12.0285854
  18.4806671  63.8401146  12.7234602  53.4251785  22.7358723   0.1219520
  54.3028412  22.3701248   0.2322628  53.5563393  23.6838074   0.1430798
  22.5925369  56.5493774  73.7195435  22.2145042  57.3648682  74.0486374
  23.3005390  56.8303719  73.1398849  50.7374878  18.6236420   9.5916166
  49.7948112  18.6487789   9.7558022  50.8542900  17.8993721   8.9767818
  63.7254524  10.9830208  55.5934906  63.1114388  10.4685040  55.0695724
  63.2693634  11.1289454  56.4222984   1.6578070  58.3872223  33.3867302
   0.9455302  58.4264488  34.0249748   1.3762424  57.7265511  32.7539062
  77.4838943   9.3136339  56.6223679  77.8905258   8.4836454  56.8713684
  76.8264847   9.0720387  55.9699249  62.2730637  58.3226128  60.6818466
  61.5463982  58.7106400  60.1943817  61.8836517  57.5776024  61.1396141
  35.8354950  30.9306469  25.0959377  36.0462456  31.1745605  24.1946487
  35.4817505  30.0438385  25.0275955  59.1947937   3.8265979  64.1642227
  58.3256111   4.2129259  64.2714767  59.6800728   4.4687810  63.6462021
  66.7395782  44.5548401  72.1437225  67.5331879  44.0562439  72.3381805
  66.7240448  45.2475166  72.8041687  78.1997528  16.5200462  11.1365089
  78.3434219  15.8274727  10.4915810  78.2244263  16.0698967  11.9808950
  75.6911392  54.3302689   1.5404687  75.6580734  53.5795517   0.9475434
  76.5567932  54.7121315   1.3953787  86.1397247   5.7973261  15.3976583
  86.8462677   6.3094735  15.7910204  86.2108383   5.9723048  14.4592791
  84.5495071  31.3815174  14.7969065  84.5547562  32.2760315  15.1375694
  84.4111557  31.4845982  13.8553848  64.2824402   4.7427607  76.5456085
  63.6891518   5.1408906  75.9086380  63.7452660   4.6182036  77.3280182
  25.5706692  50.3088684  53.0447083  26.4502163  50.4048386  53.4099770
  25.0464821  49.9671402  53.7690544  68.8425827  47.8092499  71.6867981
  68.1858826  47.2880554  72.1486664  68.6117096  48.7165756  71.8860245
  22.2096615   7.4273009  27.0039597  21.8787651   8.0316067  26.3394661
  22.8959122   6.9319868  26.5567951  34.0317001  50.1568565  25.3296185
  33.5861435  50.2679939  24.4897614  33.4859085  50.6333046  25.9551926
  27.0670547  45.9416389  28.4054928  27.6539860  46.3385429  29.0490837
  27.1316013  46.5113945  27.6390419   1.4541962  44.1300926  66.6608429
   2.0918748  43.4173241  66.7003250   0.7576028  43.8617210  67.2599792
  53.9624443  24.4606247  30.7655582  53.4783401  25.2323227  30.4716854
  54.8648186  24.6254826  30.4921055  64.4856491  20.0859051  64.7630768
  64.0521317  20.6101055  65.4365082  65.4046478  20.3496494  64.8089447
  35.9033852  64.1850433  29.0459194  36.8457413  64.2623062  28.8968430
  35.7724266  64.5238190  29.9315357  48.4878082  62.6643143  75.6452866
  47.6829262  63.1798820  75.6961212  48.2919579  61.8655930  76.1351089
  67.1792908   4.7990184  35.1622467  67.2908630   5.4090796  34.4331322
  66.2463760   4.5849013  35.1547737  62.8909225  26.8769436   7.1889014
  63.7003098  27.3288250   7.4274988  63.1061630  26.4105396   6.3812070
  24.2412128   0.5796479  16.9756565  24.8515701   0.9810463  17.5941830
  24.6842709   0.6390376  16.1292515  63.3649445  66.6895828  78.9567719
  63.8353348  67.1421890  79.6568527  62.8437119  67.3739700  78.5370560
  45.8976173  71.6843262  82.9319153  45.9379692  70.8513641  82.4620438
  46.3223801  71.5067444  83.7711258  48.6934280  21.0852184  47.5487480
  48.7567368  20.5372410  48.3310165  49.5870552  21.3942165  47.3998070
  19.5759659  40.3954124  66.3968353  18.9927139  39.6387405  66.4559708
  20.1687832  40.1850662  65.6753464  11.7727976  65.2747040  88.1273193
  11.9990931  65.8549500  88.8541870  11.5463638  64.4440079  88.5455322
   4.0718813  12.1206474  31.6639347   4.1531463  12.6079321  30.8440685
   4.6717820  11.3815193  31.5637302  16.7526836   3.5248449  10.9791775
  17.3203487   3.1982820  10.2810764  17.2032681   3.2814178  11.7878494
  27.9071655  49.2914467  77.9510651  28.6650295  49.8215408  77.7043381
  27.5799561  48.9411354  77.1225433  26.2960873  56.8691368  66.5603867
  26.7754574  56.3350258  67.1937637  25.5142059  56.3557014  66.3572159
  77.5206223  39.6775513  40.2243195  77.4806747  40.3867874  40.8658981
  76.7009735  39.1983070  40.3457336  67.1121521  57.7546043  59.4844513
  67.0790482  58.6337852  59.8615189  67.8021317  57.3090096  59.9759865
   2.6275346  52.8511467  61.6264000   2.1256044  53.6658783  61.6037788
   3.4454794  53.0611496  61.1757355  37.9704132  37.4631233  75.9283371
  37.9356155  37.6904907  76.8574905  37.2950134  36.7935257  75.8201523
  66.8672562  53.5711708  32.6389847  66.3488007  54.1511955  33.1966629
  67.0417328  54.0880775  31.8524742  49.0975723  46.8308067   9.0040932
  49.7103500  46.1802330   8.6613245  49.5941658  47.2963867   9.6770449
  81.7190323  16.5324841  51.8692589  81.7984467  15.6267986  52.1686897
  81.0080948  16.5114937  51.2286644  47.7766228  31.1882992  32.7460327
  47.1696815  31.7403603  33.2390709  47.5635796  31.3582745  31.8284531
  65.9169312  22.5773582  41.2292709  65.6094971  23.4786205  41.3264351
  66.7229843  22.5424080  41.7443275  26.3592930   6.4283285  80.9562454
  25.6033745   6.7381983  80.4574432  25.9860744   5.8531284  81.6241379
  54.2220154  41.9683495   2.2764573  54.7227631  42.2783966   3.0310118
  54.1408005  42.7363548   1.7109452   5.6195107  58.5721436  55.6075821
   6.4724593  58.7098732  56.0195770   5.0015039  58.5493660  56.3381844
  15.4027929   6.0409417  11.0717754  15.9383345   5.2998395  10.7885876
  14.8553038   6.2444348  10.3134365  83.2197876  60.2153358  73.3468094
  82.9877625  59.8509789  72.4926224  82.3789902  60.4149895  73.7584305
  76.6009293  43.6969452  70.8974533  77.3478317  43.2257118  70.5282440
  76.9729004  44.5152550  71.2264481  38.0948830   8.3350878  76.6504440
  38.0798302   8.9784679  77.3590088  37.3371277   8.5569668  76.1093216
  27.5352001  64.3002625  10.4973431  26.8254662  64.3589020   9.8577566
  27.5357914  63.3830261  10.7710400  70.1012039  27.7134686  71.3889999
  70.5129929  27.5781364  72.2424316  69.1677933  27.7969227  71.5839767
  55.4322128  54.9114914  11.3289185  55.3382835  54.2104950  10.6839314
  54.8867149  55.6220284  10.9915695  17.1787567  40.2659874  83.1250916
  16.5881958  41.0078812  82.9944534  17.8988914  40.6218758  83.6456528
   1.0959184  46.9043846   6.6967034   0.5080538  46.9592743   7.4501185
   1.8918201  47.3539810   6.9806695  55.4488106  51.4111252  18.9754219
  55.6854935  50.5773125  18.5692558  56.1591873  52.0054321  18.7337780
  66.5638199  48.8188324  56.8027496  66.7052460  49.6153564  57.3143921
  66.7469635  49.0784798  55.8998260   7.7558441  60.6666718  33.1499748
   7.5643802  61.6041527  33.1764259   7.6298246  60.4222527  32.2331238
  54.1732674   2.6502807  22.2758541  53.5158386   3.1047270  21.7490768
  53.8358841   1.7587621  22.3630257  48.6647911   2.1489880  22.9458714
  47.9976654   1.7150662  23.4777431  48.3426247   3.0442355  22.8411140
  38.4993172  12.3427372  20.1477699  39.2351418  11.8194275  20.4654846
  38.5367699  13.1474066  20.6648159   2.4872215  13.1938143  59.3125458
   1.7581111  12.5744457  59.3443642   2.5216725  13.5686197  60.1926422
  84.2605972  12.7477398  44.8482552  84.6683350  12.9220848  43.9999695
  84.1406631  11.7982435  44.8657265  44.1696510  27.4027710   8.4565601
  44.8706779  26.8290138   8.7657490  43.6497002  26.8517818   7.8715024
  59.9784622  26.4762688  37.4998283  59.5038681  25.7271919  37.1394463
  60.1881294  26.2177219  38.3972816  64.4588699  48.5956230   8.1347837
  63.5867043  48.7120438   8.5116205  64.9063644  48.0080185   8.7436361
  13.9168243  55.2474785  61.7574196  13.0674505  55.6633034  61.9053612
  14.2677698  55.1004982  62.6357498  78.0770874  53.3968315  59.9258041
  78.3159256  52.5357628  60.2689514  78.4986343  53.4379311  59.0674095
  45.6237259  68.9903030  21.0127354  46.1354561  69.7906647  20.8953323
  44.7126961  69.2769699  20.9488430  37.8222809  48.7428932  30.4969330
  38.5335999  49.0374336  31.0657101  38.0811768  49.0301514  29.6213245
  70.9841232  54.0667038  46.7069664  71.4671783  53.6466675  47.4186249
  70.4198456  54.7043877  47.1442070  27.1132355  34.0380363  14.6835136
  26.8812466  34.4599228  15.5108128  26.9110413  34.6931953  14.0155935
  22.6905174  45.9506416  21.2531738  22.5062237  46.7985420  20.8490238
  23.1505775  45.4567451  20.5744686  68.9314270  39.0407181  20.8404751
  68.1428375  39.0415382  21.3830185  69.5833282  39.5059090  21.3647442
  12.4711332   9.1729527  76.1272049  13.0088806   8.6699238  76.7387772
  13.0921326   9.7462406  75.6778412  41.0416565   1.1958355  18.9640732
  40.1794624   0.8181601  18.7902374  40.8922653   2.1412888  18.9697628
  73.8678131  15.1603308  56.4218178  72.9803467  15.5165863  56.4632454
  74.2755051  15.4369802  57.2424774  80.8669739  21.0665989  30.6008015
  80.3696213  21.3016644  29.8174667  80.4038849  21.5001621  31.3176022
  34.4916496  55.0041313  76.1077957  34.5018463  55.9361649  75.8899841
  34.3307877  54.9803543  77.0510864  45.6146851  32.3721008  74.2889328
  46.2005997  31.9718513  73.6464920  46.1994171  32.8219986  74.8987808
  39.3907814   6.0647798  40.7462349  39.1573906   6.9392481  41.0577927
  39.1469116   6.0672998  39.8206253  27.3761578  52.2142334  39.2765579
  28.0459747  52.5897675  38.7051125  27.7726269  51.4113617  39.6148529
  61.1077423   4.2483683  24.4613857  60.7438889   3.6725743  23.7888489
  61.6826859   3.6820257  24.9760990  79.9773178  30.6737480  55.4385185
  80.3896332  31.5375767  55.4431725  79.7226257  30.5348301  54.5263405
  12.6738262  41.7427559  77.3871689  12.8416443  40.8003998  77.3929825
  13.4926262  42.1337357  77.6920166   2.0944629  29.4785862  15.6124439
   2.0823524  28.6082668  15.2141600   2.5634127  30.0243530  14.9812098
  72.7757645  56.8664398  52.0316429  72.5172729  56.6301193  52.9224663
  73.3323898  57.6375313  52.1403618  74.4500427  20.9150600  28.4582806
  74.0688095  21.4531765  27.7645035  73.8350754  20.1891403  28.5636082
  55.0979271  64.7126236  82.4985504  55.4569664  65.1998901  83.2400970
  55.6279449  64.9892273  81.7510147  72.5917358  49.3025055  15.4263115
  72.1185913  49.8334465  14.7856359  73.5087280  49.3654366  15.1590958
  41.9913216  66.7515793   0.8872793  42.1157494  67.6988525   0.8287641
  42.6101608  66.3891144   0.2533328  67.3120041   9.1047812  10.7971640
  67.3109360   8.7385349  11.6815252  67.6924133   8.4153767  10.2528782
  27.3009262  30.0417690  82.9494629  26.6094761  30.2682343  83.5714340
  27.9190769  29.5177250  83.4588776  16.1909885   4.4598913   4.3106327
  16.2880726   5.4062572   4.2048087  15.2688856   4.3374786   4.5364032
  55.4039574  59.8137512  82.7107391  54.6217575  59.3117485  82.9396210
  55.2186928  60.7003212  83.0204239  53.9086304  11.3236790  18.3217831
  54.7802086  11.6349525  18.0774651  53.9741287  11.1391802  19.2587471
  76.2171249  10.4182682   1.7491291  75.6496277  10.2078209   1.0075837
  75.6165695  10.7094698   2.4352531  78.3244324  35.2333298  81.8582993
  78.4553833  35.9980927  81.2977448  79.1439133  35.1507034  82.3460007
  41.7122421  70.1839218  86.5217743  41.2006950  70.7063370  85.9040146
  41.3436699  69.3031845  86.4532852  15.9064627   7.6262760  25.9938145
  16.7124329   7.1260433  25.8657093  16.1603985   8.5349970  25.8326492
  60.4600067  56.6758385  12.0230341  60.4766350  55.7391472  11.8266459
  61.2722702  57.0140419  11.6461000  12.6830673  18.1863270  10.4636135
  12.9181261  17.3424950  10.8495245  12.7891684  18.0565777   9.5212011
  64.4176865  24.6734676  47.2553291  64.6075516  24.5248184  48.1816597
  63.7834969  25.3904266  47.2528725  29.5161572  62.6303635  15.0021048
  28.9729080  61.8730583  15.2202740  30.1594677  62.2921715  14.3792000
  82.7655945  26.2173119  82.5644150  82.5190887  26.6845360  83.3626404
  83.3666687  26.8114624  82.1150513  74.7580948  47.0547676  67.6231689
  74.6221237  47.7491112  66.9784775  74.6444702  47.4878578  68.4691925
  12.4007740  44.8937035  47.1339607  11.8437977  44.4428711  46.4993286
  12.8038902  44.1894798  47.6416931   0.9218346  42.5091209  41.2610626
   0.3844626  43.3012352  41.2564011   0.3946841  41.8593369  40.7961693
  48.2524796  33.2380638  63.4790077  49.0375633  33.6263924  63.0929070
  48.5579987  32.4202118  63.8714447  30.3273487  47.3443336  79.6169586
  29.7401485  47.9941826  79.2307968  31.1848965  47.7695580  79.6222458
  61.2964020  35.9195480  50.4123459  60.8410950  35.3073006  50.9903488
  60.6617813  36.1151314  49.7229691  42.2460213  68.6772156  51.6248970
  41.9574928  67.7895813  51.8372192  43.1337166  68.5655670  51.2846603
  60.4293747  62.9348602  84.9591522  61.0757980  63.6345558  84.8653641
  59.6224136  63.3859749  85.2072372  50.0374336  39.2857666  32.3061485
  50.8527298  39.0878830  31.8453197  49.4658241  38.5431328  32.1112480
  64.5290146  63.5534744  68.1263657  65.0305481  63.4400787  68.9337311
  64.3216171  64.4876251  68.1024475  23.0795784   5.6357784  71.0422668
  24.0222569   5.6894226  70.8850708  22.7943954   6.5475755  71.1016693
  59.4711571  23.9785290  72.3951340  58.9842873  23.2181282  72.7129059
  59.8444061  23.6926136  71.5613632  79.5946121  27.9255352  69.7998199
  78.8394623  27.9652634  70.3866882  79.3797836  28.5326233  69.0916367
  34.4124565  56.1427155  50.3869286  33.9799919  55.4202232  50.8421364
  34.8660736  56.6243401  51.0786667  82.9106522  47.7425041  60.2604027
  82.4503098  47.3515015  61.0029907  82.6187515  47.2346916  59.5033340
   9.1705942  37.8889465  30.4263077   9.5247431  38.1192474  29.5673695
   9.3611803  36.9557648  30.5215912  37.1628532  52.8974915  47.2566795
  36.3118134  52.9356117  47.6931534  37.7868729  53.1853142  47.9230042
  54.6453705  27.9830990  89.2038879  54.3495750  27.3414574  88.5581055
  55.4082603  28.3959923  88.7992172  55.3067131  20.4042969  73.9768753
  54.4387131  20.8050575  73.9299622  55.5707245  20.2970867  73.0630722
  23.2477932  10.1494360   3.5417805  22.4430847  10.6160574   3.7674794
  23.3643150   9.5163918   4.2502365  81.3280258  40.2135391  66.0599213
  80.6787415  40.5745430  65.4563065  81.0091858  40.4577904  66.9287796
  70.5415421  57.1531258  79.8276062  71.2249222  57.7637138  80.1040192
  70.0951157  56.9101105  80.6387024  55.4191933  12.0663986  37.3093605
  55.5771751  13.0067358  37.2254639  56.2789650  11.6959429  37.5088348
  27.6114750  18.0080051   8.3699903  27.0570450  17.4145107   7.8634315
  27.0575428  18.2907104   9.0976343   1.4761506  21.0357819  20.0822945
   1.3358424  21.3443413  20.9774685   1.8692466  20.1692638  20.1864834
   1.9473265   8.2791262  85.3275833   1.8587655   8.8941002  86.0557251
   2.5621810   8.7034483  84.7291336   7.2911377  44.5618362  25.3817158
   6.7261324  43.8049393  25.5369816   7.6128588  44.4413033  24.4882946
  20.9907150  67.4902954   7.4433532  20.5923805  66.6302032   7.3099241
  20.4992065  68.0741119   6.8655887  71.6984711   9.9111528  75.1766891
  71.4219360   9.3539934  75.9042358  72.0101776   9.2983074  74.5107346
  52.1857414  11.8431053   3.9333732  52.4396477  10.9334927   3.7772694
  52.2238693  11.9425402   4.8846307  24.1005573  62.5316086  51.2178345
  24.8580685  62.9834824  51.5896149  23.7491722  63.1446075  50.5720787
  33.1974144  12.8415670  77.7847137  32.7042732  13.5925417  77.4544449
  33.7036209  12.5373945  77.0314102  24.0614166  40.5421677  74.3922119
  24.6240082  40.3963585  75.1527786  24.4891186  41.2498741  73.9100800
   4.0875869  30.4514599  10.3530951   4.2667885  30.4831009   9.4133520
   4.9325590  30.6335354  10.7643166  86.6822739  12.3082294  55.2944450
  87.4720535  12.6658506  55.7001457  86.0490417  12.2536621  56.0101738
  45.5644913  29.0737114  14.3937740  46.3367043  28.7280426  14.8414698
  45.2502823  28.3438416  13.8601160  45.0123405  44.5566063  49.1859016
  44.7506905  44.1049004  49.9882317  45.5877571  45.2609291  49.4843330
  84.0275650   5.0026617  27.5350342  84.9234695   4.9069500  27.2118835
  84.1006165   5.6176934  28.2648506  50.6014099  23.9592342  16.8524704
  51.2549553  24.3021469  17.4619980  49.7685394  24.3021870  17.1764145
  64.9099579  69.9135284  41.0162163  63.9781876  69.8843231  40.7989960
  65.2575989  69.0826645  40.6921082   6.7385592  25.9911118  26.7605705
   7.0689082  26.8820381  26.6450233   7.4032230  25.5566540  27.2950802
  51.0913124   0.7873061  85.0630035  51.1098633   0.0555610  85.6798019
  50.3981934   0.5604646  84.4430389  75.9904251  50.4239693  34.9224510
  75.2811127  50.2099304  34.3164024  75.5669403  50.9251785  35.6193619
  41.1425476  19.8430538  71.4137115  41.5736084  19.3160572  72.0865402
  40.5586166  20.4235954  71.9017944  23.7662220  64.6797714  59.5557518
  24.0585003  65.1932373  58.8026505  23.0572224  64.1351929  59.2137184
  71.4914169  27.8377972  51.2763710  72.1406860  27.1592636  51.4615173
  71.4166336  27.8437347  50.3221169  73.9128571   7.3889737   2.3163459
  74.7319946   7.5610580   1.8519782  74.0887222   6.5990453   2.8275380
  72.9995422  61.7159271  29.2502441  73.3386002  62.5779343  29.0089703
  73.0765228  61.6866112  30.2038937  85.6650925   7.7676973  47.3007507
  85.0122604   7.5276113  46.6431808  86.4033356   8.1049767  46.7933311
  58.9080238  64.0210876  30.8306694  59.8299637  63.8090248  30.9765797
  58.6878967  64.6301651  31.5355072  39.6401138  62.3975639  52.8955460
  39.0339546  62.8530083  52.3112755  39.1615143  62.3154106  53.7204247
   3.2606888  30.3940506  20.4326649   2.6865540  30.5766277  21.1764832
   2.9975064  29.5231915  20.1350594  71.5046539  33.8206596  65.1367111
  71.4463806  34.7466888  64.9015427  70.7982788  33.4034081  64.6435928
  21.3562489  57.0034523   2.1911395  20.5436211  56.9149132   2.6891623
  21.3504105  56.2594032   1.5889893  20.8427601   9.9939537  12.1867371
  20.4009075  10.8412428  12.2424116  20.8356934   9.7810059  11.2535515
  81.3026733  53.7364540  30.8060303  81.7599640  53.0302353  31.2625046
  81.9442673  54.0717659  30.1798096  74.5449753  45.6747169  72.6927490
  74.7286911  44.8563156  73.1539383  75.3965149  45.9587364  72.3604279
  65.9030304  44.9720345  28.5596199  66.1327209  44.0666046  28.3506374
  65.9434357  45.0149803  29.5150032  29.7464561  16.0179443  72.7778854
  28.9819260  16.4926071  73.1041107  29.9415264  15.3783989  73.4628372
   8.3453445  41.4068756  40.6120949   7.9939470  40.9828568  41.3950119
   9.0612879  41.9531708  40.9364700  77.6617508  47.3983803  54.5566826
  77.2654572  46.5426674  54.7208214  78.1514893  47.5927734  55.3558044
  49.0613518  45.8901215  16.0026207  48.6664124  46.6691856  15.6110697
  48.7529755  45.1658287  15.4580698   4.3739762  56.8346519  59.7574654
   3.7866440  57.0436211  59.0311012   5.2437277  57.0768509  59.4394989
  56.2657204  16.8825493  77.2532272  56.1121025  16.7961464  76.3123932
  55.4803238  17.3174953  77.5851974  40.1720924  69.4705048   3.2183964
  40.6938362  68.8759842   3.7574360  40.7603035  69.7290421   2.5088935
  80.2856598  13.5918026  27.0304451  80.0604095  14.4404058  26.6491756
  81.0999069  13.3415985  26.5938244  86.2175903  60.9013824  14.5045071
  86.7874985  61.4401588  13.9557295  86.0696335  61.4306412  15.2882328
  85.0884323  35.8918343  21.0930538  85.1356506  36.3463402  21.9341393
  84.2388916  35.4510002  21.1063862   1.7396542  47.7448425  35.1847916
   1.6893005  46.8262100  34.9205666   0.8291331  48.0032043  35.3277321
  62.4092369  53.3364525  22.8597488  62.9997902  54.0815811  22.9704990
  61.9576797  53.5094376  22.0336704  73.8399277  65.7229156  27.0483284
  74.2090530  66.3090897  27.7089176  73.6244736  66.2963562  26.3128185
  49.3206177  30.0726357  41.4997978  48.3888245  30.0222111  41.7129936
  49.3718300  30.7269592  40.8030396  86.6507874  70.5473785  33.9424248
  86.9082336  71.0617218  34.7075424  85.7463684  70.8096619  33.7707863
  77.6339188  64.8835907  47.3220940  77.3284302  64.3307037  48.0412750
  78.5603104  64.6623611  47.2267456  56.7297249  27.0025043  34.0610809
  57.0732689  26.1134777  34.1496010  57.1285172  27.3343964  33.2566910
  48.4174614  66.9621429  23.1804199  48.1573486  66.5175323  22.3736382
  47.6821098  67.5404739  23.3829594  39.5437279  39.2574501  78.6314011
  40.1224518  38.5404510  78.3721313  38.6692963  38.8681870  78.6402969
  36.0571518  60.7266083  57.3450165  36.0264435  61.4382782  57.9844017
  36.2948303  59.9540558  57.8577576  80.5585251  43.1462860  55.6126060
  79.6757736  43.3231773  55.9377060  80.8482971  43.9794159  55.2409019
  75.9709625  26.8192520  39.6593208  75.7507782  27.6328888  40.1129112
  76.8706741  26.6317806  39.9269104  18.4745541  17.4132576  28.7071171
  18.6465721  17.8616562  27.8791180  17.5264854  17.4779320  28.8220615
   0.4431076  60.0321617  86.0695038  -0.1299395  60.7988472  86.0630951
   1.3268577  60.3930893  85.9991608  86.0944290   1.0541964  37.9378319
  86.1028519   2.0104351  37.8957825  85.4143906   0.7931262  37.3168449
   5.6658497  66.9706421  33.5705223   5.8863373  66.8326950  32.6493340
   6.1406851  67.7652893  33.8140488  25.1448765  60.7037201  63.6022568
  25.2580872  61.4605064  63.0272064  25.1403332  61.0726051  64.4855118
   1.1472075  45.3707848   1.5279591   0.9537041  46.0738640   0.9079042
   2.0069749  45.0457268   1.2608082  59.6707230  21.2653618  59.7466049
  60.1608658  20.4476643  59.6607971  60.2907867  21.9451122  59.4826088
  79.2293015  53.5059624  33.0566101  79.2022476  52.5982170  33.3591042
  80.0041809  53.5487099  32.4962883  76.0598297  24.8706818   9.9707422
  76.2712631  24.2805443   9.2473707  75.3144684  24.4576817  10.4067488
  37.8864174  59.6779861  39.0598946  38.0392418  59.2857208  39.9195442
  38.7459526  59.6742401  38.6386871  37.8815460  27.4245300  71.6796722
  38.0876999  26.6646709  71.1352997  38.6588745  27.5466576  72.2247162
  63.2175522  65.7408218  36.3608665  64.1456604  65.9314270  36.2248077
  63.0027466  66.1737671  37.1870956  30.4392242  23.6571350   6.9611363
  30.7643147  24.4378300   7.4095407  31.1426029  23.4170322   6.3579440
  72.0238724  65.4667740  17.0929756  72.4530563  64.9096603  17.7423286
  72.3990784  66.3354721  17.2372246  47.5726509   8.3485603   4.9656882
  46.6426849   8.5727301   4.9319124  47.6467590   7.7446170   5.7046013
  47.2069664   3.6408658  39.7941856  47.9508781   4.1359749  40.1372490
  46.8912125   4.1631765  39.0568085  76.4080429  52.8218460  80.8644638
  76.8727646  52.7692299  81.6996231  75.6534882  53.3824196  81.0451355
  62.9444695  47.8854828  70.0128326  63.6802826  47.4728889  70.4651260
  63.2491341  47.9973259  69.1123352  59.7151756   1.3227630  34.1690369
  59.3466454   2.1089618  34.5719109  59.8435974   1.5617423  33.2510872
  21.4390259  12.3681297  73.4048309  22.0947628  13.0594568  73.3136902
  20.8010349  12.7232523  74.0237732  35.1925812  55.7511978  44.4575157
  34.7508202  54.9738808  44.1156731  35.4730492  56.2297974  43.6774445
  44.6951675  45.1558266  62.7662773  44.9268723  44.4795952  62.1296806
  43.7418900  45.1034050  62.8351326  37.3307457  31.2426300  80.8903351
  37.9732208  31.5715714  81.5190277  36.5109367  31.6687260  81.1405106
   7.7441535   3.5112944  24.2907696   8.6874943   3.6132693  24.1645088
   7.4769635   2.8928552  23.6107903  86.4646072  49.5775452  15.0205097
  86.4784012  48.9247894  15.7204723  87.1163559  50.2266045  15.2854204
  40.7932396  46.5701103  40.0016518  40.3716888  47.4107018  40.1803398
  40.7430763  46.0957985  40.8315620   3.1423657  11.7858009   7.1457877
   2.8748350  12.2976923   6.3824887   3.9179268  12.2381268   7.4776583
  52.9792938  26.6547165  25.4763374  52.0319786  26.5985107  25.3511696
  53.2121239  25.8356800  25.9136028  52.6859703  44.4284134  67.6827164
  52.6540146  45.3281555  68.0077896  53.1209183  44.4961472  66.8327408
  74.8717575  69.8471603  78.7852554  75.7563095  69.5114975  78.6398621
  74.6103058  69.4761505  79.6279984  22.0269032  68.7409821   4.3449707
  22.8799648  68.5752716   4.7462897  21.5832500  69.3265839   4.9585466
  27.8063812  48.9780960  20.6864071  28.2871208  48.5214119  21.3767376
  26.8847179  48.8407707  20.9052944  64.4128799  21.9095478  88.2155609
  63.5249672  22.0017281  87.8701096  64.6537323  21.0043201  88.0186234
  74.5888824  51.9767647  51.6632271  75.4831924  52.2571678  51.8577156
  74.1103134  52.7915230  51.5103683  60.1814537  67.8967896  11.2868891
  59.9213295  68.4235916  10.5312138  59.3639526  67.5130539  11.6041718
  83.1702118  62.5146828  87.6331558  83.7208633  61.8701210  88.0776291
  83.1650238  63.2707291  88.2201767  69.0595703  66.8208847  14.5528631
  69.7895279  67.4397659  14.5335455  68.3697128  67.2482758  14.0452595
  56.0433846  28.5605927  65.5858307  56.4442253  27.7550087  65.9123154
  55.8483124  28.3757839  64.6671219  51.7829247  46.6840668  44.9414864
  52.1780014  47.5554390  44.9707413  51.4572716  46.5986977  44.0454407
  21.7355042  45.6864738  67.3848648  22.4397526  45.5373535  66.7539673
  20.9351711  45.4721489  66.9055252  21.1293602  63.0603447  69.2606049
  21.5020409  62.1854668  69.3698273  21.6147652  63.4375725  68.5269089
  41.0619202  54.2254143  64.4524002  40.7031517  53.8669128  65.2641830
  41.6271896  53.5313606  64.1132965  43.9007492  11.2531347  20.7423916
  43.5581932  10.7148380  20.0288620  44.4859314  11.8767033  20.3123283
  46.3085709  22.7974567  47.2325935  47.0045128  22.1535454  47.3640175
  45.8474922  22.8262672  48.0709305  45.1009483  66.5091782  54.2071075
  45.1272469  66.9728470  53.3701172  44.2574234  66.0567627  54.2038879
  12.6611252  67.1467133   0.8788770  12.9588451  68.0021973   1.1883032
  11.9642000  66.9011841   1.4873511  72.3724060  59.7907639  41.4346313
  72.3665314  59.5363846  42.3573914  73.2554932  59.5776291  41.1330452
  37.0764351   1.4494593  20.3809986  36.7427483   1.0425071  19.5814533
  36.6686554   0.9530433  21.0905876  85.2879410  35.0578842  29.3396358
  85.3547134  34.4018822  28.6457787  86.1904297  35.1941986  29.6280231
  35.9120827  61.5255737  82.7854919  35.9442253  62.1721611  83.4905624
  35.0061188  61.2166023  82.7849808  56.2547722  43.6220207  44.3234863
  56.6603165  44.3054390  43.7899094  56.7697678  42.8366280  44.1386299
  20.2107811  27.4175587  10.7614326  21.0656700  27.6602440  10.4057646
  20.3342896  27.4288025  11.7105646  32.7541199  21.2317829   7.6670098
  32.7461586  21.9140930   8.3382931  32.6675415  21.7075043   6.8409200
   3.6573246  17.2697086  63.7197533   2.9455993  17.7756081  64.1118546
   3.2661099  16.8670330  62.9444885  17.9749985  32.0583191  62.4777641
  17.5061359  32.1146584  61.6451607  17.7958736  32.8931274  62.9104767
  25.1796799  54.9605255  75.2565308  24.4103737  55.4797096  75.0223389
  25.6486320  55.5007057  75.8925476  71.0540619  36.5113297   5.4061689
  71.6163025  35.8349571   5.0284934  70.7352753  36.1288185   6.2236567
  53.5127792  41.4041710  84.4006042  53.3049622  41.5825958  83.4834290
  52.8731422  40.7437820  84.6670303  85.0836105   3.4561467  37.8021393
  85.7819366   4.0337934  37.4940987  85.0125427   3.6442306  38.7379837
  29.1671467  68.1118469  37.6433830  28.8239365  67.2870941  37.9872131
  29.5519810  68.5468674  38.4042358   1.8236482   9.2739725  42.2876663
   2.1551497  10.1719351  42.2867889   1.0492401   9.3050966  42.8494072
  52.5134621   7.0738549  28.7710896  52.6460381   6.8928599  29.7016258
  52.9043694   7.9372387  28.6369553  46.7544937  37.4178696  18.7014580
  46.9336853  38.0517311  18.0069485  45.8007240  37.3376350  18.7122498
  68.8250427  33.7089653   5.6308956  68.0653458  33.3853951   6.1150389
  69.2449875  34.3268776   6.2292829  51.2459335   9.6089029  75.4708710
  50.3388100   9.3331490  75.3392792  51.2028465  10.5644188  75.5077972
  40.9612961  39.4995308  41.8915024  40.7243004  40.1820335  42.5194016
  40.2203560  39.4628296  41.2866096  83.3754196  59.7761841  17.6234245
  83.4091949  60.3299217  18.4034672  82.7890396  60.2399635  17.0256805
   5.8679199  52.9788284  25.1091042   5.2864151  52.6096191  25.7737617
   6.0448775  53.8689384  25.4134388   3.2929671   7.3521113  74.3160782
   2.8713434   6.7851028  73.6703491   4.1541033   6.9579244  74.4549866
   5.2900629  47.8589668  76.8721466   5.4104438  48.6416245  76.3343887
   5.4829860  48.1489677  77.7637253  80.9570007  15.3737278  38.2305298
  81.8113632  15.7953815  38.3227348  81.1058502  14.4685955  38.5040474
  50.4118271  42.3482513  28.1235332  50.3874626  41.8835678  28.9600182
  51.2778358  42.1524200  27.7658920  49.4825325  71.3764267  82.9586868
  49.0616722  70.5192490  83.0246277  49.1585846  71.7395325  82.1344070
  49.7093620  18.9091949  88.3267288  49.8243332  19.7976532  88.6638641
  49.6627884  19.0176239  87.3768311  15.5473013  42.1082077  61.1352158
  14.9839211  42.4037857  61.8503876  16.2842617  41.6809616  61.5717735
  24.9764614  38.2314262   0.2141882  25.3240967  39.0694695   0.5192625
  25.6712513  37.6007843   0.4033582  53.2079773  25.4433022  10.1182327
  53.5921555  24.8616486  10.7742195  53.8601112  26.1337700   9.9990482
  84.7925110  53.3520966   2.3399796  85.4574890  53.8746452   2.7882802
  84.8478622  52.4897232   2.7516654   4.0285358  41.1208115   2.5044842
   4.9807277  41.1833267   2.5796783   3.6988144  41.8585815   3.0175261
  27.6702118  31.0591011  85.9258194  27.5242290  30.3488998  86.5507507
  28.6222095  31.1117802  85.8412170  86.6165466  33.1651268  63.3537292
  85.7842484  33.3137627  63.8025398  86.7801819  33.9788094  62.8768921
  68.7246780  66.0582428  45.2723618  67.9878616  65.4472427  45.2761116
  68.4336548  66.7877655  45.8194695  37.0215149  59.6142197   0.6465182
  37.5150681  60.3966331   0.8924122  37.4413223  58.9038925   1.1317315
  63.9997139  53.3500786  60.8630142  64.9565353  53.3247795  60.8540039
  63.7437363  53.0402069  59.9942856  77.6648407  19.0032444  45.3994904
  77.9384842  19.8270683  45.8028069  77.3308334  19.2571087  44.5391312
  74.2374115   1.9191316  44.6462479  75.0075455   1.6917548  44.1252708
  73.4952469   1.7265738  44.0732384  18.3700428  59.8448143  25.9825726
  17.7058926  59.8968430  25.2952366  17.8707981  59.8539009  26.7992134
  67.1018753  40.3882065  24.9019337  67.3244019  41.3058090  24.7447166
  66.1631012  40.3979950  25.0885658  67.0416107  53.4137878  66.4855881
  67.2598724  54.2537346  66.0817566  66.5970230  52.9238014  65.7938614
  44.2767372  47.8654480  19.0616970  44.0838318  46.9424133  18.8973045
  45.2018700  47.8767700  19.3071251  60.2381744  62.7855873  22.8727989
  60.9904747  62.8864861  22.2896194  59.6835442  62.1376152  22.4383430
  37.5872803  28.8625736  19.4819832  38.2010880  28.4024639  20.0544968
  36.7648087  28.3822842  19.5773373  23.7690907  65.9672089  10.5496140
  24.3166313  65.7423782  11.3018656  22.9598217  66.3036804  10.9344530
  27.5771751  36.8805656   0.3242622  27.9114952  35.9853172   0.2695626
  28.0950470  37.2876129   1.0187802  60.7232475  29.9089718  74.7846146
  60.4589920  30.8240242  74.6893158  61.5735016  29.9495659  75.2223892
  14.7117643  35.3916283  31.4905910  14.6122913  35.9588852  30.7260284
  14.2573767  35.8555908  32.1937981  19.1959686  19.5326099  82.4722748
  18.2505627  19.4123325  82.3830032  19.3009453  20.4618053  82.6767502
  15.9103346  48.1934547  13.5465651  16.0769329  48.0631218  14.4801016
  16.7235565  47.9257812  13.1184835   7.4199185  63.5362053  70.3554611
   7.8624730  64.0021210  69.6460266   8.1205311  63.3102531  70.9672775
  63.3412094  41.4422531  61.8790855  62.4448357  41.6221466  62.1626053
  63.3886642  40.4876976  61.8261566  54.8404312  44.7722397   1.7926422
  55.2461243  44.8402176   2.6569486  55.5592384  44.5292740   1.2091027
  60.2339554  70.9251099  19.3080730  59.9247246  70.6831589  18.4351063
  60.1084785  70.1352768  19.8340511  74.7127380  33.8085060  75.2963181
  74.9016876  34.2006760  76.1488037  74.9045029  34.5025330  74.6656113
  41.6439323  65.7931213  74.3277054  40.7955551  65.9254150  74.7507629
  41.8054466  66.6093140  73.8544464  16.3914127  41.0917816   5.4836216
  17.2555904  41.3557701   5.1678052  16.3611813  40.1464195   5.3366179
  25.1228523  38.9191628  10.7718382  24.4981670  39.6023560  11.0152473
  25.8572292  39.3938103  10.3824406  55.6829453  59.9706497  66.4922791
  56.1198387  59.3641586  67.0902100  56.2711411  60.0301971  65.7394791
  71.5583572  45.3455620  81.4206314  70.9152527  45.1155663  82.0912628
  71.2097321  44.9656563  80.6141739  50.1781120  15.0826263  82.2537231
  49.3700523  15.2755566  82.7291794  49.8998260  14.9680328  81.3450699
  16.2666950  24.0698929   9.3503637  16.9219017  24.5895996   8.8847027
  15.5458050  24.6794033   9.5086212  24.3687210  60.6832428  70.9179840
  24.4459476  60.1156883  70.1510773  23.4337502  60.6828423  71.1230774
  80.1904068  48.3261185   9.9421110  80.7576523  47.5749931   9.7681236
  79.4047928  48.1586342   9.4215364  18.5115566  69.7934647  54.7195511
  18.4202003  69.3014679  55.5355301  18.9553642  69.1895218  54.1241302
  62.2979279   1.4771235  88.8091049  63.1104851   1.9705987  88.6974564
  61.7100830   1.8292832  88.1407776   5.0187864  44.1321678  42.4174500
   5.8778567  44.2843742  42.8112297   4.4698048  43.8409195  43.1454773
  61.8938675  37.9008789  19.9488449  61.9108467  37.9228020  20.9056435
  62.4649887  37.1689110  19.7158718  36.1581573  55.5484200  40.9658775
  35.6570663  55.0991669  40.2852097  35.8178482  56.4430809  40.9627266
  16.5227013  50.9320221  23.2695713  15.8914165  50.8548546  22.5541992
  17.0545826  50.1387215  23.2062569  85.1350555  50.7105141  87.4262619
  85.3571625  50.7461815  86.4958649  85.1571732  51.6235046  87.7129517
  44.4788399  60.8407478  46.9291954  43.5359001  60.6983147  47.0116997
  44.7868080  60.1049767  46.4000168  60.8401451  15.5669241   7.5476894
  60.7290192  15.7784929   6.6208010  61.7686119  15.3509159   7.6344156
  73.7967224  70.0604706   2.4519315  73.9495926  69.1394424   2.2408123
  73.8886566  70.5164108   1.6153339  21.9781170  10.4568663  14.7770452
  21.2017765  10.6982183  15.2822943  21.6321621  10.1437664  13.9412737
  30.2164192  31.8188591  17.4751511  30.1822834  31.5021210  16.5725193
  30.5523357  31.0762234  17.9770317  65.7586594  50.3179893  24.4339867
  66.6976166  50.3718948  24.6119919  65.6973877  50.2846718  23.4793301
  77.5773315  39.4006081  30.2088146  77.1822128  39.4314003  29.3375168
  78.2558975  40.0754013  30.1880665  64.5745621   2.0742567  28.8896980
  64.8646317   2.2977095  28.0053024  64.4349976   1.1276349  28.8639774
  75.6306458  41.8959961   2.4202964  74.7888412  41.5663757   2.7348475
  75.4112167  42.4109077   1.6437963  23.2365437  21.4496841  11.9156647
  22.6850414  20.6820145  12.0665321  23.0416050  22.0325851  12.6494608
  58.5605431  22.0856724  49.9768448  58.0375328  21.4428596  50.4558907
  58.3826027  21.8999901  49.0548401  10.3075457  56.9373093  40.8451576
   9.5967445  56.3116837  40.9850883   9.8714190  57.7878571  40.7941704
  83.4616623  48.0630875  86.6310043  83.4495010  47.4373512  85.9067535
  83.4926453  47.5184784  87.4175568  51.6395760  22.3955078  49.1854248
  51.7513313  22.0293941  48.3080978  51.3254814  21.6612720  49.7131348
  11.2602291  30.5406208  53.8323212  10.8801470  31.4168797  53.7695427
  12.1802588  30.6934872  54.0477524  48.3129578  66.2147903  29.6385822
  48.8239288  65.5540771  29.1710434  48.5358734  66.0821762  30.5599689
  35.7959213  20.9107590  77.7631302  36.6470070  21.3426018  77.8365860
  35.1612587  21.5938911  77.9793854  80.7565155  36.2365189  72.1829834
  81.3320312  36.3696938  71.4298096  81.3180161  36.3880768  72.9432297
  72.7780762  21.4577332  74.9365463  72.9582214  20.6555843  74.4463043
  71.8228149  21.5091267  74.9690857  81.3870468  65.8661041  16.0341682
  80.8588104  66.6424255  16.2199821  82.1892548  66.2105789  15.6416931
  49.7677383  38.1273651  83.7082062  48.8843765  38.3149643  83.3908539
  50.0564461  37.3796234  83.1849823   5.9431481  15.0324631  17.7712975
   6.8433094  15.1907578  18.0556984   6.0329151  14.5461864  16.9517174
   9.3991642  21.5542164  54.6194839   9.4002743  21.5930080  53.6630707
   8.6516542  22.0922813  54.8801498   1.0080602  43.3407860  82.0096512
   0.9060969  44.2831039  82.1433411   1.8045555  43.1154823  82.4903412
  60.4625969  28.0511951  72.9822540  61.3636093  28.2991219  72.7750397
  60.1664429  28.7193794  73.6003647  86.5722122  48.1453896  27.7817612
  85.8914642  48.4845314  27.2005577  87.2102890  48.8562050  27.8436317
  73.2843246  46.6061058  13.5319309  72.7310486  45.8652763  13.7794886
  73.7857742  46.8052673  14.3225718  45.2440224  10.7065754  87.5350647
  44.5581512  11.0110607  88.1292801  45.0761223   9.7694778  87.4356232
  70.4966965  10.5927057  69.5529022  70.2910538  11.5011358  69.3322296
  71.2979050  10.6482143  70.0736847   5.8781824  37.4837494  40.8791695
   6.1426535  36.6542625  40.4813728   5.6947112  38.0581474  40.1357727
  32.5209770  38.4865723   5.5327344  31.8394814  38.6508369   6.1845112
  33.0983963  39.2476196   5.5929341  12.7232885   6.9782271   6.6316495
  12.9146748   6.2857451   7.2641616  11.9418459   7.4093533   6.9776406
   4.6507077  41.8889313  87.5459976   5.5258465  42.2044411  87.3205643
   4.0648742  42.5981483  87.2813416  69.8661880  16.4054985  37.0261383
  69.5376740  17.1414642  36.5097427  69.3073654  15.6694918  36.7766495
  58.4788055  30.6216488  48.3740501  59.0187607  29.9647789  47.9345016
  57.7757874  30.1181278  48.7844925   8.9731407  56.9421043  72.2224808
   8.1553564  57.3736610  72.4699020   9.6161966  57.2685890  72.8518600
  31.5288811  52.6531639  21.4998093  31.8030357  53.4897842  21.1241264
  30.7633610  52.3986397  20.9846153  18.3089790  51.7302055  79.6238251
  18.7694530  51.8173447  80.4584579  18.8789005  52.1647720  78.9893417
  48.8984451  62.6434479   5.7249227  49.6539879  62.0560570   5.7438469
  48.1432915  62.0600128   5.6502395  82.6133881   2.5088246  62.0775795
  82.2887192   2.8478420  61.2433777  82.5609360   1.5574429  61.9861794
  52.5037689  48.5902786  41.0451088  52.0726128  49.3115234  40.5866928
  52.7874756  47.9989052  40.3479576  79.1959381  23.3982620   2.0733092
  78.5177917  24.0715160   2.0177612  79.9362259  23.7634144   1.5886791
   0.2605087  27.8927822  81.9436874   1.0964996  27.7626038  82.3913498
   0.0804128  27.0518799  81.5233536  63.3417053  54.5956802  55.8204079
  63.2341461  54.0837440  56.6220245  63.1230583  55.4915009  56.0771713
   3.5045919  43.1168556  47.7306786   2.7709475  43.0317802  48.3395805
   3.7369750  42.2153397  47.5081940  48.3664284  43.4089584   8.1356659
  48.3706551  43.4924278   7.1821213  47.5539780  42.9423218   8.3316460
  57.4203110  47.1690254  61.1489639  57.4457283  46.6535263  61.9550972
  57.7487907  48.0307884  61.4052811  56.8230057  33.6534615  14.0692291
  56.4328041  33.3663559  14.8947868  56.0747490  33.8748589  13.5148563
  52.0012016  21.7372932  46.6491356  52.2534828  22.5508080  46.2123489
  52.0921593  21.0648136  45.9740562  86.4038925   5.8701215  60.8226089
  85.8364410   5.1052670  60.9187050  86.2738953   6.1525707  59.9173164
  16.1527767  24.0981445  21.4423008  16.2995701  24.6511574  22.2096729
  15.4573584  24.5418797  20.9567871  74.0402451  62.9788284  46.5203362
  73.9608154  63.3945961  45.6618156  74.8944931  62.5474892  46.4994545
  41.3124847   9.5328035  70.1197433  40.5962906  10.0868864  69.8094406
  41.0914192   9.3440256  71.0317307  51.3333435  23.1332569  67.7926941
  52.2118225  23.4736462  67.9619370  51.0597153  23.5675964  66.9847870
  20.3661098  50.1822243  61.0694275  21.2202377  50.6089058  61.1375504
  20.1142368  50.2954407  60.1529236   9.3903894   5.5840693   6.8505630
   9.6083965   5.8234925   7.7513299   8.4821491   5.2851877   6.8953037
  23.2063503  52.4239044  17.0090256  22.5901108  51.6923447  16.9729958
  22.6824741  53.1901054  16.7750912   3.3925078  30.1717834  49.1567726
   3.8573723  30.9324036  49.5054703   2.7097952  30.5436363  48.5983238
  82.6256409  37.3526039  35.1127434  82.7401047  36.8362045  34.3149567
  81.8544617  37.8926392  34.9399147  34.0651321  16.3200359   1.1612656
  34.7842216  15.7010851   1.2879113  33.3841133  15.8096008   0.7232013
  64.6417999   2.4432006   0.2940722  65.1640549   1.6427505   0.3466135
  65.2812271   3.1359251   0.1282428   8.5935831  60.0934296  19.2538280
   9.4111595  60.2220573  19.7347183   7.9075103  60.3048172  19.8869553
  60.2115593  35.7650642  19.1578217  60.9183693  35.1909943  18.8627014
  60.6139069  36.6319008  19.2121029  53.6330833   2.9844301  15.0765781
  53.6448708   3.9287791  15.2324562  52.7791100   2.6987441  15.4011402
  11.1526651  28.8538799  84.6536636  10.6017046  29.2901077  85.3035660
  11.9896660  29.3159237  84.7003403  83.9748306  28.1553898  20.3261852
  83.5365677  27.3190842  20.1688652  84.5220947  28.2883301  19.5521946
  36.5501709  11.9232521  18.2481136  35.9135284  11.5518398  18.8588314
  37.3516121  12.0142536  18.7635212  59.2091789   2.5426185  51.1826477
  58.6617050   3.3273170  51.1551819  59.1943893   2.2722719  52.1007576
  26.6006012  37.3309631  12.4284306  26.0520477  37.5939522  11.6894064
  27.3423615  37.9354362  12.4031725  31.3886681  59.8258858  16.4864445
  32.2138672  60.1241798  16.1039505  31.2308998  60.4271278  17.2143517
   3.1178229  61.0718117  63.3302040   3.2996724  61.7003975  62.6316032
   2.5243368  60.4354858  62.9313354  28.3400612  60.8475380  18.0836868
  29.2107983  60.8910370  18.4788532  27.8812428  60.1760139  18.5884342
   3.3757794  43.5006561  11.2944794   3.5218804  44.2750969  11.8377361
   2.9503574  42.8741798  11.8799515  55.1172371  19.5687408   2.7392955
  55.0408783  20.1006451   3.5314310  54.6590500  18.7556114   2.9517095
  10.0888157  33.0020561  54.5667152   9.5903711  32.7498779  55.3440132
  10.9442062  33.2657471  54.9058380  49.1672249  23.2067642   3.1238306
  49.1251411  23.3971596   2.1867013  49.0922241  24.0626869   3.5457354
  73.7292938  23.0210590  84.9829254  73.8609924  22.6441231  84.1129761
  74.6096039  23.2515087  85.2798691  71.0000381  47.4217720  48.8795929
  70.9925690  46.4646454  48.8888359  71.8949509  47.6566887  49.1248932
  79.4655914  24.2402306  16.0702591  79.0800552  25.1100636  16.1750774
  80.2017136  24.2292099  16.6820107  47.2069054   2.8867230  72.3564377
  46.7378654   2.1724162  72.7877121  46.8158226   3.6823673  72.7173157
  53.5345001  42.0205078  56.2684174  52.6943893  42.4787254  56.2905235
  53.3542061  41.1702690  56.6694336  12.7331400  58.4766083  70.0533066
  13.3774929  57.7782288  69.9379349  12.7619410  58.6769066  70.9888687
  52.6457901  21.2720680  73.0247116  52.2006493  21.8789673  72.4333115
  52.4285774  20.4039459  72.6849899  41.4678345  43.0088463  30.7231140
  40.7483902  43.1638641  30.1110687  42.1333961  43.6516991  30.4781609
  43.8271828  31.0733166  85.1415253  43.6971512  31.6393013  84.3806152
  43.2026672  30.3585281  85.0178680   1.6870211  41.8237610  35.9938126
   2.0044405  41.0837402  36.5113525   1.5591959  42.5252991  36.6323547
  85.0206604  58.7154655  62.6030998  84.6707077  58.7301636  61.7122841
  85.3973389  57.8406372  62.6980476  37.2294121  67.5429840  28.9461212
  37.6914482  67.9267120  29.6914463  37.6999321  66.7291412  28.7658482
  35.3163452  32.6281242  74.7227554  34.5573502  32.2194519  75.1388702
  35.7787056  33.0610924  75.4403839  66.3855286  18.5647831  68.0268478
  67.0724792  17.9075451  67.9156570  66.8354645  19.4024715  67.9169998
  82.9893646  42.4325333  37.8362656  82.8651199  42.3462982  38.7814407
  83.2037964  41.5475655  37.5411530  71.1428375  29.9457760  12.2218313
  70.6423721  30.5421143  11.6649199  70.4831314  29.5161533  12.7662983
  44.0291100  20.6607189  72.9167557  43.5910492  21.2638130  72.3162460
  43.4133720  20.5555019  73.6420288  28.1533356  47.9010658   2.6538248
  28.9206944  47.3902588   2.3960142  28.0534210  47.7273827   3.5898178
  64.8407822  48.7628975  44.1093559  64.2892914  49.0842438  44.8226776
  65.0139084  49.5367203  43.5732079  85.5089569  18.5528164  41.3655396
  85.0440903  17.7214966  41.4606018  85.8877411  18.5163422  40.4872322
  27.9509983  25.0427532  73.4358444  28.3865280  24.3369904  72.9578857
  27.0529270  24.7333508  73.5540314  63.2915192  58.7308464  38.9308891
  63.1047630  59.0692291  38.0551872  62.4603233  58.3593369  39.2263985
  22.2387295  52.9052734  80.4107590  22.6081314  52.3839111  79.6980515
  22.9826260  53.0870056  80.9850616  83.8691940  22.1394749  81.9003983
  83.3793106  22.7685089  81.3707123  84.4324951  21.6857643  81.2734451
  69.4797363  16.2252598  16.3791847  69.3990173  16.4618378  17.3031693
  68.5767136  16.1268940  16.0773582  56.8358955  52.8120308  80.2814636
  56.6011505  52.7921638  79.3537064  57.2143822  51.9493942  80.4512787
  67.5827026  28.1904697  72.5648422  67.4476089  29.1112576  72.3409348
  67.3430481  28.1312084  73.4896545  21.5881004  70.7177429  26.8987103
  20.6817818  70.7856827  27.1990490  21.5168190  70.4872742  25.9724064
  71.9354935  10.3285913  87.6206665  71.1204681   9.9643879  87.2752228
  71.6730576  10.7896461  88.4174042  58.4903297  45.7901840  31.8729973
  58.7405701  44.9086990  32.1497459  59.2527008  46.3312454  32.0786018
  51.4933014  58.8510590  19.2825718  51.6319580  59.3418121  20.0926132
  50.7041779  59.2360420  18.9013863  78.2117691   9.1910563  70.0939865
  79.0599518   9.0316210  69.6799774  77.8990784   8.3210773  70.3421631
   1.9343047  60.4310417   7.6144028   1.6355880  61.1554298   8.1641874
   2.8882756  60.5095711   7.6122584  22.7132664  51.7606392   5.8515258
  22.1462460  52.4319267   6.2311211  22.9371853  52.0985832   4.9844122
  21.2124882  68.4647827  68.3112259  21.5990009  68.8513184  67.5254593
  20.5164452  69.0730286  68.5598145  45.4901428  29.5021839  40.4961319
  46.0495300  29.1240940  41.1746330  45.6785469  28.9836121  39.7139435
  39.6206131  50.6266251  71.2083969  40.4850922  50.6409111  71.6191406
  39.2580414  49.7723923  71.4430466  62.9646339  21.5919418  23.4315300
  62.1068535  21.3092289  23.1144848  63.2299576  22.2809753  22.8223763
  65.2481308  58.6334953  11.7912493  66.0268021  58.7881393  12.3260269
  64.5157013  58.8676262  12.3613062  50.8269691  50.6860695  49.8864555
  51.7835503  50.7204399  49.8864517  50.6189766  49.8044739  50.1959038
  66.3797150  43.8396225  59.7772713  66.6471100  43.3056984  59.0291710
  65.4312897  43.7212105  59.8292427  42.3737030  56.9752541  33.6133842
  41.7989197  56.7198372  32.8918457  43.1826057  56.4871559  33.4595222
  64.3724289  51.6206551  52.6668396  64.8382721  50.8039589  52.8463783
  65.0311584  52.3041573  52.7898712  49.3250351  37.5758781  74.4607239
  48.9174881  38.4382133  74.5414124  48.6126137  36.9579773  74.6247101
   7.1926794  34.6704445  54.7835274   7.5754018  34.1393776  55.4818993
   6.3244104  34.9061432  55.1103096  52.2258606  44.1681252  41.1874199
  52.6217346  44.9295998  40.7635422  52.9511452  43.5542221  41.3028069
  55.3305511  48.4506531   1.8184249  55.1470108  49.3685760   2.0183356
  55.2631035  48.0036545   2.6621516  80.9820251  63.1755791  42.7475624
  80.0922623  63.2581444  43.0906982  81.3025818  64.0759125  42.6939888
  72.1766968  27.3743038  36.0419502  72.6466599  26.6139069  35.6996574
  72.7184753  28.1229496  35.7924805  66.6443405  12.9711971  70.0754929
  66.3384323  12.4142628  70.7913589  66.0896912  13.7498121  70.1239624
  54.7037544  13.7491274  49.8963928  54.8989143  12.9202175  49.4592972
  55.5519753  14.0570583  50.2156639  78.9706955  44.1003609  36.6881409
  78.0633011  43.8323135  36.8330956  78.9029007  44.9239426  36.2050781
  12.0685892  71.5660629  30.1286545  11.2202101  71.1332169  30.0331020
  12.7036572  70.8498917  30.1335831  27.6970100  63.3591080  78.5617065
  27.2689114  63.5968056  79.3841782  26.9867229  63.0384026  78.0059433
   5.4863343  49.0635757  31.5726185   4.5331526  49.0364876  31.6559372
   5.7565961  49.7807884  32.1460266  56.1469231  67.0855026  52.8361969
  56.5239372  66.2116547  52.9385834  56.4971466  67.5853577  53.5735741
  35.5474434  35.2713890  28.8582344  35.5434227  36.1953659  28.6082687
  36.4706230  35.0199356  28.8310852  43.5122261  34.5647278   8.5469418
  43.0645599  33.7187195   8.5370579  43.7835045  34.6815338   9.4574337
  26.5550938  68.7238922  27.7846146  25.7166100  68.9625015  28.1798897
  26.6002369  69.2472534  26.9844360  10.9763050  38.8306198   3.7783449
  11.5380754  38.2109947   4.2438669  11.0602283  39.6469269   4.2711225
  11.5747118  49.3739815  71.9991074  12.4879942  49.5486069  72.2263794
  11.1591053  50.2362442  71.9979172  84.6237030  61.6129303  62.5491943
  83.6802292  61.4885178  62.4461365  85.0123444  60.8276253  62.1638641
  37.6777534  61.1428070  21.5808868  37.6227875  60.2677345  21.1968899
  37.9642448  61.7032547  20.8597374  83.9333496  56.4387054  24.8502254
  83.6756897  55.5213203  24.7594433  83.1053009  56.9159546  24.9030952
   7.9541082  45.7658691  13.9484882   8.8033819  45.5469170  13.5650501
   7.5450091  44.9185143  14.1241512  66.9034805  15.4095068  84.4178772
  67.6983643  14.9120083  84.2258224  66.3615189  14.8075199  84.9279022
  40.9101295  29.1675205   7.8239388  41.4273338  29.9262886   8.0941210
  41.2099915  28.9775066   6.9350014  76.5678253   1.8100756  40.0502930
  76.4569931   2.7586174  40.1152344  75.6776886   1.4611886  40.0968094
  22.9346695  14.1639585  71.8366165  23.6163445  14.6125965  71.3363419
  22.3218403  13.8452044  71.1739960  64.5315323  23.3462563  80.8450394
  63.8596764  23.9103680  81.2279510  64.9844437  22.9677525  81.5985870
  64.7124176  39.6953163  76.3625870  65.5123215  39.9077606  75.8816986
  64.3210449  40.5453453  76.5638580  39.2642975  46.5181160  53.4691162
  39.9475174  46.3170395  54.1086540  39.6156387  46.2031860  52.6362839
   8.0155230  50.1963081  52.8077888   8.4155865  49.3653145  52.5516090
   7.1317358  50.1594772  52.4420052  50.3405609  32.1213684  34.1549683
  50.8985176  31.4475269  33.7665634  49.5176353  32.0597534  33.6699677
  29.7993279  45.0136414  78.1637878  30.4350567  44.3129997  78.0182419
  30.2825031  45.6768951  78.6566086  21.1453896  40.9067993   3.0664337
  21.6730022  41.5608521   3.5247738  21.2403526  41.1287651   2.1401799
  76.2383881  61.1047554  43.8118744  75.4694138  61.6339645  44.0236473
  76.0245514  60.6965408  42.9729080   8.0690098  63.5495262  25.1228867
   7.2104826  63.9254913  24.9284286   8.6911983  64.2357941  24.8817368
  62.7102242  67.1028748  34.3011703  61.8504791  67.3617706  34.6329002
  63.0661163  66.5294495  34.9799652  16.5642376   4.1444664  84.2816010
  16.1462383   4.0730600  85.1397400  16.9421101   5.0238671  84.2716751
  58.2026596   2.8276067  35.7891350  58.8831863   3.0677955  36.4179573
  57.5937462   2.2854204  36.2906227  86.1759262   0.8219938  62.7753792
  86.5047150   0.2890606  62.0514221  86.1175919   1.7065889  62.4143791
  64.6649628   4.5059142  36.7209015  64.2984161   4.5288663  35.8369598
  64.8910141   3.5866556  36.8626556  51.7231293  24.7455578  27.4894028
  52.0406227  24.0726471  26.8872242  51.3445930  24.2548504  28.2188873
  83.7618637  54.6649857  64.1570969  84.4622726  55.0579033  63.6362495
  82.9575958  54.9055176  63.6971741  12.1248369  13.4146004  75.2664490
  12.3914871  14.2786722  74.9525833  11.1891651  13.5037994  75.4475403
  62.7381325  38.7434464  41.5175743  63.6372261  38.6983032  41.8428841
  62.2478752  39.1610298  42.2257462  38.4475975  43.4189949  78.8033752
  38.3085709  42.7990456  78.0874405  39.2497368  43.8838768  78.5652771
  47.1322937  22.1386681  83.8246994  47.0134659  21.6486340  84.6383209
  47.9354820  21.7819576  83.4453888  38.9867592  30.2163925  60.2401123
  38.6333084  30.9177952  59.6929970  39.1753502  29.5061340  59.6267624
  77.4718781  59.2873268  45.5736160  78.4102020  59.1576195  45.7112732
  77.4190598  59.8633537  44.8109703  69.8583450  52.8762398  19.1291332
  70.4626312  52.4568214  19.7416363  69.3882599  53.5198021  19.6592999
  78.9638290  64.4269714  85.6833038  78.7628250  64.6421890  84.7725296
  79.6435165  63.7553978  85.6263351  27.3717575  49.8190689   8.1937952
  27.3036613  50.4898262   7.5143228  26.4713135  49.6858025   8.4898882
  29.3070450  48.7823143  66.4788361  28.8827877  48.9145355  67.3266373
  29.8972359  49.5303078  66.3871078  49.3509102  24.6039181  69.3406448
  48.6740990  24.2282162  68.7776031  50.1755142  24.3215199  68.9450302
  69.9074554  41.4091988  27.7911758  70.2860794  42.0736923  27.2155724
  70.4238663  40.6216431  27.6199818   0.8726828  34.9260902  57.3465309
   0.2738030  35.0002403  58.0895500   0.2996075  34.8418655  56.5844803
  64.5434113  27.1229534  57.1776276  65.0349655  26.5193348  57.7346268
  65.1918640  27.4608288  56.5599098  71.3639603  51.0240021  25.4257584
  71.4896317  50.5945702  24.5795765  70.6614075  51.6556282  25.2718067
   6.4853477  33.6195602  35.7084579   7.2429733  33.0362854  35.7534904
   6.2291508  33.7503281  36.6214180  44.8701363  34.2983170  67.4219513
  45.7732391  34.5564041  67.2374802  44.5386467  33.9720192  66.5853653
   4.7633319  36.9701385  64.9529724   5.2905793  36.6588516  64.2172089
   5.3244143  36.8471603  65.7186737   6.1862164  59.0131683  51.2245064
   6.4688182  58.1045456  51.3282967   6.8906145  59.5293427  51.6164513
  16.4899654  64.1020889  82.6198807  16.5730095  63.6015778  81.8082047
  15.6350060  63.8511391  82.9696045  40.5146904  47.0560951  82.4441986
  41.1290321  46.3440132  82.6224136  39.7036819  46.7862015  82.8750687
   3.6962557  27.7683544   0.3379622   4.3102303  28.3396740   0.7993317
   2.8373156  28.1576099   0.5020785  49.3798332  49.3625946  83.1976852
  48.7537308  49.6522598  83.8612518  49.6675797  50.1698341  82.7713089
  61.0183144  20.6842194   0.7508824  61.3819199  20.5838051   1.6306201
  60.7263145  21.5950851   0.7149348  52.3920937  18.8792381   1.7431194
  52.3573151  19.6788311   2.2681651  52.4045334  19.1879520   0.8371542
  56.6442833  71.7148743  80.7033157  56.4328613  71.0365372  80.0619125
  56.0661049  71.5326309  81.4440765  54.1278648  18.0259838  79.1207581
  53.4622002  17.6058235  79.6653595  54.8613853  18.1809006  79.7158966
  23.1505852   5.9150944  85.7920761  22.7141418   5.4698772  86.5183868
  23.2202454   5.2478743  85.1092911   9.7575064  55.1771660  58.1686516
   9.1213446  55.3626518  58.8593941  10.3147364  55.9549637  58.1410866
  45.5835266  63.3346329   3.9497361  45.5002098  63.4176445   4.8996830
  45.0554085  62.5673981   3.7291198  60.4280739  61.4128647  70.3854523
  60.7346306  60.6975212  70.9427109  61.1655960  62.0220032  70.3502579
  75.6554260  43.4955978  46.1797371  76.4820862  43.5606041  46.6578979
  75.7020950  44.1921806  45.5248871  67.5877991   0.9606326   6.8765903
  68.4792404   0.6292973   6.9851365  67.5527267   1.7399355   7.4312878
   5.7702570   0.3702668  69.5695114   4.9843025  -0.1277484  69.7942047
   6.1974921   0.5355674  70.4099731  57.7306595   4.9150252  60.9147987
  58.5286331   5.2849536  61.2924500  57.9812202   4.0320096  60.6432571
  16.3732147  31.7139778  84.4558182  16.5913124  32.5535736  84.0511627
  16.5422516  31.8465691  85.3885956  60.0508995  52.8999786  55.8994408
  59.3374481  52.2619324  55.8885536  60.8213005  52.4025269  55.6251106
  43.1465683  45.8042831   5.0782499  42.7498436  46.4086494   5.7056084
  44.0458488  45.6945152   5.3872399  65.1784744  48.2237511  30.9215946
  65.9901810  48.0318642  30.4519806  65.4407196  48.2789421  31.8405132
  54.0920563  51.9596558  53.6611137  53.9653244  51.2990761  52.9800835
  54.1967468  51.4550362  54.4677315  57.7624435  48.0297127  11.4773302
  58.0364227  48.9442558  11.4081774  56.8458061  48.0742149  11.7494097
  84.4218750  37.9224167  16.3853645  83.8300858  37.7369080  17.1144791
  85.1184998  37.2715340  16.4707432  72.0366898   2.6930287  73.1277542
  72.5477753   1.9903414  73.5293274  72.3569183   3.4917569  73.5469437
  12.6504021   6.6515307  66.4782715  12.7625427   6.8837156  65.5564499
  11.9609280   7.2374172  66.7906723  39.9414558  34.7491188  14.3748398
  39.9035378  34.2603798  15.1969881  39.4032249  35.5248413  14.5323019
  42.6544189  31.2371387  44.6152573  41.9735603  30.5643673  44.6218109
  43.1176491  31.1010609  43.7887421  50.2801437  21.6067924  15.8937550
  49.3327560  21.4915199  15.8203087  50.3881454  22.5001869  16.2199688
  58.2852554  28.6833038  76.6641083  59.0880089  29.1483517  76.4284210
  58.4257660  27.7894764  76.3517685  15.0035505  33.3728142  76.1668091
  15.5647020  34.0775757  76.4903030  14.3027601  33.8223076  75.6944885
  80.4607468  28.1615753  63.3208237  81.0513458  28.9076214  63.2167206
  79.7832108  28.2982330  62.6586266  14.0057201  12.8444729  77.4940720
  13.0748320  12.7599039  77.7003021  14.0452824  13.5527344  76.8514023
  24.1612225  49.0851097  84.0691299  24.5670223  48.3720818  84.5622330
  24.2801647  48.8397865  83.1515732  11.3844538  16.4363003   5.8012586
  10.8886404  15.8469048   6.3696008  11.4559269  15.9648333   4.9712930
  23.5564022  42.3527641   3.7917540  24.4540310  42.2892075   4.1180315
  23.3291206  43.2769051   3.8943949  36.8443069  69.3198395  16.4059696
  36.2817383  69.7203903  15.7431669  37.3906898  68.7049255  15.9165010
   6.5234246  42.1910858  26.4985733   7.0191827  42.0794411  27.3097401
   6.4890242  41.3142166  26.1162777  59.1124306  43.2228279  49.6506653
  59.8434296  42.8780365  49.1378365  59.4188538  44.0746040  49.9618149
  49.9020004  41.8175621  30.7145157  48.9963837  41.5525360  30.5537224
  50.3262634  41.0284500  31.0514584  74.2461014   7.4742961  33.1636391
  75.0630188   7.5269241  33.6597328  73.5608292   7.6309466  33.8133278
  16.6298485  51.0326118   4.3503327  16.6106205  51.9801331   4.2159319
  17.0126514  50.6842117   3.5451546  83.9358444  51.6359253  81.6252975
  83.8682404  52.1645203  80.8301544  83.8420181  50.7331047  81.3214264
  64.5906219  44.6505470  22.4703712  64.0282211  44.6506767  23.2449303
  64.0300446  44.3221855  21.7674065  69.0672989  45.2314644  83.1826248
  68.6595001  44.3658943  83.1557693  68.5719986  45.7090416  83.8480759
  76.5940018  20.4827805  42.9687958  76.9700623  20.7563839  42.1321678
  75.8872757  19.8833370  42.7291222  80.1742859  27.1181583  35.1996002
  79.2381287  26.9672661  35.0689011  80.2175446  27.7397213  35.9262505
  84.6348190  24.9697189  84.7255783  84.7613449  25.2509537  83.8194122
  85.5011597  24.6773930  85.0088196  22.5309582  63.8824387  49.0875549
  23.1055546  64.3255844  48.4633026  21.6962795  64.3453674  49.0151482
   6.7134390  41.3162651  62.6331596   6.3209329  40.8692055  63.3830338
   7.6535344  41.1632996  62.7283058  23.7223282  14.7614317  88.0104828
  24.4198418  14.1763611  87.7148514  23.6772327  15.4399300  87.3368073
  18.3862534  57.1669426  34.1197510  18.0081482  57.8671989  33.5878601
  17.6432686  56.6044502  34.3384018  58.0207939   8.4192533  31.9953213
  58.6700821   8.6925287  32.6433754  58.4064407   7.6475711  31.5805759
  14.3391495  14.1365957   9.9212770  13.9989634  13.9120731   9.0551968
  14.5771656  13.2951756  10.3106270  78.6311035  40.9027481  43.9799004
  78.2996140  40.0054970  44.0157356  78.4140701  41.2726250  44.8356590
  55.7039871  48.6414413  34.7494278  55.7098808  49.2264366  33.9918137
  56.6233826  48.5739708  35.0070877  32.0976562  63.2122650  40.1333694
  31.5477295  62.5418510  40.5387802  32.4760132  63.6901741  40.8713913
  43.8540916  49.0536957  81.1428070  44.3682098  48.5922012  81.8053284
  43.0121574  49.2207222  81.5664520   5.6983480  44.2571678  70.0091095
   6.6065259  44.5431404  70.1074295   5.6468077  43.9276237  69.1119080
  79.4866638  11.9825764  31.8175659  79.7152328  12.8281469  31.4315624
  80.0716171  11.3577147  31.3890667  37.0958214  48.1602478  82.0392838
  36.3129845  48.4137192  82.5283127  37.7244148  47.8989029  82.7121964
  36.9628258  32.2548752   8.3461180  37.3733444  32.0582428   7.5040712
  37.3542213  31.6289024   8.9553766  19.9117298  15.2951365  73.8922882
  20.1149883  15.6641235  73.0327759  19.1343269  14.7567139  73.7440338
  17.0133286  29.6439590  65.1417770  17.3398418  28.8360271  64.7457123
  17.7570248  29.9845772  65.6388931  24.2722111  18.1379757  82.8133011
  24.6033535  18.3877926  83.6759491  23.3929634  18.5144939  82.7760086
  49.6366463  43.6511574  36.3691063  50.4463425  43.8310890  36.8468590
  49.9210320  43.4822159  35.4708786  74.6837540  11.5323792   6.6734095
  74.9541016  10.6705256   6.3566260  74.5193100  11.4034595   7.6075234
  77.4215469  27.2203159  42.7985649  77.8831253  26.6993828  42.1414452
  78.0674133  27.3588409  43.4913101  21.9408283  55.9196320  50.1834412
  22.2534504  55.0151062  50.2016525  21.4672699  55.9927330  49.3548088
  18.4105568  28.6895065  75.9598236  17.9953308  29.5374947  76.1171036
  17.9703369  28.0915527  76.5638885  49.2724342  68.3253403  41.7538147
  50.0374413  68.2138519  42.3182297  48.9219856  69.1836014  41.9921570
  69.7105255  67.0897446  76.5787201  69.8903198  67.9514389  76.2026901
  68.7738266  66.9559937  76.4340363  26.4081631   8.0737333  83.3209991
  26.3923969   7.6645226  82.4558258  25.8343620   8.8351860  83.2362976
  63.7106743  35.7855415  11.1934891  63.6800079  36.1984329  12.0565147
  62.8102875  35.8346443  10.8723574  61.1843300  26.2148533  42.1306648
  61.6794167  25.6051464  42.6778221  60.5620232  26.6247234  42.7314720
   3.7378194  46.0952072  67.4571915   3.3043873  45.8270950  66.6469498
   4.6723428  46.0511055  67.2548218  47.4603310  61.2559319  69.0655212
  46.7199631  61.2774391  68.4592056  47.4479294  60.3698387  69.4273529
  18.0284481  42.7531891  44.6733131  18.1694927  43.6146011  44.2804909
  17.7233963  42.9417076  45.5608025  38.8613510  43.6973801  47.1341591
  38.2428856  44.1364326  46.5502396  39.5685349  44.3311653  47.2543106
  45.5114517  10.8864069   7.3393674  45.1483727  11.6521931   7.7843127
  46.4596214  11.0079737   7.3886008  40.7887383  53.2202492  20.6450138
  40.9474106  52.3491554  21.0086708  40.6617737  53.0692825  19.7083588
  78.7373581   8.5813112  47.0063210  79.4998322   8.0107660  47.1030006
  79.0971985   9.4679899  47.0297050  13.9540091  49.9977074  12.6102438
  14.6536961  49.4002953  12.8743801  14.2532482  50.3639984  11.7780657
  54.7571106   3.1256220  47.6432076  54.3269234   3.6971545  47.0071869
  55.3894844   3.6922388  48.0851135  22.8330173   2.5145290   0.0241636
  23.2566338   1.6847614  -0.1955338  23.2412415   2.7811375   0.8478777
  55.5351410  55.3714409   4.8822436  55.6245537  54.7813225   4.1339126
  54.8119926  55.9517784   4.6445608  86.1248245  23.6911087   0.7612718
  85.2027359  23.5978642   1.0006289  86.4070969  22.8024845   0.5447059
  78.4826050   1.8546836  55.4719315  77.7030640   2.3322940  55.7555466
  78.4798431   1.9364878  54.5182343  48.7813148  12.5342131  52.2944450
  49.6579132  12.4905252  52.6764069  48.1969376  12.6306610  53.0463982
   1.7644427  24.3174458  82.4248047   2.0905795  24.9558449  83.0590897
   1.4584239  24.8465500  81.6881714  23.8360367  46.1612473  26.7428379
  23.6885586  45.2584648  26.4609394  24.2574024  46.0792160  27.5983810
  77.6045303  38.0988693  66.5610123  77.7040939  37.6604576  67.4060593
  78.4362869  37.9462662  66.1125412  47.4995537  23.8493805  86.9663544
  46.9900780  23.0501251  87.0999908  46.8499413  24.5102005  86.7264557
  32.5670166   6.0606565   7.3117075  33.3017845   6.1931734   6.7127175
  32.9700203   5.7361898   8.1170273  82.4773102  24.0838146  80.6694412
  82.3430405  24.8075409  81.2813492  82.8226242  24.4992142  79.8792343
   7.9182348  64.1556320  40.7094574   7.6030722  65.0492935  40.5742836
   7.7958822  63.7277603  39.8619995  38.5547943  55.7355652  33.1436386
  38.0870361  56.5676117  33.2152824  38.0812073  55.1434784  33.7279167
  55.3844299  12.0621319   2.8902607  54.8288078  11.6200275   2.2483428
  55.4896927  11.4239292   3.5958450  64.8334961   4.2887311   3.8506830
  65.4886322   3.7501874   3.4068365  65.3216324   5.0503130   4.1636515
  66.2033615  16.2018833  23.7495556  66.2343750  17.1425095  23.5749340
  66.8869247  16.0570641  24.4037704  52.8147621  39.7296829  31.6651077
  53.6714859  39.3030930  31.6817322  53.0099182  40.6625214  31.7543259
  72.8374176  27.9398670  59.8042030  73.2976532  28.7488003  59.5805054
  72.4654388  27.6388435  58.9752007   5.4347191  68.8814774   9.6154804
   5.2169108  68.2779388   8.9051771   6.2171893  69.3397293   9.3089294
  62.4503403  21.1815376  71.7575836  62.1177940  21.0483418  70.8699493
  62.8175430  20.3330822  72.0056076  18.6380577  42.5722008  41.2412529
  18.3421040  43.3291512  41.7468910  19.2520905  42.1219368  41.8212967
  63.8493652  62.5898972  77.5273285  64.1095810  63.5088501  77.4637299
  63.5415802  62.3667717  76.6488495  43.9305916  66.5176163  24.6022358
  43.4657822  66.5121994  23.7654839  43.9129028  65.6054840  24.8919563
  33.3897324   7.7134895   9.8732252  33.3499603   8.3334570  10.6014357
  33.4676323   8.2639437   9.0940189  60.2564125  54.5546684  85.3465652
  60.5437737  55.3116379  84.8360214  59.3320656  54.4504585  85.1208267
  77.6435928  52.6803551  52.3357201  77.6732559  53.5943184  52.6186066
  78.4913635  52.3210411  52.5972672  85.6358795  11.9474211  23.6453094
  85.5966873  12.5606508  24.3792343  86.2924728  11.3020487  23.9072361
  15.5483713  17.0369263  31.0486946  14.7034245  17.4846687  31.0913887
  16.1357861  17.5836639  31.5704746  37.1298714  50.3792114  32.8111038
  36.8074341  51.1459885  32.3374786  37.1304665  49.6780052  32.1595383
  85.3287506  71.1267548  50.3881302  86.0982666  71.2678680  50.9396362
  84.7661209  70.5501099  50.9050102  65.9535370  61.8187637  42.0727806
  66.8411407  61.6731529  42.4001808  65.3990479  61.7631111  42.8510361
  14.6438866  46.1032028  69.4203796  13.7499743  45.9361839  69.7191467
  15.1139936  46.3717804  70.2097473  11.3883524  49.7183113  24.4181805
  11.9131918  50.5163116  24.3551712  10.8852034  49.8256683  25.2253647
  76.0139847  23.4012833  36.6772995  75.3892441  22.6929703  36.8329391
  76.7804031  23.1636467  37.1991959  27.1005497  65.9489594  32.7548637
  26.9533348  65.0219803  32.9426613  27.7831955  66.2128448  33.3717842
  63.3189583  35.5100441   0.0437981  63.2717896  36.2177200   0.6866039
  64.2541199  35.4102249  -0.1343428  25.8904896  65.9673691  61.7036324
  26.4103489  65.1818924  61.5333176  25.1099262  65.8605118  61.1599998
   5.3861423  51.0356369  65.1019516   5.4284110  50.2998428  64.4911652
   4.4557319  51.2558098  65.1476822   0.6222335  48.0098152  32.2929039
   0.1648391  47.8706512  33.1221542  -0.0226333  47.7833939  31.6227436
   4.0189099  12.4083109  62.7298737   4.8997474  12.7591372  62.8613205
   3.6014674  13.0273409  62.1308975  57.8454857  70.8081818  57.2026405
  57.3458633  70.6718063  58.0076294  58.2648239  71.6602554  57.3224602
  63.1907539  31.1317177  85.0302200  62.7133942  31.1612339  85.8593674
  62.5110016  31.0146885  84.3665390  18.7188091  16.6148472  65.8267136
  19.6628551  16.5795345  65.6725693  18.6292381  16.5596085  66.7781143
   2.1212752   4.5622616  86.8075027   1.3206954   4.7468653  87.2986526
   2.1502154   3.6074283  86.7467804  76.7793732  32.3189087  54.2486839
  77.2680054  33.0331917  54.6576691  76.5060425  32.6701508  53.4012451
  10.2669382  59.9284210  71.1686630  10.1164141  59.5888023  72.0508347
  10.3659849  59.1469650  70.6248322  53.7545090  24.3240242  42.2284966
  53.2854004  25.1519737  42.3317909  54.1109886  24.3598385  41.3408737
  35.8599968  21.4467049  71.5571976  34.9931831  21.6259937  71.9215164
  35.8357887  20.5178013  71.3274536  18.6956043  65.8889618  70.9772339
  18.9277363  66.2081833  71.8492737  18.1219921  66.5663834  70.6190491
  54.9012680  39.9884796  45.4479370  54.5722389  40.5775452  44.7689857
  55.6783257  40.4293404  45.7915306  27.0678959  53.0356445  17.7313347
  27.8965759  52.6768227  17.4138966  26.7722111  53.6138191  17.0281143
  41.8662376  63.4715652  26.4495296  41.4994888  62.6174736  26.6781273
  42.0572128  63.4075279  25.5137634  27.7797031   1.0933906   3.8212857
  27.0686131   0.4979452   3.5845838  27.3373394   1.8762368   4.1494589
  53.7652512  17.1105633  69.0481262  53.2197685  16.9085197  68.2879562
  53.9057465  16.2647629  69.4737091  54.7157021  61.1261978  42.1605377
  55.4490891  61.6728783  42.4425163  54.9158592  60.9077988  41.2503319
  82.4309921  16.8215160  10.8883743  82.6305771  17.2588406  11.7161112
  81.7720108  17.3796005  10.4754372  52.0610580   2.5097592   4.3124247
  52.6977196   2.2209480   3.6586027  51.7919464   3.3794935   4.0168366
  69.7866898  28.5521812  44.7931023  69.8994980  29.0306301  45.6144371
  69.0787430  27.9332123  44.9717674  27.8573093  42.2611275  35.5313568
  28.3220654  41.4284286  35.6140938  28.1034813  42.5878601  34.6659813
  43.1657982  47.3691711  38.8576889  42.2422638  47.3000374  39.0996323
  43.6158905  46.7752953  39.4584923  11.8715649  48.7387199  81.5027008
  11.3042574  48.8950195  80.7477341  12.7599382  48.8181114  81.1552505
  47.1556015  66.9458160  70.5215607  47.8877449  67.4447479  70.8838654
  47.5210228  66.5085754  69.7524567  86.5313797  39.2397156  73.8395309
  85.6131668  39.4987869  73.7620621  86.9579773  39.9903297  74.2528458
  23.9108047  52.6609497  85.7346649  24.5129089  52.0816650  85.2676163
  24.4801712  53.2397652  86.2416382  34.8387108  33.1040459  84.7423477
  34.9230385  32.4411469  84.0570068  34.3842010  33.8314133  84.3173828
  77.8321457  28.5962830  61.9090538  78.2109222  28.0950699  61.1868706
  77.6699524  29.4640961  61.5391579  48.9401741   4.4066401  74.4815979
  49.0809479   5.1884871  75.0155716  49.7410965   4.3225622  73.9642105
  55.1348267  16.6067696  85.5778961  55.1148834  17.5580578  85.6822128
  55.2693329  16.2713852  86.4642639  40.4560966  59.5233192  75.1223602
  39.5904274  59.8758087  74.9159698  40.5986633  59.7596893  76.0388947
  68.9130859   4.2211466  63.5381966  69.3859863   4.6400065  64.2573318
  69.5843124   3.7307577  63.0636330  38.6214256  56.2654381  77.5911026
  38.4888115  56.5963364  78.4794464  37.9134979  56.6587563  77.0808334
  28.6568813  65.2120209  22.0553875  28.5480537  65.5595169  21.1701546
  29.4521160  64.6813507  22.0082932  46.9448357  59.8305130  57.8829041
  46.3847389  59.7666130  57.1093140  47.3521500  60.6939049  57.8130417
  58.6426430   8.8046541  75.2141495  58.8413048   9.2083473  76.0590134
  59.0977592   7.9629087  75.2379837  60.9166412  29.9636669  11.3291855
  61.3284073  29.3846130  10.6877995  60.7168808  30.7609425  10.8385916
  53.4041977  65.0905457  31.4528084  53.1471519  65.7794418  30.8399601
  52.6522751  64.9975891  32.0377884   9.1434374  26.3064079  73.5058899
   8.4792929  26.2166939  74.1893311   9.8007050  25.6450577  73.7223358
  36.7707672  20.9445114  64.6288834  36.2271805  20.8373947  65.4094391
  37.6233749  21.2188358  64.9665756  21.0565929  45.9288979  34.4795952
  21.7723122  45.9667091  35.1140633  20.8411102  46.8453636  34.3067169
  47.0120277  15.1528702  76.5580978  47.8444519  15.2890472  76.1055984
  46.4781723  14.6605597  75.9345093  66.7465820  15.8172092  16.5195751
  65.8103714  15.6522465  16.6315041  67.1569138  14.9610758  16.6416340
  33.7735634  67.4347839  75.1088486  34.5800362  67.4906235  74.5962906
  33.8908424  66.6582184  75.6560516  67.1925125   0.6055769  63.0255737
  66.8638458  -0.1569442  63.5017776  68.0277023   0.8091635  63.4465714
  65.8468857  23.1555901  25.7996578  65.2574158  22.4494114  25.5349579
  65.7839737  23.7977734  25.0926399  66.3178253  69.7680969  63.9730377
  66.1556854  68.8833694  63.6456146  65.5163574  70.2498016  63.7685127
  82.3772736  69.0219955  34.9647102  82.0058060  68.6181564  34.1803894
  81.6478119  69.0591660  35.5833664   5.5888882  56.9081993  17.5364056
   6.1819248  57.6515388  17.4269352   6.1047106  56.2586060  18.0140953
  45.0384102   4.2853909  10.3656101  44.5915756   4.2374892  11.2107582
  45.9524002   4.4630280  10.5876446  80.7287903  10.4136248  71.8340988
  79.8993149  10.6081877  71.3978043  81.3969040  10.6131020  71.1783066
  70.8994827  59.7445450  48.3857841  71.6441574  59.5738220  47.8091164
  70.1662750  59.2899094  47.9711227   5.2302046  51.2179832  23.0453873
   5.9960003  50.8320084  22.6201668   5.5894785  51.7154694  23.7800026
  69.0508804  47.9216499  32.3919601  68.6922836  48.7193718  32.0030174
  69.4793243  47.4718018  31.6637402  80.6278305   8.5552959  50.7709160
  79.8332596   8.0407801  50.6289291  81.2898712   7.9100204  51.0190201
  82.0450974  40.3634796  81.8298264  81.3061447  40.8753738  81.5009918
  82.1580505  40.6590042  82.7332306  52.6935349  65.0634537  76.0432739
  52.9350929  65.2142563  75.1294174  53.4696960  64.6609573  76.4328918
  66.7391586  70.6636734  84.7564926  67.0130692  70.5813370  85.6699677
  66.3446426  69.8169708  84.5474930  12.6453505   0.3862481  15.1776285
  12.3135900   0.4386967  16.0739632  13.5486794   0.6970253  15.2380171
  45.2939873   1.1816025  64.6167526  45.6839600   0.4274231  65.0587616
  44.4931908   0.8389075  64.2198639  68.8045807  26.2151165  51.2570801
  68.7518692  26.3013916  50.3052330  69.6022873  26.6868744  51.4965248
  27.9830608  69.2920303   2.2376394  27.2231293  69.8738861   2.2509704
  28.6380329  69.7411957   2.7719524  13.9797153  59.5997849  18.9937553
  14.6944094  60.2365150  18.9986038  14.2088890  58.9772339  19.6837845
  37.1052017  34.2596664  79.6687012  36.8874817  33.7490044  78.8889236
  38.0527878  34.1618385  79.7622070   0.5215093  56.0046120   7.6391435
  -0.0768312  56.2008705   6.9182401   0.2298434  55.1541977   7.9677205
  75.4397202  25.7127495  76.1935654  76.2890549  26.1393147  76.0799866
  75.4653931  24.9651566  75.5963364   8.0877895  56.3426208  12.3889885
   8.1559391  55.4959106  12.8302031   7.7884212  56.9444199  13.0704947
  33.8318939  35.1904716  64.8200150  33.9080696  35.4938583  63.9153671
  33.0813103  35.6697350  65.1709671  84.3333893  50.3523979  52.7307854
  84.6882401  50.5320702  51.8601341  84.7253113  51.0215378  53.2919273
  41.5976372  18.9053268   5.1569304  41.8596687  17.9913273   5.2672820
  41.6812096  19.2856884   6.0313287  53.4997673   8.4110079  73.9318237
  52.7627716   8.9869881  74.1351013  53.1828041   7.5328574  74.1430511
  19.0233078  49.9920998  88.0708694  19.9023323  49.7146912  88.3289261
  18.6390800  49.2180710  87.6591873  58.0443764  68.7768707  68.8581848
  58.0698166  69.4938202  69.4918747  58.9513550  68.4765244  68.7998047
  52.9349823  48.8251572  88.8096771  53.8511009  48.8032761  89.0862274
  52.6585617  47.9088478  88.8238525  33.5750008  44.3669128  39.6069946
  34.1666031  43.9338799  38.9915886  33.2989197  45.1634521  39.1536369
  16.6961994  70.8401184   9.0844164  17.4753971  70.3465729   8.8284931
  16.6224327  71.5300827   8.4250631  11.7009487  51.1494560  48.6384659
  10.8609781  50.8450890  48.9820404  12.3401861  50.5242691  48.9801559
   3.3737636  40.7506943  73.1659698   4.1899619  40.8289909  73.6598587
   3.3382444  41.5459328  72.6344070  65.2418289  13.8804827  85.8145142
  65.2830811  13.5532761  86.7131119  64.8871384  14.7656164  85.8979721
  32.6899872  51.7991257  76.1923218  33.4292946  51.7655640  76.7993851
  32.3334961  52.6812057  76.2975769  26.1487980  15.6488752   9.8615618
  25.2646084  15.7630405  10.2099981  26.0912971  15.9563808   8.9569254
   2.2058291  20.2674313  67.3057175   2.6265504  19.9803200  66.4952927
   2.6488948  19.7716255  67.9942703  30.7041588  27.6587639  81.2828903
  30.5220337  27.7055264  80.3443451  30.2423859  28.4104996  81.6542282
  62.9915276  70.6127777  88.2650528  62.7549896  71.5402298  88.2755585
  63.9180603  70.6046066  88.0248337  46.8355789  44.0945969  35.8367729
  47.7737617  44.2414055  35.9571457  46.4664688  44.1703186  36.7166939
   1.7039753  26.5349064   6.3253322   1.1291676  25.7873478   6.4895973
   1.2113940  27.0868721   5.7179356  31.6687603  36.3279572  65.8881760
  30.8816299  36.3479462  65.3438797  31.9509048  37.2414360  65.9349060
  33.5179329  39.3087463  54.8341026  34.1705208  39.0413628  54.1869049
  33.3619728  40.2347412  54.6485176   8.3427267  68.3015976   9.4665203
   8.4773016  67.5350571   8.9092646   8.6704769  68.0340271  10.3251352
  85.6266403  64.3640976   9.5287094  85.7283401  65.2619247   9.8446121
  84.7039337  64.1597824   9.6807022  18.9638443  22.6043453  68.1049652
  19.3774242  22.8438492  68.9343185  19.6281967  22.0907173  67.6455612
  18.0540791  58.6651230  31.8383694  18.3097801  59.5740814  31.9953632
  18.5010891  58.4274597  31.0260105  58.3825951  25.6109409  48.2247810
  57.7888260  25.1546288  48.8209801  58.2888184  25.1477833  47.3923645
  15.5415039  37.1489220   0.1184714  14.7487316  37.1042442  -0.4160827
  15.3257093  36.6538467   0.9087652  39.4396477  11.4983759  14.1194725
  39.2351761  12.0754642  13.3836784  40.3793144  11.3338175  14.0408649
  21.0916424   3.6418784  75.1897049  20.8316231   3.1117771  74.4363022
  20.7032700   3.1954913  75.9421234  32.1345901   7.9099798  13.7447252
  32.2341652   8.8616695  13.7201662  31.1904984   7.7697325  13.8172121
  18.9574471  44.8219872  16.0801811  19.3029423  45.3145332  16.8246670
  19.4203453  43.9847374  16.1113358  32.5122414  58.3125305  76.1156235
  31.7210674  58.8101082  76.3222504  32.8672638  58.7399597  75.3362045
  77.4412155  11.2923775  18.2024250  76.6181107  11.1907234  18.6803303
  77.7802429  12.1410408  18.4871407  35.4278450   1.2475471  88.4670181
  35.0189781   0.4208047  88.2109756  35.3274879   1.2798413  89.4183960
  22.6795082  64.5557556  67.1386490  23.5370770  64.9706192  67.2319183
  22.7533703  64.0294418  66.3425446  79.6347198  59.6365051  49.3378410
  80.4958801  59.3597336  49.6509552  79.1181793  58.8309860  49.3142586
   8.6695728  36.4843063   2.9832706   9.0744524  36.0855179   3.7535124
   9.2048616  37.2574501   2.8045394   2.5288773  24.3914165  36.9675636
   2.8083446  24.9078312  36.2116241   2.9558733  24.8102970  37.7148552
   3.2010949  60.1961632   4.2427621   4.1561871  60.2596436   4.2439475
   2.9973142  59.6366119   4.9921665  30.9255600  20.6545391  87.9217148
  30.2250729  21.0563278  87.4077911  31.5339069  20.3089809  87.2684631
  69.2126389  44.0200195  39.6616325  69.0633774  44.6522789  40.3646278
  68.4953995  43.3920555  39.7479973  48.7733803  27.1509895  39.7510529
  49.6638031  27.3709011  40.0249443  48.7080688  27.4864826  38.8569527
  71.5079880  30.0407372  70.8659363  71.0638199  30.2139225  71.6959686
  71.8926086  29.1712723  70.9769592  86.0435562  14.4163694  46.3571091
  85.6676559  14.0091286  45.5766716  86.9893036  14.3810472  46.2137794
  13.6827745  69.3788605  29.4798889  14.0738096  68.7028732  30.0333920
  13.6649265  68.9912186  28.6048756   7.2334146  62.4131317  80.0652618
   7.4867673  63.3210907  80.2315674   7.6037145  62.2148399  79.2051544
  77.8737717  69.1884613  75.2935715  77.8399887  68.4443436  74.6924286
  78.8055038  69.3033295  75.4804077  63.1175385  58.7295799  18.5305920
  62.6223946  57.9192390  18.6506691  62.5889053  59.3997078  18.9638405
  62.4963799  51.4847069  64.0365143  61.9718285  51.2778931  63.2630157
  62.7174263  52.4105339  63.9354668  49.7778282   8.0866747  45.8316040
  50.0298500   7.3547544  45.2685661  49.0309486   7.7578754  46.3319016
  80.5702515   2.3562069  82.2558517  80.9179153   1.5017079  82.0005188
  79.9266586   2.1592793  82.9364700  71.6861572  39.3815727  26.3168964
  70.9402466  39.4291916  25.7189159  72.4111099  39.7696114  25.8268967
  65.3852005  24.5093613  13.4911861  65.1561432  23.5899334  13.6268797
  64.7087250  24.9966507  13.9614639  65.2735748  66.2620392   8.9216452
  64.9571991  66.9846420   9.4638510  65.8281937  66.6812820   8.2637205
  32.0844765  38.4316826  74.6677551  32.7502289  38.2045479  75.3169174
  32.2993507  39.3274536  74.4076538  51.1368675   2.3284872  15.6392670
  50.3692169   2.4685745  16.1936321  50.8071213   2.4218202  14.7455168
  35.4995956  63.0565758  84.9998932  35.7459755  63.9496498  85.2406235
  35.1025009  62.6957474  85.7925720  28.3251400  28.8511410  13.8350840
  27.9446678  28.0026989  13.6078844  28.2529831  29.3685017  13.0329847
   7.7757940  34.5834808  68.7981796   8.2150688  34.2724304  69.5897064
   6.8699617  34.2899666  68.8959045  63.6208954  60.0935326  28.0427208
  63.5390129  60.2271042  27.0984287  64.4815063  60.4509468  28.2614365
  75.8049927   1.9093083  33.1370621  75.2469406   1.4431498  32.5145607
  75.4600601   2.8021531  33.1459694  50.7065163   2.9214282  42.0905113
  50.5964851   2.0888927  42.5498695  50.9682541   3.5389988  42.7733955
  73.6553268  51.9740562  46.5634880  73.9025650  52.8561325  46.2859192
  73.2243423  52.1009140  47.4087067  78.6874924  65.5410233  12.4807892
  77.9110107  65.9753647  12.8338432  78.7215652  64.7014389  12.9392452
  31.6200180  33.6220169  78.0406418  31.1319752  32.8294487  78.2639771
  30.9965763  34.3346863  78.1808395  75.1091003  54.7704163  82.6458664
  74.7324066  54.8615341  83.5210953  74.4776535  55.1983566  82.0676041
  19.4760838  11.1833277  19.8629837  19.0095348  10.7615767  19.1413956
  20.2527294  10.6399002  19.9961739  39.7264099  31.7554779  79.4885712
  38.9028473  31.3871231  79.8084030  39.6561279  31.7072105  78.5351791
  20.2915707  62.5579796  63.4336700  20.1947975  62.8716125  62.5345039
  19.5960217  61.9085426  63.5369720  64.2144775  57.9921875  58.8754120
  63.7528114  58.1826096  59.6920128  65.1260071  57.8667450  59.1392517
  16.0786419  68.9879074  47.9756470  16.7194557  69.6982956  47.9451294
  15.6244411  69.0387650  47.1346092   1.8181416   0.3348182  65.1627197
   2.6231804   0.4674632  65.6632690   1.3403233   1.1591073  65.2547455
  37.7564163  48.8564301  39.9775085  37.4439430  48.0960999  40.4679070
  38.6672630  48.9610291  40.2525558  12.2019110  64.4423523  14.3715363
  13.0002899  63.9632187  14.1496038  12.5132217  65.2537613  14.7727013
  24.2904205  38.0177269  22.8722572  24.8758812  37.7817345  23.5918236
  23.4635582  37.5846786  23.0843811  27.2611885   1.1637412  50.2609787
  28.1825047   1.1707428  50.5205231  26.9949951   2.0824449  50.2977982
  63.5363312  51.0535660  88.2129822  62.7323303  51.3121986  88.6634521
  64.0974808  50.7050209  88.9057007  16.1322937  57.8959007  27.1084003
  15.5261822  57.4321785  27.6861744  16.5205650  57.2084694  26.5671825
  46.5450478  36.3012848  78.4936676  45.6339188  36.5716896  78.6075211
  46.6206665  36.1010742  77.5606995  55.7691307  24.7302742  36.5856018
  56.4270515  24.7777748  35.8919754  56.1206245  24.0914783  37.2057838
  12.3651743  15.3168478   2.9698565  12.5856810  14.4550171   2.6165051
  13.2106495  15.7477083   3.0954068  57.8685989  58.5284805   0.9941255
  58.0257187  58.0522232   0.1788189  58.6411591  58.3479500   1.5296584
  56.6213264  48.4093895  49.8099632  57.3641167  47.9701691  50.2241859
  56.5554657  49.2490005  50.2648773  38.7220573  13.4300432  11.8012886
  39.1118317  14.3042574  11.7936039  37.7987747  13.5812254  12.0035801
  46.1039963  17.4733562  85.9061508  45.6691055  18.3251076  85.8659058
  45.4383354  16.8505230  85.6142502  43.9105644  67.6798096  43.5845795
  43.5720749  68.0805817  44.3852272  43.2628784  67.8989563  42.9147186
  76.8570404  32.2892952  78.3158417  76.5883179  33.0402145  77.7865601
  77.5364532  32.6351089  78.8946762  31.9265633  16.6703129   5.3790474
  31.6932716  17.5321884   5.7239799  32.4385910  16.8577595   4.5923300
  44.2291374  29.2829456  78.2540894  44.7146988  28.4849129  78.0452728
  44.6854820  29.6497459  79.0113449   0.3366111  65.8672256  54.7799530
  -0.5036259  65.5916824  55.1464348   0.5967401  66.6172867  55.3147240
  34.2393074  59.9494247  74.2236862  35.0206566  60.2489891  73.7589417
  33.7198601  60.7426300  74.3549576  57.9333496  60.4798889  83.8134384
  57.2500801  60.7236176  83.1889648  58.7143364  60.9397621  83.5055313
  44.4838371  23.0007153   8.3716860  43.6226273  22.6275787   8.1837597
  45.0961952  22.2828312   8.2107735   6.8982587  52.5004501  44.3895760
   6.5456233  53.3882217  44.3284111   6.2712994  52.0310860  44.9398956
  67.4915390  47.7361641  29.7533188  67.3352432  47.7231293  28.8090553
  68.3322906  47.2919464  29.8630791  15.0959864  50.3686333  25.7740345
  15.2607136  51.1931152  26.2315559  15.6518097  50.4113121  24.9959145
  46.4317398   5.3057613  73.6737442  46.4051895   6.2609968  73.7289886
  47.2773857   5.0672956  74.0535431  18.7507572   2.7115736  69.6232376
  18.7978649   3.3778954  70.3088226  17.9028244   2.8586354  69.2041702
  84.2820282  62.6030807  29.7861881  85.2048721  62.7793350  29.9692726
  83.9098892  63.4613686  29.5834846  39.6569252  55.6932030  52.8795891
  39.3480835  55.4172401  53.7425461  40.6093788  55.7311211  52.9669228
  14.4699936  45.5970192  20.0889797  14.8519354  44.7654457  20.3697548
  14.4613047  45.5460091  19.1331806  72.6534119  68.2791290  17.0094280
  73.0135040  68.4671631  16.1427021  72.3361664  69.1250534  17.3256550
  72.3311462  67.3004456  25.0230103  71.7733383  66.5874176  24.7120743
  71.7192307  67.9484634  25.3720913  33.6069794  37.3011017  25.1266327
  32.8552017  37.2895050  25.7190247  33.5342941  38.1357689  24.6637249
  81.7728729  10.9673233  24.0261917  81.5751877  10.4109488  24.7795830
  82.3422089  11.6521626  24.3770294  40.2935028  14.1825733  14.3881779
  40.1885834  14.2116184  15.3391666  41.0177612  13.5731821  14.2456198
  54.9187050   6.1523976   3.7268386  53.9939651   5.9054079   3.7361934
  55.1038933   6.3525133   2.8092923  27.8743267  65.5123901  37.8823738
  27.5267620  65.2317276  37.0358124  27.2068729  65.2471771  38.5151443
  52.7637711  44.8535347  35.9879913  53.3843956  45.0200157  36.6974564
  53.1316872  44.1047783  35.5186996  74.6159286  47.7792358  18.9597034
  73.8766479  47.6916885  19.5614014  74.5070953  48.6472816  18.5712681
  78.1679001  27.4100838  56.4431000  79.1140976  27.4669552  56.3100586
  77.8033981  28.0740318  55.8578262  78.6782532  43.7450638  17.2558937
  78.0366135  44.1465874  16.6699696  79.4233017  44.3458786  17.2430096
  76.1087875  41.9560623  16.0089645  75.4909210  42.6764526  15.8844156
  76.6072540  41.9241791  15.1924219  57.2641296  44.0331268  22.6124706
  56.6307106  44.0370483  23.3301067  57.3077164  43.1176147  22.3364811
  50.8325539  65.3942337  23.1317673  50.4717064  64.5089798  23.0832329
  50.0711784  65.9555283  23.2783279  77.0756531  51.3508186  66.2762985
  76.4076614  51.1089134  66.9177780  77.9033966  51.0995979  66.6861191
  18.1366329  17.6603889  57.1498871  17.7829342  18.5108471  57.4103737
  18.9858150  17.6095867  57.5886841  21.6611576  54.2034607   4.5922742
  21.6626892  54.2462807   3.6360338  22.4709530  54.6422081   4.8529701
  59.4830513  11.9999714  32.7650070  59.5168839  11.3260164  33.4438820
  58.9726486  11.6033707  32.0590096  67.5111771  52.2288132  71.6018219
  67.4383392  51.4009361  72.0767441  67.3956146  52.9011116  72.2733078
  54.8871346  40.3182983  62.2996902  55.3716545  40.6678123  63.0475616
  55.5017738  39.7203140  61.8744049   6.6128511  43.4027061  65.1090775
   7.3262401  43.3280144  64.4752579   5.8166933  43.3668594  64.5789032
  30.4385700  46.3305855  66.2479324  30.0175304  47.1888390  66.2964935
  31.3654213  46.5091591  66.4069672  80.5781631   6.6212773  58.8908539
  81.4485474   6.9655623  59.0911942  80.3382416   6.1115956  59.6647339
  41.3824806  47.1278687  79.6342773  41.8586960  47.8575668  79.2380524
  41.0880318  47.4652214  80.4802780  74.9588089  15.2993793  86.6986389
  74.4714432  15.9244232  86.1619568  75.4416046  14.7665300  86.0668030
  57.1914978  56.7104988  79.8339539  57.6552811  55.9818764  79.4213486
  57.4948769  57.4857635  79.3615570  50.8029289   6.1838002  81.6483765
  50.0042648   5.8687301  82.0715790  51.2450027   6.6981368  82.3238449
  58.1420403  70.9925537  70.6113968  58.5640259  71.5184174  69.9319687
  57.4043808  71.5274277  70.9046631   7.3108120  61.5289536  30.5813847
   6.5222759  62.0121269  30.3344288   7.4951334  60.9696045  29.8268089
  32.6727791  65.6893768  73.0701904  33.2140083  65.8200150  72.2915802
  33.1384926  66.1530228  73.7661591  19.8806496  63.6127167  85.7180557
  19.0460491  63.5653915  86.1843567  19.6357384  63.7181931  84.7987442
  43.8468628  18.1736012  16.1975861  44.7834206  18.1720467  15.9998655
  43.4358444  18.5242844  15.4074478  44.6444168   8.3423748  78.3013687
  44.4119034   7.4210987  78.1855240  44.5221596   8.5044603  79.2367859
  11.8702164   4.5671406  74.1150284  11.3256531   3.9835286  74.6433105
  12.6791973   4.0758328  73.9722061  27.9164982  59.5609932  57.2295914
  27.6043777  58.6811028  57.0183868  27.1199265  60.0621986  57.4042282
  54.2485161  56.8769798  23.1994877  54.9394417  57.2189026  23.7668858
  54.2166634  55.9411659  23.3981571  17.1913223  53.7429123   0.5224466
  17.0515919  54.3194008  -0.2287956  16.6612034  54.1268616   1.2208627
  43.0330811   5.8632345   5.5819254  42.5988922   6.6850228   5.3530669
  43.3353462   5.9942417   6.4806495  25.3528309  49.0767822  39.6654358
  26.0112610  48.4103622  39.4690018  25.1134472  48.9152908  40.5780411
  27.6359425  57.7882271  79.9140244  27.8723774  57.9232903  80.8316727
  27.8576431  56.8731270  79.7417526  69.7355270  54.3714371   5.3236756
  69.0452499  53.9315071   4.8274713  69.3251190  54.5939941   6.1593008
  14.7539978   0.9248065  85.5424805  14.3157310   1.1942852  84.7353058
  14.2811174   1.3840002  86.2365723   3.6743217  46.6619606  24.8430309
   4.0003133  47.5115166  24.5460186   2.9294186  46.4778709  24.2707863
  80.0754700  25.4340038  58.3744583  79.6868820  25.9480247  57.6666374
  80.8043900  25.9697876  58.6872635  39.2579346  35.0603409  74.5792694
  39.5005150  34.7895622  75.4647446  39.3167000  36.0155830  74.5963669
  76.4090500  66.5478363  55.0051346  76.4933624  67.3613510  55.5024490
  77.2621307  66.4336777  54.5862656  19.4302921  70.4682465  68.3905792
  18.7465935  70.9188080  67.8948135  19.9375439  71.1727829  68.7937698
  83.9814072  70.1641693  19.2204285  84.4326706  70.4323654  20.0208454
  83.9496536  70.9576645  18.6860275  69.4988708  41.3459969  49.4048347
  69.9043808  40.7034607  49.9870186  68.8015366  40.8619347  48.9625206
  49.4662704  38.9539909  14.1336489  48.6978912  39.2891045  13.6715593
  49.6861687  38.1426849  13.6757689  27.4411736  43.1554146   7.0167913
  28.1677780  42.7982101   7.5273614  27.7654228  43.9964676   6.6947327
  70.4899139  22.0172939   3.8604839  70.5433426  21.1406631   4.2411366
  70.7429810  21.8968220   2.9452376  52.3598366  66.9477692  29.7864056
  51.6541061  67.5237656  29.4924488  53.0248718  67.5419922  30.1340523
  28.5267849  15.0140619  68.8627167  27.6235561  15.1064596  69.1658173
  28.5844593  14.1099100  68.5538254  54.5322876  42.7308083  41.1117210
  54.8165855  41.9204063  40.6890411  55.3137550  43.2835007  41.1200638
  64.6782913  32.0299225  48.5373116  63.7710495  32.2230072  48.7736549
  65.1212311  31.8977985  49.3755112  73.1764450  17.8567123  10.7101278
  73.5150223  17.0772667  11.1506538  72.6871796  18.3218460  11.3887291
  24.9864140  45.7983208  71.5701904  24.4635677  45.7492676  70.7699051
  24.3783760  46.1237946  72.2339630  54.9588814  68.6999588  76.0673141
  54.9832420  69.1173859  75.2062759  54.2742653  69.1708450  76.5424957
  65.5188904  12.0816040  31.3040237  64.6199188  11.9340048  31.5977879
  65.6811829  13.0073528  31.4853611  54.1874161  27.9299049  31.2610455
  53.6737022  27.6990681  32.0350266  53.7672386  27.4546833  30.5442162
  74.5061951  42.4347115  69.7822571  75.2412491  42.8615227  70.2224350
  73.9275055  43.1542625  69.5300751  13.5763311  63.9464149   3.2784717
  13.3322086  64.0379868   2.3574667  14.1614408  63.1890945   3.2970068
  81.8550873  59.1865273  39.7344551  82.7717056  59.4620667  39.7456551
  81.7180252  58.7757492  40.5880966  75.3915710   0.3123014  50.2573738
  74.5074539   0.3514313  49.8926315  75.7841415  -0.4605808  49.8514519
  78.6339569  16.3767300  44.0646133  79.5813370  16.3923302  44.2004738
  78.2745743  16.8218613  44.8320351  42.9472351   7.2983298  68.1404953
  42.5510750   7.2286077  67.2719193  42.7737312   8.1999083  68.4112091
  58.1947556  10.3298817  65.6072617  57.3541679   9.8905525  65.7362289
  58.7841263   9.9074917  66.2321320  65.1570587  63.1539841  21.6369476
  66.0043640  63.0391693  21.2066975  65.3653641  63.5882072  22.4641647
  39.5270081  34.0384140   2.9236946  40.2049408  33.8941574   2.2635183
  40.0052071  34.0866547   3.7514820  24.5694618  69.2624130   5.5315003
  24.3637066  69.4098892   4.6083817  24.9119759  70.1021576   5.8376679
  11.1162090  30.0630455  25.7805614  11.0293798  30.3204041  26.6984158
  11.7048216  29.3084183  25.7980556  79.9295425  44.0067787  41.4951363
  80.3361206  44.0155754  40.6286201  79.5683975  43.1245193  41.5813065
  22.4699345   5.9623685  17.2900753  23.1740341   5.8118076  17.9207935
  22.1377697   5.0875587  17.0885658  30.3422451  29.7345009   0.8182083
  29.6602516  30.3799419   0.6324124  31.1629562  30.2005959   0.6587722
  70.5703278  39.8035202  81.3431549  70.1887665  40.6602249  81.1515961
  70.0095215  39.1822739  80.8786240  81.5800247  19.8557339  18.5972080
  81.2510223  19.2137718  19.2263966  81.1507492  20.6748695  18.8441353
  75.4318161  59.9040604  31.5653915  74.5067825  59.7053719  31.7105064
  75.6494904  59.4499702  30.7513580  63.2020416  23.7220650  50.9735870
  63.2683411  22.7710495  50.8875237  62.3188095  23.9291954  50.6682510
  76.5685425  18.8642311   1.3756541  76.8408966  19.7019444   1.0010991
  76.3678970  19.0645618   2.2898967  74.6831284  21.9446201   6.8706679
  74.5224380  22.5003109   6.1080294  75.4895706  22.2903271   7.2532582
  75.0600891  10.4662018  57.6402245  75.9172897  10.3009968  58.0328255
  74.9147186   9.7193804  57.0593987  53.1613312  39.9449310   0.7597530
  53.3406715  40.3381996   1.6138086  53.7545357  40.3960228   0.1590386
  51.0541077   9.2701797  22.4313107  51.6976585   9.6728354  23.0143566
  50.7248802   8.5169373  22.9216843   1.9703553  32.8337326  81.9813080
   2.3991010  32.5020790  82.7702408   2.1882031  32.1940269  81.3034058
  81.2763519  20.9495430   2.7673788  81.6507339  20.7019558   3.6128197
  80.5257874  21.5003395   2.9898760  40.9273033  50.5640144  54.3194542
  41.4685898  50.9429703  53.6268959  40.2682228  50.0492973  53.8537216
   4.6743846  33.0846977  28.3816624   4.7299480  32.4231339  29.0712090
   3.7474022  33.1056404  28.1439705  74.2931976  51.1712799   8.8583393
  73.4229355  51.3511696   9.2140331  74.1720352  51.1878471   7.9089828
  60.6068382  53.8389244  79.6602325  61.1259804  54.1474648  80.4028778
  60.6650124  52.8846550  79.7073212  50.1562881  66.8574753  48.2807808
  51.0729904  66.6828842  48.0676765  49.9590034  66.2571564  48.9997559
  44.2628708  41.1472931  69.1294022  44.8507996  40.4226837  68.9160614
  43.4394951  40.7240257  69.3725662  81.1101608   3.5015895   0.2032769
  81.7660828   4.1812348   0.0481193  80.3839340   3.9613218   0.6245512
   0.3180444  19.4222126  81.3471756   0.4484650  20.1317425  81.9762878
  -0.6246359  19.4196205  81.1811066  35.3543434  47.4796677  30.1436596
  36.2863655  47.6923637  30.1919098  34.9549751  48.2454338  29.7309361
  19.0460358  42.0371246  84.5551224  18.4781704  42.7978020  84.4320984
  19.8342266  42.2428474  84.0524597  71.6834793  17.1813087  25.5661373
  72.2154770  16.4954052  25.1627197  70.8503418  17.1457539  25.0961990
  78.4365005   8.6377659  17.9280434  77.9777069   9.4763880  17.8785305
  79.0328903   8.7344942  18.6704693  59.5346603  53.6630058  73.6407623
  59.9087334  54.4719124  73.9900131  60.1476364  53.3910141  72.9577484
  16.0203266  69.8192673   4.9306288  15.3712826  70.5176544   4.8456416
  15.5601463  69.0289383   4.6480455  55.6482773   3.0730798  74.5752335
  56.3177032   3.5578182  75.0580750  55.7885551   2.1592908  74.8233185
  85.3360901  59.5373764  42.5254631  85.1062469  60.4568329  42.6596260
  86.1766968  59.4331131  42.9712753  59.7804489  43.3032608  32.9737625
  60.6774101  42.9711723  33.0112495  59.2798729  42.7040901  33.5275230
  55.7735977   2.7703252  71.6692429  55.8295097   2.7031269  72.6224442
  55.8872528   3.7032795  71.4878311  58.3939285  60.1326256  86.5592194
  58.2839775  60.9736252  87.0029144  58.0792465  60.2886543  85.6687927
  59.9189796  51.4809036  41.9178772  60.6267624  51.1190338  42.4510994
  59.9714203  52.4260788  42.0597610  67.5939713   2.5670521  57.7187653
  67.0664368   2.3396878  56.9531021  67.5246353   1.8040289  58.2925453
  44.9625969  66.9518127  27.7930374  45.7220345  67.4763718  28.0466557
  45.3323593  66.1137619  27.5152149  80.5682220  61.1411057  88.9872818
  80.9581833  61.9930611  88.7914886  81.3044434  60.6010551  89.2746124
  10.1261482  19.7357960  87.5659180   9.1958513  19.5858688  87.3976898
  10.1508989  20.1361809  88.4350052  43.0747261  32.8910599  83.1926041
  42.2990494  32.4464417  82.8507309  42.8814240  33.8228951  83.0898972
  41.4233475  45.0932198  55.2677231  41.3164864  44.1457672  55.1832008
  41.8617401  45.3578911  54.4590225  32.1661415  45.2234268  74.5392532
  31.4321384  44.6373177  74.3550034  31.7688560  46.0919113  74.6035233
   7.8682661  16.5589943  53.0380936   8.0652323  17.3892593  53.4717941
   8.3708944  15.9078970  53.5276527   1.2965999  68.0740433  23.4911690
   0.6719639  68.2711945  24.1891613   2.1532626  68.1237488  23.9153042
  43.9691467   1.9902768  18.2260036  43.2700653   1.5635314  18.7213860
  43.5110359   2.5346236  17.5856495  45.5193062  69.9713898  47.5724716
  45.5221024  69.1355133  47.1060638  44.5919037  70.1738892  47.6955452
  53.4692268  67.4341125  67.6009750  54.0252533  67.8682251  66.9539795
  53.3284645  66.5565643  67.2455444  53.0905304  51.0775566  20.4882298
  53.3041267  50.5427704  21.2528267  53.9219513  51.1745224  20.0239391
   9.9305067  35.4618492  31.6374912   9.1344795  35.1117516  32.0374985
  10.5006104  34.7001839  31.5322456  78.2202606  12.0195551  73.7746582
  77.9636230  11.6556425  72.9273453  77.9906616  12.9469862  73.7164459
   3.0179212  10.4902477  24.6037521   3.1135836  10.7822142  25.5103035
   3.7772958   9.9276381  24.4519234   9.5033197  13.0235310  75.5809555
   8.7214985  12.9116602  76.1217651   9.3878202  13.8788204  75.1669846
  66.2825165  27.5080585  69.9107742  66.2407303  27.1186581  70.7841873
  67.1309204  27.2305622  69.5651550  82.6406937  14.2239113  70.7960815
  82.6805878  14.9737625  70.2024765  82.9701080  14.5603657  71.6294556
  44.6213264  53.5148048   1.7399727  45.4685440  53.2277107   1.3993406
  44.1071053  52.7106590   1.8118051  22.5689983  51.7886810  76.3440781
  22.7844772  51.5010986  77.2312622  22.4194813  52.7304649  76.4272537
  20.7973843  55.8865623  63.5019646  20.5140419  56.7931328  63.6206207
  21.0308323  55.5914421  64.3820953  51.8110199  18.3585491  48.3307877
  51.7257080  17.4288597  48.5420532  51.7045364  18.3989487  47.3803864
   5.8688359  50.1573868  35.6193085   6.0135503  49.4895172  36.2895584
   4.9240408  50.3103218  35.6336365  16.4272881  24.1799526  78.3028488
  15.4721231  24.1870995  78.2408600  16.7118244  23.6530170  77.5561142
  38.0476379  71.6047440  33.1087074  37.5330124  70.8696899  33.4420052
  38.5145836  71.9373016  33.8752556  47.7390518  26.0335655   6.7584114
  46.8304100  25.7940407   6.9407001  48.1533127  26.0751591   7.6203218
  74.3881836  56.5350761  41.8060036  75.0373993  57.1563339  41.4761772
  74.4153900  56.6423874  42.7567787  20.0739956   2.0015259  88.4197845
  21.0014534   2.1442869  88.2309113  19.6564827   1.9692419  87.5590439
  52.9210587  66.7719269  36.3666077  52.0761414  66.6247482  36.7916794
  52.7332535  67.4041214  35.6728554  75.6371841  66.7169418  71.4019318
  74.8170776  66.2562866  71.5792618  75.3687744  67.5221252  70.9593582
   3.3564606   2.6079917  38.0154877   3.5737207   1.8177718  37.5209351
   3.9179449   2.5679679  38.7896729  17.5589714  50.6514435  56.4313507
  17.5907459  51.4019051  55.8380318  16.9910164  50.9360657  57.1473465
   7.4286923  70.8399124   3.6932251   7.0815115  70.2764893   4.3847823
   7.8732157  71.5469513   4.1609101  17.4285450  52.8102722  74.4048080
  18.2280140  53.0819817  73.9539642  16.8007965  52.6459694  73.7011261
  82.5878448  38.0488739  18.7825108  81.7319870  38.3199768  18.4504871
  82.5105515  37.1019440  18.8990688  24.3894825  65.8840103  87.6424026
  24.4892693  66.4988861  86.9156265  23.4958782  65.5523682  87.5545731
  41.1484528  23.1038303  16.1351624  41.6059303  22.6543636  15.4245806
  40.7215881  23.8486862  15.7118359   9.1089878  22.6769257  13.5659409
   8.9643908  22.0776501  12.8336897  10.0607319  22.7133617  13.6612701
  74.6313553  18.7261810  63.6929970  74.7643585  19.6723766  63.6359291
  75.4454346  18.3921757  64.0697556   3.9013784  29.2243671  38.6908951
   4.1907773  30.1183262  38.5083580   3.7184923  29.2189636  39.6304474
  76.6915283   3.2517648  36.8214378  75.8079681   3.5887055  36.6730576
  76.7811127   3.2257702  37.7740822  42.5267754  39.5912552  15.1853485
  42.6692009  40.4265938  14.7401972  41.6076241  39.3837929  15.0169725
  46.5372086  47.6442490  58.7533684  46.1141472  48.3868179  59.1844635
  47.2057533  48.0407181  58.1947174   4.7735929  45.5332336  48.6047401
   4.2959399  44.7928772  48.2306328   4.3706064  45.6696091  49.4621964
   7.4901385  56.4225502   8.8185825   6.8938060  56.4310951   9.5672789
   6.9655528  56.7561302   8.0907316  65.7507629  36.1137390  58.9115257
  64.8887787  36.5227699  58.8346596  65.5725632  35.2457085  59.2734642
  60.9732246  40.7332611  87.1471786  60.1135292  40.7684250  87.5666046
  60.7811546  40.6182671  86.2165298  67.7979050  21.4549694  19.2090416
  67.9500961  21.7214394  18.3023643  67.0931396  22.0275288  19.5118771
  21.8526917  69.8581924  56.0356407  21.1620922  70.2883987  56.5398483
  22.2464428  69.2380753  56.6493568   2.0932229  39.3112221  34.2145576
   2.5922308  38.5209084  34.0080910   1.2784919  39.2157555  33.7212715
  47.2943115  20.8803749  69.4511032  46.8027649  20.3911972  70.1108856
  46.6224480  21.2637367  68.8873062  61.7838097  23.1749268  75.2001038
  61.6764946  23.8965740  74.5804749  60.9210510  23.0742512  75.6022797
  83.0093765  41.5810318  29.0486336  83.7306290  41.0071907  29.3069592
  83.2928925  41.9629631  28.2179813  33.9273605  33.8655090  11.0965004
  33.6907806  33.6474876  11.9980145  33.8067703  34.8133888  11.0397816
  59.7643089  65.3066711  17.3063984  59.3949585  66.1399841  17.0141754
  59.0069275  64.7964249  17.5931854  62.9678688  53.2905388  14.1035004
  62.7909393  52.3688278  14.2915878  63.0041809  53.7079277  14.9641399
  28.6060390   2.3671629  41.1483192  27.6989994   2.1343036  41.3465347
  28.7570934   3.1775062  41.6348953  71.9524689  35.9836273  14.0980930
  71.6664429  36.5080223  14.8460436  71.8255768  35.0772629  14.3785114
  80.7686234  35.0578384  63.5836029  81.3536301  34.8515587  62.8546028
  81.3546906  35.2152824  64.3238525  32.0554352  36.7863579  29.1415672
  31.1696739  37.1482277  29.1681786  32.5995827  37.4540329  29.5591145
  40.8152695   2.7526741  13.0925102  40.2978401   2.5189426  12.3218822
  40.1986847   3.2079108  13.6659346  79.4402466  23.3903732  43.2611618
  80.0585785  23.3059998  42.5353699  79.4970474  22.5537205  43.7226982
  34.7613907  32.7790871  87.2986069  33.8133011  32.6474037  87.3024597
  34.9748802  32.9562035  86.3824844  68.0766220  34.2649040  30.0001965
  68.1065903  33.5151443  30.5944996  68.5086136  34.9700546  30.4822540
  77.3313446  51.2221603   2.3303344  77.9220886  50.4841728   2.1799130
  77.7566223  51.7328377   3.0192282  20.7159157  61.2828789  15.0498304
  21.3189659  60.9548225  14.3827906  21.2293911  61.9225883  15.5431328
  59.6376724   8.4737988  24.8797264  58.9748573   8.2201700  25.5220490
  59.2185516   9.1609259  24.3616295  75.4640732  23.2531471  74.6245270
  75.7528076  22.9495277  73.7639008  74.5092163  23.2772789  74.5620575
  57.4210854  67.1129608   6.6461444  57.6092873  67.9852066   6.2997341
  57.9082184  66.5184402   6.0756407  49.1190186  68.8571472  74.6514130
  49.3663673  68.4923401  73.8017273  49.4710999  69.7471848  74.6415939
  72.2274780  49.2367973  56.2125549  72.5634689  49.7742271  56.9298477
  72.4386139  48.3385315  56.4670601  82.0076370  25.1523552  62.1126747
  82.3278046  25.2864189  61.2206268  81.5346680  25.9580421  62.3210106
   7.1779780  27.9131622  77.6280899   6.9480305  28.7047768  78.1146088
   6.6550097  27.2219830  78.0343094  52.3806877  12.6710835  15.9561472
  51.7342873  13.1654043  15.4521151  53.0901031  13.2943916  16.1125050
  40.8217468  69.2597351  42.8702621  41.1786003  68.7953110  42.1131706
  40.1822319  69.8674469  42.4988518  83.9095154  16.0841637  37.9654388
  84.1639786  16.6693058  37.2519341  84.7388535  15.7603407  38.3169594
  45.2390785   1.0901843  26.3623638  44.8517914   0.6799765  27.1356506
  45.4718056   1.9727765  26.6506367  62.5122070  31.2583523   1.2850423
  63.0429001  30.4633961   1.3364261  61.7069817  31.0395145   1.7540370
  71.7080002  12.6640759  50.0930939  71.1050568  12.1092834  50.5879669
  72.3435593  12.9656105  50.7422256   2.7417393  20.0381622  24.9080219
   3.4177113  20.7083435  25.0087719   2.2688811  20.0479145  25.7402134
  53.2253189  36.5312080  54.1610947  52.5121613  35.9608231  54.4479752
  52.8525848  37.4124603  54.1875000  58.8794098  48.4793243  58.3525429
  58.1823273  47.8366623  58.4840736  59.0603256  48.4475517  57.4131317
  45.8893204  43.9934387  75.8231354  46.4219856  43.8289070  75.0450439
  45.0121841  44.1658211  75.4808578  33.6727982  21.3496361  74.6682281
  34.2659531  22.0889950  74.8014450  34.1450157  20.5966816  75.0236206
   0.5339981  16.3235512  74.6381760   0.1744840  15.9753952  73.8222275
   0.8458781  15.5519171  75.1109772   5.1014194  63.7620239  85.7435150
   4.2840705  63.2727661  85.6497040   5.2327380  64.1748962  84.8899841
  20.1289768  15.8540745  11.1193037  20.6442108  15.9905977  11.9143667
  19.2388325  16.1066360  11.3644314  64.0813599   9.7861223  19.6097736
  64.2001190   9.7733879  18.6600552  64.6415939  10.5011387  19.9116383
  42.1265411  29.6121292   2.2699394  42.2632790  30.5577545   2.3276420
  43.0086441  29.2409687   2.2890368   2.6991007  34.6368561  52.6985703
   2.2326021  34.8834076  51.8999329   2.0789440  34.0878487  53.1783905
   9.2827654  59.0352364  44.0206032   9.8690805  58.9690399  44.7743187
   8.5325661  59.5341911  44.3438339  84.4698868  36.6450233  47.1823349
  84.7324753  36.2997894  46.3290520  83.8303223  37.3272972  46.9781494
  40.0383568  20.8691483  13.8712416  39.6919823  20.3266087  14.5796967
  40.9838715  20.8820534  14.0197926  58.1582909   4.1054602  11.9038219
  58.7838211   3.9845629  12.6181946  58.6944847   4.0914798  11.1110210
  69.7215729  23.4340229  36.2759705  69.4341202  23.4515285  35.3631172
  70.6482849  23.6709232  36.2398415  56.1735573  47.1934891  16.3201942
  55.7476959  46.7698708  17.0654583  56.8170967  46.5533257  16.0164242
  52.4369774  27.3761272  72.3544769  53.0105362  26.6101151  72.3766251
  51.6136551  27.0484829  71.9925079  54.6744690  32.4549675  23.3380489
  55.4350739  33.0288887  23.2468128  53.9290161  33.0052338  23.0977650
  84.1886139  36.5865097  67.8769073  84.1293259  35.6756401  68.1650620
  85.0795593  36.8522415  68.1045914   7.0490403  51.9149895   4.1986403
   6.2048812  52.3054886   3.9725063   7.3322186  51.4756775   3.3967369
  14.4390945  51.0112152  55.3424301  14.9025784  50.3223457  54.8661156
  14.9991636  51.2002831  56.0952950  41.7699966  58.8877983  47.7258072
  41.6340942  59.5404968  48.4126434  40.8897514  58.6893959  47.4063835
  64.0662842   3.2862279  59.3009567  64.5039062   2.8048067  60.0030556
  63.1862488   2.9113307  59.2658920  58.9356842  29.7704201  16.5550041
  59.3313332  30.2738552  15.8434935  59.0481071  30.3214149  17.3295975
  41.2679787  31.8969460  59.7719193  40.7330513  31.1220951  59.9442329
  41.4061241  31.8868294  58.8247948  73.8887711  61.6003304  51.6627731
  74.3302002  62.1612015  52.3005791  73.4878311  62.2107620  51.0440216
   0.6369188  22.1879292  49.8103867   0.8731586  21.3359852  49.4434891
   1.2811292  22.3376713  50.5023422  52.6750832  66.3585892  18.5210705
  52.7522964  66.4536362  19.4704056  53.4419022  66.8126755  18.1717434
  70.0984879  36.1171455  85.7730865  70.8278580  35.7322350  86.2589874
  70.2222366  35.8124657  84.8741531  17.7759514  32.5872269   7.4461894
  18.5893040  32.9260941   7.8201642  17.3307610  32.1670990   8.1820765
  52.8193436  61.0310020  57.6479111  53.5252533  61.1433525  58.2845421
  52.6598053  60.0873375  57.6312332  35.2674065  29.8887959  84.1378784
  35.3676720  28.9372597  84.1653824  34.7099152  30.0926952  84.8887863
  44.0393562  38.6057091  33.5122108  43.2305946  38.2391090  33.8696213
  44.2536087  38.0372429  32.7724991  54.6312103  66.5594788   3.6296706
  55.4774628  66.9102936   3.3521509  54.0267220  67.2967529   3.5444758
  53.6666832  66.9057083   0.6743762  52.9527855  66.7886429   1.3011763
  54.3573456  66.3208084   0.9860073  53.1486893  47.6000252  82.5528793
  53.8169022  46.9343948  82.3896027  52.3307800  47.1071777  82.6188889
  15.6813841  34.6351700  71.4239349  16.0897083  35.4458847  71.1202164
  14.9848394  34.9240761  72.0135040  27.8228722   2.5967095   1.5252738
  27.6247654   3.4685280   1.8672069  27.8650665   2.0387383   2.3018816
  77.6676865  41.6969757  18.3928986  77.1959686  41.4327011  17.6030388
  78.2370605  42.4103012  18.1044445  56.8173943  67.9461288   3.1091678
  56.7459297  68.6701889   2.4871824  57.7478180  67.9122467   3.3314180
  45.3470497  67.4123840  18.3654289  45.8380013  68.1227036  18.7785225
  44.9781532  67.8047867  17.5741234  28.0880489  56.9274101  48.4552498
  28.5228710  57.7800751  48.4442139  27.3445053  57.0453568  49.0464020
  44.2794876  56.1576271  81.2400894  43.3435860  55.9910202  81.3521576
  44.4706230  56.8702087  81.8499451  55.9627876   9.7661896  41.3885956
  55.3571434  10.2801952  41.9226608  55.4572716   9.5338144  40.6096954
  19.9236183   0.4142733  75.0514145  20.4909344  -0.3529589  74.9756699
  19.8367195   0.7373770  74.1546021  58.7075233  66.6478882  29.4169006
  58.7098541  65.6929550  29.4826527  59.6171303  66.9010315  29.5742817
  53.9676285  59.9360847  88.2480469  53.2036896  60.0768471  87.6887512
  53.9044495  60.6187286  88.9160614  63.1088791  70.0828247  38.7940750
  63.7818451  70.1389160  38.1156921  62.6639442  70.9296722  38.7606697
  29.9654427  55.0988426  58.0549316  30.5730915  55.8201904  58.2181931
  30.4498177  54.3145943  58.3129463  30.5045948  21.5199966  75.1431656
  30.9602814  22.2614117  74.7445602  30.5542507  20.8265362  74.4852295
   6.9936862  70.1117706  17.5371132   6.2574496  70.7203522  17.4753513
   7.6506228  70.5819016  18.0505772   4.4444456  45.5773811  40.1475067
   4.0897765  46.3720131  40.5462532   4.6867123  45.0242996  40.8902321
   6.6340423  11.6767435  73.1218338   6.8082070  12.5532370  72.7788162
   6.8193088  11.7449074  74.0584564  62.8927574   0.8019835  21.1056194
  63.1283417   0.1563729  20.4393482  62.4490967   1.4969639  20.6194134
  23.9031048  60.6627502  55.1466217  24.0325794  60.3088074  54.2667389
  23.3339233  61.4215469  55.0181885  17.1647491  61.8527031  53.2710648
  16.6787529  61.8729019  54.0954628  16.8600407  61.0581474  52.8328094
  11.2585678  55.4729919  78.1015244  11.6655035  54.6145782  78.2188339
  11.4792118  55.7220116  77.2040100  56.9750748  35.2154160  63.2937355
  56.5186920  34.6976089  62.6305428  56.3680840  35.2460327  64.0332336
  58.5916519   4.2270360  78.0010605  59.4826813   4.0354695  78.2936325
  58.4763451   3.6901133  77.2170639  64.1832199  66.4732437  68.0945435
  64.0411530  67.4197998  68.1034164  64.9710388  66.3542557  67.5640488
  49.9470406   5.8794613  44.4634361  50.3611183   5.0223870  44.5643997
  50.4807816   6.3275223  43.8072395  44.1006966  69.6879425  87.8715744
  43.7563324  68.7959824  87.9168167  43.4432487  70.1735229  87.3733749
   3.0451603   1.1551912  76.7497406   3.6149621   0.6086240  77.2908707
   2.4944205   1.6224257  77.3779221  19.3106232  52.2293434  14.2992678
  18.4417381  52.5554352  14.5336552  19.3181934  51.3237228  14.6091442
   3.3556902  40.8978920  69.2670822   2.8884659  40.2283897  68.7673798
   3.3500099  41.6682816  68.6990128  22.5951767  18.8080559  11.7577524
  22.1651115  18.4335938  10.9889517  23.4637375  18.4058552  11.7659912
   4.3326192  51.6266251  16.0435352   4.0595903  50.7152824  16.1490707
   5.2000508  51.5718803  15.6425400  34.8604279  54.1736183  13.4333839
  34.0459366  54.4399719  13.8598690  35.5488586  54.5975037  13.9458437
  29.1624794  44.0687256  43.5475769  29.2758694  44.4161148  44.4322777
  30.0061874  44.2191429  43.1212387  68.5260773  17.2046738  86.0370712
  68.0806656  17.2036018  86.8843231  68.0363922  16.5747738  85.5082474
  74.6987228  37.7423744  27.5467491  74.2973251  38.1424179  26.7753372
  75.2563705  37.0488777  27.1941414  39.0590820  52.6158257   3.5196035
  38.4973145  53.1414909   4.0891004  38.6230698  51.7650146   3.4722695
  49.8439980  70.2929077  70.3754501  49.6324501  69.8469009  69.5553589
  49.0067825  70.3597641  70.8346100  68.4411850  20.6884670  64.8791580
  68.8356476  21.1757870  64.1558609  69.1774750  20.4699097  65.4504166
  30.0558891   0.7994702  48.0053177  30.5123825   1.1141409  48.7855911
  29.4059124   1.4768840  47.8185692  27.9661674  19.2344475   0.7791675
  27.7443657  18.9118404   1.6526442  28.7507973  19.7662811   0.9123634
  21.9304943  62.9097633   7.1729150  20.9848366  63.0135994   7.2786517
  22.0268822  62.1168861   6.6453843  83.3642807  44.6791420  11.8433657
  83.2692566  44.2502632  12.6938162  84.2512131  45.0389481  11.8543425
  18.2140541  11.2697926  78.5101929  17.6990108  12.0685730  78.3965530
  17.6830807  10.5830374  78.1068726  54.8794861  38.2779083   4.7410355
  54.1589966  37.8243980   4.3034768  55.6688423  37.9282036   4.3276839
  25.8692284  24.9876728   7.0765591  26.0325413  24.4193382   6.3238583
  26.2630882  25.8256512   6.8338747  71.0372009  24.2087936  75.5414581
  70.6661987  23.6721687  74.8410187  70.3588181  24.8567505  75.7316742
  75.8962021   8.7875528  14.1346874  75.1755600   8.8932066  14.7557669
  76.4138107   9.5870571  14.2301311  20.7130814  50.5844765  36.8353462
  21.1477566  50.0981865  37.5359230  19.8010292  50.2965698  36.8741417
  76.0827866   5.6534081  74.8321991  75.3219986   5.4356318  74.2936783
  75.9310303   6.5577946  75.1065826  62.2458153  16.9777870  13.7035217
  62.6017761  16.0904770  13.6565237  61.4454346  16.9428234  13.1796913
  63.5551033  39.8398285  39.0901947  63.5219193  39.6745262  40.0324287
  63.0987587  39.0943413  38.7000198   1.4696954  54.9854279  36.4881973
   0.5688071  55.2853737  36.3670959   1.3920207  54.2149467  37.0508308
  36.6742210   5.8552952  26.5213013  36.0491447   6.2798824  27.1088715
  36.3848381   4.9437346  26.4819698  33.9803543  14.9181709  85.4438019
  33.5956268  15.4493933  84.7466507  33.4970512  14.0926237  85.4103088
  82.3469009  42.3144264  63.4713516  82.7982178  41.9191437  64.2172012
  82.8884125  43.0676651  63.2354965  80.3679886  21.3053780  44.8868790
  80.2124100  21.7324562  45.7292747  81.0357513  20.6452351  45.0727272
  49.0715675  67.9127884  12.9497948  50.0270195  67.9655228  12.9735136
  48.8884201  67.0740891  12.5263910   1.0300285  58.1755714  60.2241936
   1.2972921  58.3669243  61.1231842   0.3137178  58.7867126  60.0520439
  23.3429089   6.4628739  65.5529785  23.9880028   6.5165033  66.2581024
  23.8545647   6.2335229  64.7771912  38.4147263   5.5586019  13.9552145
  37.8299484   4.8380094  13.7206678  38.2839699   6.2078233  13.2640953
  77.9467087  20.1158161  65.6097488  77.5491638  20.7380390  65.0006332
  77.9122925  19.2763672  65.1510925  75.4144669  22.9732075   4.5562358
  74.9084396  22.5914993   3.8389726  76.3273239  22.8118839   4.3177028
  77.9870682  16.1900902  63.2516899  77.4528961  16.1688519  62.4576874
  78.7510376  16.7148209  63.0124283  70.1345367  30.1577320  21.8435802
  69.9421234  30.9859142  21.4038982  69.4441681  29.5639153  21.5486202
  83.9685440  12.4072304  38.7948952  84.4790344  11.6756907  38.4477997
  84.5991364  12.9214888  39.2990036  28.5619373   4.0299468  12.3342543
  28.9490509   3.3113830  11.8342133  29.2727489   4.6634145  12.4327250
   5.1614652   8.3709402  81.8522034   5.9388270   8.9133396  81.7190018
   4.5004311   8.9775686  82.1857758  32.2215691  34.0868187  75.1024094
  32.1501427  33.2267151  74.6884613  32.0921555  33.9152031  76.0351639
   1.4415354   9.5886202   7.9052739   2.2846951   9.3192234   8.2696066
   1.5219598  10.5354443   7.7899961  12.2715712  38.5222816  50.0410728
  12.1722546  37.9853516  50.8272514  11.7578125  39.3093681  50.2221069
  13.4839048   2.5294683  18.3761806  13.4275436   1.5841086  18.5152874
  13.6086779   2.8935049  19.2526169  34.9496613  15.5110664  78.1592484
  35.2538757  14.6502171  78.4466858  34.1012192  15.6209040  78.5885620
  68.8717270  52.0879326  48.8324394  68.7678909  52.1890106  47.8862724
  69.5268860  51.3967972  48.9290123  57.2602272  16.5188274  26.5421276
  56.8098907  16.4148769  25.7039013  56.8784332  15.8447561  27.1043472
   7.1602364  65.3126755   4.0470266   7.4966235  66.1719437   3.7925780
   6.5968680  65.0507812   3.3188384  55.0842209  50.3106766  32.6448021
  55.2945137  51.1467438  32.2288666  54.7029762  49.7831802  31.9429283
  69.0698318  38.2985268  78.8472977  68.3702927  38.8848457  78.5590363
  68.6125183  37.5336227  79.1966095  16.2948380  57.3638420  87.5357895
  16.9442120  57.7503510  86.9482880  15.8534365  56.7023964  87.0029831
  16.8790493   1.3366154  23.2755280  17.2521496   0.7606328  22.6082420
  17.5882969   1.9412388  23.4937687   1.3612025   9.6028404  17.5938454
   0.5393822   9.1122189  17.5822792   2.0047569   9.0009499  17.2199516
  58.2057800  54.5993309  78.4059219  59.0346413  54.6104164  78.8845596
  57.6848030  53.9268036  78.8446884  83.2108002  28.2071514  55.6212921
  83.4384613  28.8553715  56.2877884  84.0131454  27.7003803  55.4961319
  19.6970406  58.2853966  64.2173767  18.8217983  58.1815834  63.8440018
  19.5439034  58.4226303  65.1522293  85.6114502  61.1370583  66.8533401
  86.0237885  60.2734871  66.8320465  86.0684891  61.6035080  67.5531769
  59.1625443  47.0246048  48.7148323  59.2783394  47.1005859  49.6619606
  60.0280457  47.2127380  48.3518677  65.9617233   4.7000675  58.1247826
  65.4655914   4.0252914  58.5882034  66.1977844   4.2935953  57.2909431
  64.4312286   4.7377515  45.3016281  64.5871735   4.1434488  44.5676575
  65.0404434   4.4458599  45.9797745  38.1566010  31.6471367  53.4249001
  38.3143883  31.9027500  52.5160561  38.3516273  30.7102890  53.4475250
  14.2140760   0.1485559   3.7859716  13.2707024   0.1544755   3.6239755
  14.3413792   0.7917318   4.4833603  49.8755379  37.2396774  61.4409142
  49.9760590  37.4018936  60.5029297  50.7058144  37.5235329  61.8234024
  83.5974197   2.3164787  26.3422318  82.6950302   2.1659036  26.0607319
  83.5911942   3.2033856  26.7022171  14.8250952  44.9246330   6.3809218
  14.7583971  45.6597366   5.7714915  14.1339769  45.0831337   7.0239339
  43.8342056  19.9334087  45.7063293  43.2587471  19.9451904  44.9415131
  44.4905205  20.6055183  45.5226173  41.0608673   3.8281639  32.4361343
  40.6870232   2.9969795  32.1435509  40.4712448   4.1252189  33.1292000
  70.0765839  63.7765770   1.2687576  70.9404449  64.1887207   1.2790496
  69.4694061  64.4878769   1.4727677  71.6607361  57.0258865  62.9340477
  72.4866257  57.4804611  62.7682304  71.2041702  57.0442314  62.0929489
  49.8989601  35.9814453  44.4492912  50.1984673  35.4500999  43.7115898
  49.0079727  36.2391396  44.2127151  30.3620625  42.4043999  75.4617691
  29.6483517  42.5854263  74.8501511  30.9608173  41.8412781  74.9712448
  13.4428320  65.3265915  83.7764359  12.5616417  65.1397705  84.1002121
  13.7186213  64.5148926  83.3506088   7.2492185  62.9881477  49.1393433
   6.8578057  63.0883408  50.0070953   8.1697025  63.2194290  49.2636375
  66.7686615   9.6093006  38.8173218  66.4563599   8.7406139  38.5641708
  66.7050323   9.6177740  39.7723656  82.0287476  42.3491478  74.0666122
  81.3935623  42.8114738  73.5197830  81.4958191  41.7917328  74.6336288
  22.0732384  47.1380692  63.7209702  22.9542522  47.1856346  63.3497772
  22.0543041  47.8298187  64.3823013  73.7679825  25.4999847  40.8142891
  74.2585297  24.6846485  40.9183235  74.4069824  26.1210098  40.4646568
  12.0414572  34.0982819  34.3401146  11.6866045  33.6909561  33.5499268
  12.0849771  33.3858757  34.9779396  50.4626656  59.8833275  23.3419857
  50.9391403  59.3065948  23.9391346  49.5559311  59.5802307  23.3888302
  19.4738503  53.9795532  69.6666946  20.2775059  54.4945946  69.7381058
  18.7783470  54.6315727  69.5808182  79.7919693  16.9546700  24.0949669
  79.7260284  16.5820503  24.9741936  79.0725479  17.5842514  24.0470810
  19.5550346  64.3936768  82.8316803  19.9659119  63.9675713  82.0794525
  19.8218307  65.3103638  82.7629166  33.0784073  69.4765091  68.0999985
  33.6069183  68.9144363  67.5334396  32.9697723  68.9705658  68.9052582
  74.0687485  27.3000488   9.4352551  73.7709579  27.4752960  10.3279161
  74.5186996  26.4572392   9.4939890  16.3270206   4.5665174  87.0148621
  16.9169731   3.8894508  87.3461685  15.9198742   4.9341960  87.7992554
  41.9393387  64.2206650  62.3345413  41.3333015  63.7270660  61.7819939
  41.3748741  64.6939392  62.9457855  49.4465714  30.8009739  12.7831059
  48.7292175  30.2881470  12.4107590  49.1808853  31.7117729  12.6562595
  13.6402187  13.5075264  85.2689667  13.8492727  13.3964777  86.1964340
  12.8132753  13.9895916  85.2658920  43.7386589  52.6642876  70.8764038
  44.6245842  52.9397278  70.6408234  43.5823097  53.0658455  71.7311172
   5.7544141  64.4966278  72.3227615   5.3553295  65.2870789  71.9592438
   6.3825865  64.2174149  71.6566772  83.8339844  43.2440796  14.5751171
  83.7019577  42.5677185  15.2394466  84.4240723  43.8741150  14.9887362
  71.9449081  59.4710846  69.6285553  71.9679108  60.2992783  69.1491776
  72.3173676  58.8321724  69.0208511  74.6057053  17.8569984  60.8106461
  73.7488098  18.1104183  60.4675179  74.5227203  17.9559231  61.7590981
  50.7551193  44.1470413   9.3787804  49.9176979  43.7072716   9.2319393
  51.1180344  43.7184639  10.1539240  18.7294521   2.2313313  85.9944611
  19.6245632   2.0192177  85.7298584  18.6751671   3.1835890  85.9139023
  81.9696579  18.6931171  30.7433453  81.5500641  19.5533943  30.7531719
  82.6085358  18.7300949  31.4551735  85.1044235  60.9786568  24.3114891
  85.5577774  61.4626312  25.0017567  84.2839203  60.6967583  24.7158947
  41.5094109  18.8007507  11.4458761  41.9911194  18.5471287  10.6585608
  40.8422585  19.4112835  11.1322069  32.9020157  52.1103554  84.5592346
  32.5182076  51.5249786  85.2121124  33.8461723  52.0402603  84.7002716
  20.2079315  40.1470604  72.4087601  20.2404671  39.9679108  71.4690399
  19.4020042  39.7243233  72.7054138  45.2593384  48.9552689  37.5434761
  45.5233345  48.4058342  36.8054619  44.3322563  48.7546196  37.6718712
  48.3767395  39.5355225  46.0618782  49.2283478  39.9723434  46.0483475
  48.1922455  39.3418999  45.1427994  86.3206711  42.0994568  19.6232967
  85.8031540  41.5135612  19.0709095  86.7631454  41.5174370  20.2411137
  19.2097588  37.7803802  53.8085136  20.0412502  38.2106857  54.0077362
  19.3542290  36.8623199  54.0377007  54.7370758  70.3486938  60.5939713
  54.0851059  71.0241165  60.4069595  54.3140984  69.5296097  60.3362617
  54.0042992  20.5255222   7.7682829  53.6479912  19.6948910   7.4531174
  53.4336700  21.1916962   7.3851004   3.8587592  58.0143318  42.8204460
   3.4694452  58.3924026  42.0319481   4.7899408  57.9350777  42.6134415
  12.9888554  59.6931915  22.7372112  12.2061396  59.4978714  23.2524185
  13.6949959  59.2324677  23.1903477  21.8810444  39.8189316   8.4272327
  21.5953922  39.2622833   9.1516504  21.0733185  40.2061768   8.0898180
   6.7555871  50.7388573  70.9998550   7.3761897  50.1419487  70.5817795
   5.9090743  50.5127449  70.6144714  12.8031454  40.1114349  31.9694157
  12.9413557  40.3212585  32.8930511  13.5017529  39.4924164  31.7572861
  72.2648849   9.1339111  38.2061005  72.9812088   8.9935007  37.5869102
  72.6873779   9.1344557  39.0650101   9.7497721  35.0750008  27.4423103
   9.6387262  34.5097198  26.6778793   8.9542799  34.9403229  27.9573708
  60.3768845  53.7594337  63.8664703  59.4538803  53.8510590  63.6300430
  60.8000031  53.4514923  63.0649872  47.1852837  33.5740585  79.9942398
  47.8761330  33.1318893  80.4876404  47.6360435  34.2803040  79.5313568
  80.6118927   7.5829535  88.0143738  80.0264740   6.8645473  88.2539673
  80.1358643   8.3741360  88.2666702  53.4045563   4.9490104  46.2550163
  52.7098236   4.5411158  45.7381020  52.9487076   5.3489261  46.9956245
  60.5462227  50.1122894  85.3326569  59.8781624  50.1004982  84.6472473
  60.1467934  50.6073112  86.0479431  21.9713993  20.0712261  79.3411407
  21.2416420  20.5781250  79.6971512  22.6140022  20.7296276  79.0769348
  14.3783674  48.1534042  46.6839027  14.6185341  49.0614243  46.8684273
  14.3262720  48.1087189  45.7291641  65.0612564  14.4332209  81.0976028
  65.2551575  15.3374548  81.3445740  65.1278763  13.9417810  81.9163132
  60.2350426  67.5734711  24.5451050  60.1674652  66.9951477  25.3048515
  60.8605499  67.1370239  23.9667587  38.8386497  53.2265816  39.4458923
  39.0347672  52.7580376  38.6345749  38.4954529  54.0722046  39.1571579
  84.1811752  63.3417702  35.2945595  84.4641266  63.9521904  34.6137085
  83.9172134  63.9023323  36.0241661  81.2211990  58.1511612  42.2045021
  80.5659866  57.8747787  42.8452415  81.4323959  59.0516205  42.4510727
  35.7131119  34.6025772   7.5306411  35.9794655  33.8358231   8.0379601
  35.9300728  35.3476868   8.0909739  45.6804962  70.1666946  65.7544861
  45.1318779  69.8681488  65.0291443  45.8852768  69.3698196  66.2436600
  69.4960480   4.0794477  12.6082211  68.5913010   3.9347279  12.3312483
  69.4199219   4.5066786  13.4613972  85.7920456  51.5323181  62.3119698
  86.3348389  51.1797256  61.6067848  84.9892883  51.8184128  61.8761253
  81.5791626  20.4946918  64.7480850  81.1221466  19.8197918  65.2499619
  82.4889603  20.4350224  65.0395203  52.9975090  19.0220032  76.8629456
  52.9819870  18.1530533  76.4617996  53.3814507  18.8795757  77.7281265
  85.0824738   3.1391015  85.5381088  85.8551865   2.6074624  85.7291641
  84.9596634   3.0521238  84.5928116  23.3943882  31.1128006  81.0358200
  23.2687740  30.9506512  80.1008606  23.0769348  30.3165474  81.4617767
  57.5342102   1.9018772   0.9334626  57.6758766   2.5527456   1.6208727
  56.7994957   2.2460096   0.4255263  49.0876465  31.7564297   6.0242577
  49.9226151  31.3987236   6.3260965  49.3241997  32.3438377   5.3064675
  44.4667320  55.3673019  69.0680771  44.7112694  55.3853722  69.9933395
  44.7368889  54.5001793  68.7658386  81.7470779  40.0184860  69.5239944
  81.3825912  39.3780823  68.9130402  81.1373215  40.0196037  70.2618484
  74.8377075  49.7057304  86.1378021  74.7007675  49.4316101  87.0446320
  74.2913132  49.1119041  85.6229706   1.9829639  34.6871262  25.8219776
   1.4707804  34.3214302  25.1007519   1.9254715  34.0288200  26.5144768
  64.2741470  68.6526794  47.2488174  64.6208115  69.1829605  47.9663467
  63.7530022  69.2645187  46.7289162  52.5493431  26.7150421  29.4219646
  52.5858154  26.3497143  28.5379753  51.6950798  27.1443291  29.4686508
  73.9377518  39.7951736  83.8200302  73.8041077  39.1197243  84.4849701
  73.4199829  40.5393715  84.1271439  60.7081604  53.1107826   8.4754658
  60.4506836  53.9368210   8.0660791  60.0097771  52.4995041   8.2413101
  57.5136223  62.7375069  28.2404709  57.0077438  63.2618370  28.8612728
  58.3677177  63.1680717  28.2035046  18.6069584  21.0705318  71.3210144
  18.8644352  20.8716316  72.2212219  17.9435482  20.4132977  71.1108704
  63.0966148  51.9240608  18.3994541  63.5668488  51.2374382  18.8723812
  62.4270592  51.4558907  17.9007111  12.2234316  31.4595604  19.3178082
  12.1108284  32.2818680  19.7946358  11.7764549  30.8069744  19.8568573
  74.6938629  59.1575851  82.1852036  74.6077042  59.8549843  81.5352478
  74.9737320  59.6067581  82.9827957  74.6065826  49.0661697  -0.2388940
  73.7357101  48.6785240  -0.3257548  74.9190292  48.7645111   0.6141067
   2.1545632  30.7468700  88.7163620   2.0361578  31.2649651  87.9202576
   3.0336335  30.9726200  89.0205078  59.7976952  56.2752228   1.3569387
  59.4075127  56.2288437   2.2297714  60.2130051  55.4215393   1.2345700
  67.4019928  69.3392029   9.1629238  67.4367523  69.0258789  10.0667248
  66.5726013  69.8136063   9.1056213  67.1997147  66.6152954  86.2308655
  66.3442154  66.9113083  85.9198303  67.1262283  65.6614304  86.2622757
  79.9100571  34.4151001  17.9554024  79.4849472  33.7773857  18.5288410
  79.8734970  34.0169411  17.0857105  69.9889603  44.9200325  36.1439095
  69.7598801  43.9907379  36.1568108  70.7126923  44.9969597  36.7656250
  64.2552185  19.4294300  24.9726295  63.6458702  20.1181679  24.7069893
  64.6643219  19.7659950  25.7698708  74.5615158  29.6816597  56.1553307
  74.8846054  29.7701530  57.0519981  74.5285339  30.5787106  55.8229980
  35.8497124  59.9891205  16.1380482  35.0446854  60.2623482  15.6981506
  35.5949211  59.2200661  16.6478252   1.0900745  22.8773556  46.7611465
   1.9176648  22.5150833  47.0775070   0.4428327  22.5964909  47.4080048
  63.3775253  11.5741138  44.5439644  62.9383545  11.9458809  43.7790146
  64.3099976  11.6284981  44.3347511  84.4579010   8.1521902  40.7631836
  84.3154144   9.0758543  40.9700012  85.4085922   8.0666304  40.6917648
  31.2597866  62.4775314   7.5283766  30.9440746  62.2450104   6.6551700
  30.5274334  62.2736053   8.1100159  43.3940010   6.1614676  77.3948898
  43.1647415   5.2992754  77.0480499  42.5572243   6.6204915  77.4679337
  59.7775269  41.9025993  81.9951706  59.9633560  41.1662636  81.4124908
  58.8287010  42.0169678  81.9414978  64.0210190  13.7810669  46.5116501
  64.7053223  13.3965826  47.0595016  63.8198586  13.1019201  45.8678131
  49.5060005  33.0609703  70.5346375  50.3773308  33.2341576  70.8910370
  49.4556122  33.6062737  69.7495728  80.0798111  33.6612701  52.8222313
  79.5965500  32.8401642  52.7302017  80.6699142  33.5104179  53.5606461
  13.9053707  53.7894669  34.2789230  13.7242651  54.7206650  34.1512451
  13.9482841  53.6818886  35.2290916  13.0402689  34.5550613  61.8635445
  12.6067181  35.2458916  61.3625259  12.8630018  33.7541656  61.3702202
  16.0395851  60.1561127  66.7638931  16.2212620  59.2934799  67.1368408
  15.3500090  59.9979019  66.1191483  69.3161469  23.8385239   7.2916541
  69.4747696  22.9810066   7.6862888  69.7276688  24.4588985   7.8933306
  81.8820724  23.3811092  84.1345978  82.7252731  23.8201332  84.0227356
  81.8101425  23.2374878  85.0782242  50.5948715  59.5501366  49.2542038
  51.3270340  60.1085892  49.5155563  49.8187027  60.0027351  49.5842781
  22.2081470  71.1182785  18.5254459  23.0695133  71.5107498  18.3831558
  21.8727264  70.9509659  17.6446896  61.3018227  38.5785370  50.5952339
  61.1646156  37.7001038  50.9498558  60.5945015  39.1020546  50.9718742
  27.2850342  47.3447418  87.1519394  27.7985535  48.0855637  87.4739838
  27.8063507  46.9861412  86.4336929  21.5686646   5.0332155  60.4643021
  21.6186581   5.4746432  59.6164398  22.4771557   4.9813557  60.7612686
  82.9496536  26.7435970   0.8507199  83.0809250  27.6873035   0.7589836
  83.2806702  26.5396423   1.7253996  12.1642418  37.2876015  84.4988480
  11.6572123  37.8314934  85.1016159  12.9309635  37.8188667  84.2840729
  62.3082542   4.0312700  28.7798882  62.8691330   3.2817817  28.5801125
  62.8956261   4.7862239  28.7442360  79.1829758  16.7749138  40.0581627
  79.0592651  16.5802631  39.1291656  79.6440582  16.0105572  40.4036980
  76.8707428  16.0736237  53.3413467  76.0631561  15.9087801  52.8546638
  76.5962448  16.6070137  54.0872536  44.5676994  66.5393066  56.9193306
  44.3056488  65.6306305  57.0672302  44.9504280  66.5384293  56.0419769
  72.8605728  16.5142403  33.9387169  72.7772980  16.2969990  34.8672104
  73.6384583  16.0370369  33.6499138  52.1298180   1.0120302  54.0543175
  51.4719849   1.5937240  53.6733704  51.6590881   0.1957293  54.2225380
  29.9361706   2.6781075  32.2475853  29.0207558   2.4261668  32.3691330
  30.2876720   2.7394288  33.1357994  69.1781311  38.9377480  43.5929489
  68.8701096  39.7912254  43.2881050  69.4658279  38.4889908  42.7979126
  76.6227875  14.2016373  84.7675858  76.1129990  14.4668598  84.0020752
  76.9296112  13.3196955  84.5571823   1.0041145  17.7779770  84.5792542
   1.0212004  17.1246376  85.2786026   1.1352292  17.2731667  83.7766266
  58.2429276  61.9742584  62.6245193  58.6755943  62.7062225  62.1849022
  57.3176270  62.0734062  62.4004288  47.9729652  64.4742508  14.9360151
  47.1986542  64.0547485  14.5609255  47.7452965  64.6199570  15.8542576
  14.7405968   8.1119213  77.6491699  15.4689255   7.5028543  77.7708511
  15.0158472   8.9082355  78.1034317  28.4846592  52.5857277  67.4706573
  28.1531487  52.7816429  66.5943298  27.7536850  52.1532631  67.9121094
  49.4892693  28.8452816  48.5447655  50.0228157  29.3093567  47.8996353
  49.6671867  29.2950077  49.3707924  65.5351257   5.6100354  26.5557899
  65.1961441   6.2377930  25.9176331  65.1355515   5.8721747  27.3851604
  58.8312187  21.3136787   7.7114100  59.2521629  20.8214207   7.0066271
  57.9016724  21.3115654   7.4829879  84.5450363  54.3964386  17.0751152
  84.3391113  55.3136864  16.8948994  85.4329910  54.2794762  16.7373352
  50.4751778  51.2703094  21.1857948  49.8406067  50.7041016  20.7465229
  51.2868538  51.1474380  20.6935368  45.8836937  56.3917274  56.3301697
  45.0810318  56.0443878  56.7191620  46.5604820  56.2215080  56.9853172
  72.9114914  31.7814083  31.0352383  72.6033554  32.4082069  30.3807068
  72.1212769  31.5218849  31.5089893  54.6290855  54.2486038  22.8693447
  55.3938484  53.8831863  22.4245605  54.6709518  53.8863754  23.7543697
  51.6026268  69.1841888   0.6495988  51.8672905  70.1022186   0.5912730
  52.2310524  68.7182388   0.0980513  10.6771879  62.1449966   8.6427412
  10.5716581  61.4277306   8.0177422   9.8928957  62.1032524   9.1898928
  31.0346622  51.4408875  49.2917404  30.9158592  50.7266922  48.6656075
  31.2296829  52.2050362  48.7492676  48.9491501  26.3466415  60.3264389
  49.3657188  26.2686596  59.4681702  48.5213356  25.5012817  60.4627190
   0.8149424  55.1017189  81.6815948   1.7705365  55.1550217  81.6967773
   0.6291713  54.2316208  81.3285370  59.3533440  70.0516281  30.8398590
  59.1339607  69.9231339  31.7626743  58.6312752  70.5753860  30.4926949
  51.6562767  42.6800308  69.5812073  52.1544380  43.1596680  68.9193802
  50.8324509  42.4585953  69.1470261  47.5697937  10.5644808  73.1818542
  47.1449623  11.3453131  72.8268127  48.4578781  10.5921650  72.8257980
  64.1280136  19.4527912  49.1213531  63.4030762  19.6120262  48.5169220
  63.7471008  19.5780582  49.9905128  42.1471519  68.4977112  30.3019066
  42.3852081  68.0485382  29.4908562  41.4405899  67.9676590  30.6707458
  14.9965277  40.0580635  36.9909325  14.2865915  39.4304237  37.1261902
  14.7487364  40.8173180  37.5185356  76.1301117  45.7955246  58.5776100
  76.2405930  44.9420547  58.1585464  75.3201141  45.7122269  59.0807915
  66.5281448   6.3065171  70.8813171  65.6011200   6.0962744  70.9938354
  66.5372620   7.0086222  70.2307816  68.9423141  42.2180634  86.3556061
  68.4152145  42.4698906  85.5973358  68.8704758  41.2642250  86.3911133
  76.3575211  20.7073116  86.5417862  76.7301559  19.9342232  86.1178665
  76.7674408  20.7272701  87.4065323  58.2132759  23.5922947   0.8499668
  58.3915672  24.2227974   0.1521784  58.7551537  23.8859653   1.5823302
  57.3277092  39.5523643  78.6861801  56.7966385  40.3036842  78.4221573
  56.7682724  39.0640297  79.2901611  25.3831768  38.2191620  17.3891048
  24.4505978  38.0051765  17.3619041  25.5267353  38.7633324  16.6148300
  68.8403320  15.9917259  29.1277027  69.7046356  16.2615280  28.8171959
  68.6581955  16.5741596  29.8651505  25.3501148  38.3586617  86.3081818
  26.2641354  38.3968735  86.5898590  24.8463383  38.4974632  87.1101685
  68.4011993  33.2858391  38.3126755  68.5761795  32.3735428  38.5436058
  67.4945602  33.2855377  38.0056839  22.2344398  52.6297226  35.8837433
  21.4446983  52.0973587  35.9792938  22.9251957  52.1092758  36.2938957
  77.2684708  44.8995819   7.6956286  77.4635773  44.8852272   6.7586341
  76.7174759  44.1298103   7.8373647  23.2155342  50.9886475  78.8580093
  22.7558270  50.1684570  79.0374222  24.1214809  50.8165359  79.1146622
  80.5237122  51.6390953  19.0496349  80.7810440  52.4208069  18.5608215
  79.8542099  51.2254753  18.5047340  20.7520332  48.5470428  34.6173859
  19.8350906  48.6606827  34.3673172  20.9533463  49.3187523  35.1466980
  68.4827118  49.5939217  26.0818233  69.2091599  49.0361938  26.3601074
  68.8057938  50.4866562  26.2037983  38.4543915  39.5316505  70.5837326
  37.5140038  39.7083168  70.5575180  38.5688782  38.9555016  71.3395004
  13.7277040  38.2327881  46.4040146  12.9997663  37.6145172  46.3401299
  13.3116322  39.0740166  46.5922890  80.1535339  52.4288292  81.9784698
  79.3826828  52.2239037  82.5076370  80.2118683  53.3840065  82.0000992
  73.6725922  56.5758591  36.6690636  74.3833084  56.8324814  37.2566528
  74.1155243  56.2418823  35.8889999  53.5454674  57.1443176  20.5017242
  52.7817841  57.7207642  20.4746513  53.6880875  56.9793243  21.4337482
  23.0595779  46.2049332  73.2338333  22.2652264  46.3903275  73.7346954
  22.8707657  46.5337677  72.3549423  23.9164848  66.7844620  63.7746658
  24.6733303  66.4200211  63.3157501  24.0369492  67.7324829  63.7200546
  52.6554451  61.3653831  49.8186646  53.2114143  61.6458015  49.0916901
  52.1733475  62.1534157  50.0693016  38.1584816  41.9845734  17.3930168
  38.5733795  41.5169601  18.1178818  37.9852219  42.8595428  17.7403488
  63.5116158  71.1803894  33.0117226  63.8691521  70.5529556  33.6399956
  63.1620331  71.8883820  33.5528030  57.1190033  51.5298920  28.2334366
  57.1321449  52.4743080  28.3888073  57.8711815  51.1962242  28.7224426
  49.8712463   8.7244034  34.0603104  49.5987778   8.0860367  33.4011612
  50.0547981   8.2002172  34.8399048  19.1747456  66.0276871  18.8119450
  19.5481567  66.4195786  19.6013851  19.5109367  65.1314850  18.8074055
  68.4917603   2.9986260   2.6079764  67.6514587   2.6354334   2.8876517
  69.0211945   2.2330501   2.3847716  16.5734882  59.8825836  37.3782883
  17.4677868  59.6767883  37.1060524  16.6756496  60.5704308  38.0360565
  35.4804955  55.7039948  80.9336548  35.6264381  56.6424942  81.0526199
  34.9420052  55.4485092  81.6826477  24.5059166  55.7190590  24.2266445
  24.6810551  55.2377167  23.4180241  25.3189983  56.1916428  24.4049568
   0.0484044  27.1893578  68.2540970  -0.0600106  27.0244198  67.3174667
   0.4606803  28.0520401  68.2992325  50.3730278  60.1372299  46.3173790
  50.0658302  59.3420944  45.8819237  50.4895630  59.8797035  47.2318916
  11.5302029  26.1641312  76.5759125  10.9853783  26.0992889  75.7915726
  12.4156647  25.9687424  76.2692947  47.1775627  50.6329460  43.4848251
  46.8535576  50.2405624  42.6740952  47.6157646  49.9141350  43.9403763
  33.7483788  10.3499622  82.5306854  34.0271034   9.7030182  83.1787643
  32.8137093  10.4699488  82.6986847  20.6120453  40.7697449  87.8570862
  20.5648212  41.3661156  88.6043167  20.9314995  39.9468384  88.2272339
  57.6737061  68.6199951  16.2438450  57.6132545  69.4178238  16.7692432
  58.6091461  68.4183197  16.2213707  42.2535477  43.0140686  17.5324402
  42.5136871  42.1458664  17.8403130  42.8991661  43.2333488  16.8606300
  78.0809250  14.8812866  13.8441935  78.8907928  14.3759632  13.9148655
  78.0173264  15.3494730  14.6766529  77.3781052  36.2107430   6.3159137
  77.5185471  37.1049156   6.6273074  77.9021759  36.1501884   5.5172138
  58.6377602  39.8823586  88.0831833  58.2722664  40.1545448  88.9249496
  57.8785172  39.6033669  87.5713806  40.0447845  57.5862389  85.7411346
  40.2630997  58.4032898  86.1894608  40.6826553  56.9537697  86.0717850
  80.1101074  49.9408379  38.8347359  79.4050446  50.3022804  39.3718414
  80.1576157  50.5244522  38.0775223  58.4862823  37.8314705  29.3935528
  59.2704468  37.5742836  29.8784981  57.8950653  37.0836830  29.4802227
  54.6617966  37.2016754  63.8423805  54.8257484  37.9713440  64.3873215
  55.5250397  36.8066673  63.7198639  70.8407593  61.0555267  78.2917557
  70.0005722  61.5053787  78.3809128  70.6495895  60.2986221  77.7378769
  20.0375576  65.5059967  62.3019753  19.2360611  65.1052780  62.6385117
  20.6586761  65.4453354  63.0277596  15.6230297  29.3463268   6.4153490
  15.4932394  28.4027672   6.5106430  15.6958294  29.4839039   5.4708891
  81.8187866  18.4152164  75.5700760  82.2786942  18.7808304  76.3257523
  82.0965195  17.4996662  75.5406265  41.2340775  48.5278931  43.7940559
  41.5441437  48.0256653  44.5476227  41.8894005  48.3694534  43.1145859
   2.7828703  56.3167419  53.9480820   1.9923458  56.0385132  54.4105644
   2.7861345  55.7962151  53.1447945  68.6379929  15.1838007  25.2329826
  69.3326645  14.7929316  24.7029934  68.5209351  14.5742550  25.9616680
  71.5488281   0.4463628  79.4490128  71.7206726   0.8264985  78.5875092
  71.7596359  -0.4818146  79.3476257  62.4213524  41.6475258  16.5494957
  62.6321068  40.9962959  17.2186069  63.2512360  42.0930367  16.3790722
   5.1140628  28.8353310  60.5487175   5.1442413  28.7177334  61.4981880
   5.3082614  27.9678955  60.1936455  49.9854279  24.0014935  35.9276047
  50.0665932  23.9624443  36.8805580  49.5993500  23.1597576  35.6854172
  20.5837383  44.0249634  26.8981819  20.9946499  43.1835556  27.0967102
  20.6680927  44.1146584  25.9489346  50.7517242  12.9827843  59.4319572
  51.4058609  12.8958349  58.7385750  49.9246483  13.1079073  58.9666443
  31.6651230   4.8121009  40.9710350  31.3731461   5.5658083  40.4582901
  30.8922653   4.5481763  41.4703026  13.7705708  35.8530769  25.5834656
  14.4675827  35.7746048  24.9321213  13.3517828  36.6909294  25.3863564
  41.9314842  27.7176914  12.7492008  42.4850121  28.0064030  12.0236101
  41.1971970  27.2714138  12.3274279  21.3134346  65.9278030  15.5699720
  21.5451050  65.7393341  14.6605549  20.3727970  65.7570953  15.6178226
  33.9572144  46.1714897  11.8023996  34.1447830  47.0841179  11.5829372
  33.7167358  46.1924477  12.7286615  51.8680344  50.2333336  30.9001484
  51.2690353  49.5733681  31.2492580  51.9286461  50.0317535  29.9663792
  75.7556229  18.4342175  38.1175652  75.1271515  18.7729263  38.7551689
  75.4318924  17.5591640  37.9037590  29.8634472  70.4257965  75.0476379
  30.0521107  70.7091904  75.9422455  30.1581879  69.5156021  75.0175400
  35.9745216  70.7741852  49.6189384  35.7055359  70.7357864  50.5367622
  36.6010399  71.4969711  49.5830002  33.7662239  64.8655090  68.1043854
  33.3189240  65.6764069  67.8623123  33.2977333  64.1815262  67.6259308
  35.7622414  43.6211739  19.3611641  36.4546623  44.1278572  18.9368324
  35.9714508  42.7101517  19.1550045  62.2667732  35.2630844   4.5308876
  62.7667542  34.7592125   5.1730418  61.5796165  34.6641006   4.2388902
  26.9140244   1.7141905  61.2040520  27.8394432   1.5240089  61.3578835
  26.5054264   0.8539059  61.1081924  56.1557961  53.6954002  82.6671295
  56.2208366  54.6428452  82.5473175  56.7533531  53.3299065  82.0147781
  80.8023453   5.2398348  81.9807205  81.1701202   5.1003761  82.8533707
  80.6973038   4.3588438  81.6214828  57.6795044  43.9043579  12.5671434
  57.2277489  44.6702538  12.9214725  57.0431137  43.1936035  12.6450663
  29.9102097   0.2524503  80.1174622  29.0649071   0.6666321  80.2910919
  30.5565262   0.9006754  80.3973083  79.1605072  33.5446815  79.8444824
  79.2814636  32.7676086  80.3901596  78.7663422  34.1902657  80.4310760
  75.8698807  27.4840870  17.3959560  75.3143768  27.9258938  16.7537327
  75.2726898  27.2443199  18.1045494  21.8407631  48.5469055  20.6411972
  21.1391678  49.1620255  20.4276085  22.5870724  48.8448296  20.1211090
  36.8823967  63.9195404  70.5072556  36.9756851  64.6705551  69.9211655
  37.7358932  63.8407974  70.9333725  37.2844048  45.7554512   5.0684042
  36.5303917  45.1934776   5.2469554  37.0277176  46.6144028   5.4038887
  44.0286942  60.9924049  15.4386206  44.5839157  60.8282661  16.2008667
  43.6539307  60.1374855  15.2267303  66.8046875  60.6194077  87.4274826
  67.1338654  60.0048828  88.0834045  66.3054352  61.2624397  87.9309692
  14.4421740  13.6795378  55.4853745  13.8639097  13.0008354  55.8335228
  15.1894569  13.1983595  55.1300354  72.3192749  34.3319359   4.8260403
  71.9227066  33.4608231   4.8373718  72.9893951  34.2989311   5.5087395
  73.7163467  33.4512711  72.3542175  74.2405319  33.3855438  71.5559998
  74.2886810  33.1169701  73.0447998  72.8902664  29.9108067  65.5171967
  71.9868469  29.9381504  65.2020493  72.8396149  29.4398956  66.3490067
  40.8768692  55.5316010  45.4000969  40.1239471  54.9421349  45.3568001
  41.1199989  55.6771355  44.4857979  80.2013931  60.9345703  58.7448311
  79.8719254  60.0368423  58.7868004  81.0067825  60.8703728  58.2315598
  34.6332359  10.9870682  89.0020142  34.2654152  10.1970901  88.6059418
  33.8793869  11.5618849  89.1344299  35.1730919  12.0055647  12.1065130
  35.6052856  12.8381243  12.2970028  34.7292099  12.1517515  11.2711525
  22.7738781  62.3150864  36.3121605  22.2867527  61.4933357  36.2515831
  23.5564461  62.1693649  35.7805748  40.6068687  28.0628605  80.8710556
  41.4661484  27.7031746  81.0912628  40.7414131  28.5101833  80.0355682
  77.6238098   5.2283244  41.6620331  78.3673172   4.7056608  41.9624596
  77.9516144   6.1275907  41.6521492  64.6740494  29.7247009   1.0773731
  65.2902908  29.0709400   1.4076376  64.7343369  29.6510468   0.1249170
  20.9636765  63.9875946  28.4989452  20.6008167  64.8382721  28.2521343
  21.4827156  64.1669540  29.2829475  11.4505119  40.2863045  22.3455009
  11.3643703  40.8276024  23.1302357  11.5237627  40.9151802  21.6276016
  47.7532005  25.8822250   2.1555541  48.0622330  26.2142582   2.9984565
  48.5213661  25.9229069   1.5859072  72.6125031  36.3935432  37.7027206
  72.8678970  37.2504616  37.3611145  72.5987549  35.8235855  36.9338303
  40.8967590  21.4617043   5.4634986  39.9939156  21.3063183   5.7409258
  41.1411438  20.6678467   4.9877896  57.2919273  50.8156891  67.2450638
  58.0404015  50.7208519  67.8341522  57.6693764  51.1447563  66.4292908
  11.0605383  32.8426208  51.0414238  10.1349640  33.0862427  51.0275497
  11.1950521  32.3659706  50.2223129  35.7465782  63.3441048  58.5160446
  35.7449341  64.1907730  58.0695267  34.9731827  63.3689728  59.0794907
  58.9537926  51.1470680  14.7618208  58.1685600  51.5806961  14.4277363
  59.1849060  50.5135193  14.0825338  40.6083794  55.1615639  69.9258347
  39.6802330  55.0807152  69.7061996  40.6331596  55.1162529  70.8816376
   3.8411617   6.5238862  66.1803818   3.8294551   7.4807253  66.1568604
   3.6959333   6.2601700  65.2717590  84.6704865  50.5091133  55.8562775
  84.0381546  51.2216187  55.9497070  84.6285248  50.0407791  56.6900253
  83.2382736  35.8703423  32.5106621  83.3776550  36.5535049  31.8548489
  82.3937378  35.4842072  32.2785110  55.3527412  32.1155205  40.0938301
  56.1800575  32.2553520  39.6331482  55.4855766  32.5178490  40.9521523
  61.1364746  55.1466331  59.4860954  61.2167091  54.3667374  60.0352364
  60.9702950  55.8585625  60.1039734  45.6804848   1.3777651  23.5336323
  45.0911636   1.5602275  24.2655067  45.3789482   1.9564353  22.8333111
  20.4894867  35.7383652   0.3844197  20.0188694  34.9266930   0.1948490
  19.8220615  36.3244896   0.7411175  19.4440823  29.5925789  12.6902847
  20.1383705  29.2548180  13.2560701  19.7877502  30.4220829  12.3585510
  50.1506004  39.8126221  76.5652924  50.3210411  39.0295639  77.0887451
  50.5995560  40.5163040  77.0337982  47.4209290  47.8305359   7.1817632
  48.0055199  47.4638367   7.8451028  46.6722679  48.1607285   7.6784616
   2.8169429  44.8339806  35.0343933   2.4137850  44.7378807  35.8972130
   2.3845952  44.1734467  34.4930954  44.3540001  16.3675613  71.2573318
  44.8127747  16.7067204  72.0259171  43.6348915  15.8484364  71.6173553
  15.3709860  26.2311954  11.8944721  16.2522068  26.5282192  11.6676264
  15.0086842  25.9050808  11.0706892   0.7848648   9.6009235  54.5550461
   0.1324074  10.2908239  54.4343452   0.3654129   8.8118963  54.2119293
  51.5651016   2.0951390  76.8995590  51.9870987   2.0716126  76.0407257
  52.2602539   1.8609354  77.5144882  84.2983246  19.6677990  43.8376808
  83.9795456  20.5701962  43.8205643  83.6980209  19.1908112  43.2646599
  83.5063553  19.3591766  47.6965637  82.7412186  19.3539524  47.1214333
  83.6097488  18.4464970  47.9659271  10.9617167  57.5630913  28.7125530
  10.2970648  56.9299202  28.9837837  10.8147345  58.3215485  29.2776814
  40.6427460  11.0121365   0.3627216  40.7387428  10.1045113   0.6512218
  40.6490097  10.9615669  -0.5931211  18.4956570   6.6625223  26.3153687
  18.6431427   7.6053452  26.2407703  18.6605263   6.3239403  25.4353619
  36.8641205  39.8853073  12.0619917  37.2538719  40.5745392  11.5241413
  37.0906715  40.1256485  12.9604025  54.8885880  59.9062157  20.3086777
  54.8247604  60.0113640  21.2579403  54.3567352  59.1338120  20.1169605
  37.6855888  52.4337883  70.5896759  37.0462456  52.0380592  71.1820221
  38.4796219  51.9134293  70.7120438   1.1084758  17.7576847  24.8432140
   1.4822674  17.4759579  24.0082645   1.3698332  18.6748428  24.9253330
  62.8803215  18.2430840  72.2000580  63.6610222  18.4370461  71.6812897
  62.7842674  17.2924862  72.1420135  12.3253126  52.4378090  15.4214211
  13.2184887  52.0963097  15.4643917  12.3027592  53.1329117  16.0791092
  26.4718399  40.3752136  81.7828140  25.6322956  40.3002014  82.2364349
  26.8903522  39.5239868  81.9112167  62.3399696   2.4552839  50.0872192
  62.9030495   3.1800861  50.3589401  61.6220665   2.8745489  49.6128082
  83.9420319  43.4982033  43.2023277  84.7597580  43.8554497  43.5486374
  83.8746338  42.6285629  43.5965614  67.2849579   4.8078542  23.9264259
  67.4134445   5.6452870  23.4809704  67.2238541   5.0367799  24.8538361
  55.0366974   6.2991972   6.3779106  55.0446663   6.1987405   5.4260302
  55.5737000   5.5750928   6.6996741  15.8645544  39.9351273  23.6506977
  16.5929070  40.5025597  23.3982029  16.2133274  39.4009628  24.3643227
  42.3105812  60.9942207  28.4399643  43.0401611  61.6129265  28.4060249
  42.2650375  60.6289024  27.5563927  39.9329987  68.7699738   7.2814317
  40.0040359  69.3643875   6.5345378  39.9085274  67.8964310   6.8908429
   2.8802121  35.3209648  81.3274536   2.6409776  34.4214363  81.1041946
   3.7963049  35.3983345  81.0609512   5.9896588   0.1925147  67.0560074
   5.9416533   1.1341064  66.8906784   6.0631809   0.1198639  68.0076065
  67.8052444   1.2949164  17.7057495  67.9688644   0.9195055  18.5709248
  67.3843155   2.1356621  17.8851795  72.1570969  43.9083710   0.3207685
  72.8360214  43.2488556   0.4633519  72.5703278  44.7351646   0.5695301
  57.0830269  25.3747158  24.3815861  57.8121109  25.1855145  24.9722366
  57.4702530  25.9054832  23.6854725  84.1237640  44.5134964  86.3827515
  83.2897720  44.7977257  86.7567749  83.9892883  43.5894928  86.1721115
  55.0495377  33.2724152  79.5168152  55.8561897  33.7712784  79.3876572
  55.0745125  33.0107574  80.4372177  29.3930492  43.6195107  66.5018082
  29.3573112  44.4515686  66.0299683  30.1950283  43.6731834  67.0215988
  54.8585091  22.8710842   3.1433041  54.9740524  23.8190784   3.0785973
  53.9216805  22.7542057   3.3011906  84.2353516  16.5047455  14.9056978
  84.0521317  16.9232807  15.7468224  83.8554459  17.0962391  14.2560558
  28.5201740   1.4277493  83.8895798  28.0945663   2.0391026  84.4906921
  27.7972527   0.9548283  83.4773178  66.2348862  48.9011459  65.3184280
  65.4153442  48.7911148  64.8362732  65.9695816  49.2710876  66.1604462
  26.0492287  47.9098015   0.7778732  26.6242027  47.9046021   1.5431243
  26.3039894  48.6943054   0.2921976  13.5846014  39.0110855  11.3280096
  14.4851294  39.3221474  11.2356997  13.6109877  38.1057625  11.0182934
  18.3689480  63.0201988  49.4740829  17.5643864  63.3564453  49.8688583
  18.8965321  63.8005409  49.3039246  78.4159546  36.3627472  68.6243210
  78.5286331  35.4380493  68.4041748  77.5089722  36.4290466  68.9230194
  79.1175919  58.4469147  38.9148293  79.8334579  58.7497063  39.4734726
  78.8750381  59.2156219  38.3986053  23.0636826  15.6489649  44.8545494
  23.6798115  15.5469341  44.1291504  23.2308502  14.8940182  45.4187660
  79.3786163  30.9955292  40.6343422  78.9565811  31.3593254  41.4126549
  79.1477051  31.6022892  39.9309578  56.6832466  15.5865345   6.0906601
  56.8126602  14.9336739   6.7785969  56.3832855  15.0817099   5.3347454
  81.6242142  27.0516624  16.7684231  81.0547867  26.4929390  17.2973919
  81.0263443  27.5188541  16.1848850   2.9105766  61.5114899  44.9212608
   3.4259558  61.9829903  44.2668114   3.5268242  60.8903008  45.3093300
  72.4796066  60.0016403  57.3686752  72.7480392  60.5972672  56.6690979
  72.3141327  59.1699104  56.9247475  84.9320831  67.7050552  79.7399139
  85.0244370  67.2771912  80.5911713  85.4527893  67.1669464  79.1436462
  38.5545578  39.9409599  59.0505981  37.8727875  40.5162773  58.7035713
  39.3122444  40.1009903  58.4879875  62.4395103  67.3285828  63.1280861
  62.3604050  66.3906326  63.3019295  63.2227287  67.5960770  63.6089668
  69.3035126  40.4278755  67.6117172  68.5137787  39.8975525  67.5053635
  69.0210037  41.3206635  67.4133377  43.8313828  38.8139496  80.9142380
  43.8774490  37.9194412  81.2518234  43.9006157  38.7154388  79.9646378
  40.3607330  32.5928421  29.3905106  39.7194099  32.7185669  30.0898895
  40.0988083  31.7739563  28.9697304  66.6895218  52.0759850  55.0029221
  66.3227615  52.6592445  55.6673965  67.4891205  52.5154381  54.7135010
  79.5511169  21.6577282  28.3174763  79.0449371  21.5476322  27.5125561
  80.3727112  22.0567036  28.0310650  84.8146973  65.4899979  38.7392235
  85.7626419  65.3573303  38.7340012  84.6947479  66.3746490  38.3939133
  85.2346802  39.0627823  85.1483994  85.3986893  39.9160576  84.7468338
  86.0177994  38.8894234  85.6707993  13.2009220  41.7720490  28.3867588
  13.3466854  42.7168846  28.4344025  12.3628798  41.6363945  28.8289299
  66.3147278  20.3257370  75.6716385  66.4562149  20.3768234  76.6169434
  65.3764114  20.4794006  75.5612488  43.0369949  12.5773039  25.8556824
  43.7255821  13.1811047  26.1340752  43.3561745  12.2145948  25.0293655
  81.5607758  13.2633610  43.5549660  81.0823441  13.2069321  44.3821030
  82.4831085  13.2338676  43.8092728  70.1736069  43.5676422  22.9110260
  69.2859344  43.9182129  22.8377399  70.3606110  43.5834084  23.8496475
  35.5526123  37.5696640  87.6341934  36.3994865  37.7075615  88.0584793
  35.2295456  36.7486992  88.0055084  53.4162865  16.4500942  75.8353806
  53.8897972  15.6463165  75.6209869  52.5029526  16.2526188  75.6278763
  70.8675003  38.2725716  31.8419018  71.7776566  38.2697945  31.5455360
  70.4174347  38.8527603  31.2278538  23.9957657  66.4553452  44.1406746
  23.8835850  67.1701965  43.5140686  24.2202396  65.6970978  43.6013222
  70.2564850  39.3208160  65.1140442  71.0521164  38.9325027  65.4779358
  69.7228241  39.5349007  65.8792953   8.1812363  69.3064499  40.6363258
   8.1813574  68.7724915  39.8418961   7.4902511  69.9525986  40.4905128
  37.5972633  29.2430744  87.3263092  36.7517624  28.9840317  86.9598999
  37.4361610  30.1022224  87.7163620  61.5929604  38.2734070   5.8439403
  62.3310089  37.6800728   5.9834795  61.7689667  38.6790848   4.9950118
  30.6139050  67.2834396  15.2467022  30.9856930  66.4246368  15.0455408
  29.6722260  67.1736298  15.1147451  21.0107803   0.4882157  63.5112038
  20.5772419   0.8786061  62.7523422  21.9208145   0.7767599  63.4418488
  49.3268166  43.4959030  82.3569489  48.4028473  43.5169945  82.6060944
  49.4127655  42.7065849  81.8223267  71.1557693  32.9850769  39.9267998
  70.7878876  33.1442947  39.0575790  71.9315491  33.5445099  39.9646950
  70.5629959  51.8814735  58.2999916  70.1555939  51.0378532  58.4963646
  71.1232071  52.0585899  59.0556526  27.6234360  20.2431469  73.6643982
  28.4464931  19.7552147  73.6373901  27.2692299  20.1645565  72.7786255
  53.7399788  39.3275528  19.1392593  53.9379845  39.9938240  19.7973652
  54.3429718  39.5148468  18.4198494  15.6904469  16.8579082   7.2156100
  16.1421852  17.7017689   7.2235651  15.8189983  16.5090961   8.0976744
  52.0237541  59.8385887  31.5147228  52.8060188  59.5294342  31.9715805
  52.0038567  59.3309555  30.7034607  78.1072311  39.9084396  80.0337524
  77.3340378  40.2786102  80.4596329  78.7553711  40.6123123  80.0603561
  45.3570633  28.3490143  60.6066399  45.3544159  27.4002934  60.7337418
  46.0423775  28.5015907  59.9560242  68.5545425  37.6997070   5.9843674
  68.0979919  38.3746529   5.4821329  69.3150101  37.4753838   5.4480834
  22.0323143  53.6872902  84.0993042  21.5120487  54.3545685  84.5468445
  22.4693775  53.2110062  84.8052444  68.2390747  16.8853111  62.3939629
  68.4346390  17.1497383  63.2928886  67.7150803  17.6045609  62.0413437
  70.4473038  46.3306580  43.9638023  71.2330399  46.7889442  43.6657677
  70.7096863  45.9145432  44.7849236  63.8166046   9.1684046  66.1349258
  63.0484123   9.3752041  66.6672287  63.4836807   8.5905752  65.4482574
  59.2258606  63.9642944   3.7663217  59.7399368  64.7713394   3.7412887
  58.3180084  64.2605362   3.8317120  39.9003220  40.3834839  81.1922989
  39.0749397  40.6939697  81.5645599  39.6571007  40.0186958  80.3414154
  54.4298859  56.0672302  42.9154968  55.3210793  56.2370987  42.6102905
  53.9792595  56.9060402  42.8177147  58.5688972  42.8415070  71.6727219
  58.9898491  42.0354233  71.3739548  59.1798325  43.2080269  72.3119888
  80.8244781  49.9270592  81.2858353  80.2906570  49.7504425  82.0604782
  81.1632233  50.8114433  81.4249573  32.6499214  22.7340946  69.7465744
  32.9154243  22.3312206  70.5732727  33.4671898  23.0485630  69.3600311
  83.5248260  52.0688210  65.2676849  82.7124939  52.1622238  65.7653046
  83.7102890  52.9504242  64.9442596  46.8952675  40.8999977  74.0922928
  47.7004623  40.8045654  74.6010056  46.9629784  41.7693672  73.6975327
  37.6689568  31.9521294   2.5643044  38.2452850  32.7141609   2.6224566
  38.2646141  31.2041645   2.5199010  82.0772247  50.3975143  77.7475433
  81.4946136  51.0517845  78.1332016  81.4886703  49.7242813  77.4060898
  29.9306087  63.2938652  50.2489967  29.6093197  63.1370888  49.3610649
  30.1534977  62.4238739  50.5801544  78.0740128  45.1141891   5.1384363
  78.0347748  44.2854156   4.6611290  78.2979355  45.7639351   4.4721622
  13.0423622  43.3571053  49.3833351  12.3348093  43.6435242  49.9608841
  13.5706110  42.7703362  49.9245262  34.6719170  19.1341877  80.5539703
  34.0722809  19.5103703  79.9096375  35.4983635  19.0332241  80.0817184
  83.9402390  66.3155899  73.7295303  83.2997055  66.9657822  73.4410782
  84.1306686  66.5531921  74.6370087  64.9431458  21.1991482  60.7735214
  64.7047119  21.6635818  61.5758209  64.3398972  21.5382271  60.1122017
   3.4090524  40.5054703  76.2475739   3.3148499  41.4576302  76.2750168
   2.7870648  40.1843376  76.9004364  14.9797773  32.1734695  87.1533737
  15.6039286  32.7999077  86.7869797  14.3499355  32.7139549  87.6302414
  49.8905754  45.5406647  74.4697266  49.3829536  46.2087517  74.9303970
  49.7690392  44.7464333  74.9899673  60.2014542  33.6979446  55.3446655
  60.1623535  33.6609650  54.3889809  60.2049484  34.6332436  55.5482216
  63.9577026  71.0912247  63.2289886  63.9648094  71.6211700  62.4319077
  63.1514473  70.5788193  63.1687508  71.1167297  35.5893822  22.6863670
  70.4702377  35.8558350  23.3400345  70.6321030  35.5779381  21.8609943
  17.6451569  12.9582014  84.0223236  18.1904011  12.8380880  83.2448120
  16.9218349  13.5099783  83.7247009  67.5892334  24.2010460  37.9288559
  68.5062943  24.3464470  37.6962814  67.1680527  25.0482254  37.7835045
  27.6611061  43.9824829  84.0112305  28.2094326  43.2154961  84.1764526
  27.8149948  44.1930199  83.0902405  85.5168152  13.7502079  82.5257950
  85.2476959  12.9682865  83.0078735  85.5828629  13.4598207  81.6160965
  74.6808777  47.0543976  75.5012589  75.5854645  46.7664986  75.3785248
  74.4738770  47.5405769  74.7031326  47.5804482  14.1508360  79.1627350
  47.5367050  14.3723774  78.2325516  47.8176346  14.9719982  79.5936203
  50.8917046  18.8219032  30.6416588  50.9749260  19.7749863  30.6110115
  50.3717194  18.6520195  31.4271431  82.0605545  46.4766235  58.0712318
  82.6432724  46.3382530  57.3245544  81.4806213  45.7151146  58.0668068
  15.8207722  12.3657007  60.5774841  16.1047630  11.5079041  60.8933411
  16.6214447  12.8897705  60.5550079  14.4761572  52.3155403  87.3966141
  13.7671824  52.6086235  86.8241806  14.2512627  52.6697044  88.2569809
  50.3586960  49.7078590  27.8489857  50.0062981  50.5424919  28.1579151
  50.2413597  49.7351112  26.8993969  27.8042564  64.8690109  48.4131546
  27.6170635  63.9315720  48.3641129  27.7239590  65.1768341  47.5103645
   2.0878644  45.2182732  56.6324730   2.8282423  44.7321663  56.2694664
   1.3163654  44.8013535  56.2488098  70.4136581  57.1032257  50.4515495
  71.1089935  57.2839661  51.0840683  70.0482254  57.9634743  50.2450027
  44.2959480  58.7745094  12.6013641  44.0222435  58.5542717  13.4917641
  43.8741913  59.6148720  12.4220972  28.4427052  31.9394932  13.5692406
  27.8852901  32.5686951  14.0270901  27.9708538  31.1092720  13.6349812
  56.4635239  62.2676086  47.6056061  56.1435471  62.3826141  48.5003777
  57.2769623  61.7727394  47.7038765  23.5999546  36.3189621  84.0525589
  23.5376606  36.2312126  85.0036850  24.5402985  36.3280640  83.8739471
  77.6825256  47.1899490  33.2989578  76.8843307  47.1437416  33.8252449
  77.5174332  46.6026154  32.5613823   2.2444119   6.4261737  76.8306580
   2.6719215   5.5723276  76.7642212   2.4922705   6.8813949  76.0259399
  56.1602020   7.2441096  12.9868507  55.4266853   7.1955347  13.5998964
  55.9618950   6.5833998  12.3232498  36.8696823  15.8883505  70.9868851
  37.7440681  15.5157995  70.8733673  36.5886993  16.1144371  70.1002274
  67.7738800  32.1806221  88.0259476  68.5413971  32.3287811  87.4734955
  67.6086349  33.0283012  88.4386978   4.9446602   8.5946627  69.3698883
   5.1448870   9.0190544  70.2041702   5.3756237   9.1418476  68.7133102
  18.7142391  16.8623142  71.5139313  18.1599293  16.1627045  71.1682129
  18.0990334  17.4904594  71.8923340  84.7431107  56.8190994  69.8780975
  84.2093735  56.4049873  70.5562363  84.6078339  57.7579041  70.0068512
  20.7088356  46.6897354  14.0722027  19.8929176  47.1133270  14.3388109
  20.4701118  46.1730614  13.3025990   3.8075736  35.0751076  31.8154926
   4.1186891  35.4701385  31.0010052   3.8798444  35.7752762  32.4641647
  76.4769516  71.1251831  38.1440086  77.1464157  71.7201843  38.4816666
  76.6066437  71.1321259  37.1956596  78.9544983  19.7380829  23.7015095
  78.3646164  19.9461308  22.9769478  79.8273010  19.7421894  23.3085327
  22.1349182  62.4178658  40.6966934  22.0695210  61.4683609  40.7986717
  21.3236408  62.7559204  41.0758743  29.0966339  11.8604078  70.6228180
  28.4740829  11.1390400  70.7138748  29.0792751  12.0754910  69.6902618
  24.9417706  17.6908588   5.0840707  24.5472088  17.5586224   4.2220573
  24.8662491  18.6322174   5.2401900   5.1842027   1.3001549  56.2366371
   5.0493002   2.2455246  56.3022804   4.7572312   1.0536895  55.4161606
  26.6718254  53.6656342  50.9556084  26.7722130  52.7322121  50.7688560
  27.3922691  53.8694077  51.5519905  79.5825119  63.7326317  37.7147446
  79.7323074  62.7876015  37.7415352  78.7592850  63.8581238  38.1867332
  30.0949574  70.6298599  43.7040443  29.1477680  70.7665405  43.6844444
  30.4224491  71.1132889  42.9455719  36.9350014  66.0077667  37.9429779
  36.5373039  66.4816132  38.6734200  36.3488846  65.2664337  37.7909050
  31.5420551  68.0597916  70.6249619  30.9587975  67.4879532  71.1240005
  30.9961033  68.8087234  70.3856583  71.0276794  42.7427597  15.9286461
  70.6456070  42.0558243  15.3824110  71.0952225  42.3477211  16.7979069
   3.4003263   5.4485793  17.4633255   3.4855723   5.2703447  18.3999138
   3.3601151   4.5826406  17.0574112  11.1829233   0.3619096  12.6677628
  10.9171381  -0.5161363  12.9409389  11.6264734   0.7269606  13.4334211
  37.2902031  18.7584076  26.0768967  37.7311096  18.9590969  26.9024620
  38.0008011  18.6647224  25.4424629  21.5749302  28.7741241  88.5994263
  20.6671162  28.5148563  88.4416809  21.6336422  29.6641426  88.2520752
  50.1344681  39.0089951  64.7524643  50.6581383  39.6249504  65.2649155
  49.2995110  39.4576378  64.6190643  83.5162430  47.4727554  83.7701569
  83.2868576  48.3995819  83.7023087  82.6749344  47.0163574  83.7590179
  53.3903847  37.4324570  85.1483078  54.0570641  37.8274803  85.7102051
  53.7991295  37.3920860  84.2837143  63.0241127  30.7867012  17.3073502
  63.4119453  30.9698620  18.1630783  62.1699142  30.4044018  17.5084019
  62.3919830  61.4603691  80.2448273  61.8704720  61.7102699  81.0075912
  62.8077354  62.2747536  79.9617081  19.0606327   5.5621142  74.1327667
  18.3712692   5.0562077  73.7025757  19.6900635   4.9049964  74.4298325
  22.0544567   1.3091609  14.1008434  21.4123421   1.0549783  14.7636490
  22.2298851   0.5028795  13.6156979  80.3648148  26.0236664  30.2045479
  79.4667358  25.7271938  30.0569477  80.7655716  26.0157261  29.3353157
  51.8388519  51.3840523   0.6082987  51.8022652  50.5075226   0.2254274
  52.3810959  51.8880272   0.0014930   1.8721572  49.8439941  27.2620983
   2.0838158  50.7600212  27.4418850   2.2537177  49.6746101  26.4007320
   2.1093712  19.7922554   2.1768117   1.8595394  20.5919170   1.7138231
   2.9491282  20.0039673   2.5845106  73.0322266  43.4615707  44.6922493
  73.8715439  43.3323402  45.1339149  73.2675323  43.6940651  43.7940254
  46.6523743  27.0649452  41.6808624  47.3448372  26.8015060  41.0747871
  47.0589714  27.0138206  42.5459061   6.2980180   4.9183292  62.2881546
   6.8680620   4.9987960  63.0528793   6.7144985   4.2462554  61.7486229
  78.3915558  55.1111412  41.3931007  79.2815399  55.4566650  41.3240051
  78.2171860  54.7251015  40.5347290  58.1077652  39.6490402  32.4164314
  58.0974808  40.2948799  33.1228409  58.8339500  39.0653877  32.6360664
  81.1391983  20.4462910  22.2442951  80.6609802  21.1617146  21.8251247
  81.8599167  20.8769436  22.7040062  28.1495667  12.3992481  67.6512833
  28.4735336  12.0696268  66.8130569  27.2920685  11.9868650  67.7555389
  44.2735367  63.7598495  12.0425577  44.7317200  64.4526520  11.5668163
  44.7500458  63.6813049  12.8689976   6.6960483  33.0198975  25.9680748
   6.6557717  33.8951416  25.5826359   7.6234255  32.7853737  25.9334202
  77.8959045  54.4834824  15.6916370  77.2414398  54.0425568  15.1498890
  77.4479294  54.6491737  16.5211525  55.7364807  23.5490494  47.9706955
  55.0975380  22.8887863  48.2390938  56.5502815  23.0597420  47.8501320
  49.8015976  25.4887581  33.7834702  49.1532402  26.1915550  33.8274765
  49.7486763  25.0602341  34.6377525  75.6953888  30.9695282  22.1319351
  75.3902283  31.7280006  21.6341114  76.6087341  31.1693859  22.3370857
  18.8485031  29.2458839   4.6428499  18.4080753  29.3883877   5.4806728
  18.8129292  30.0967331   4.2057910  46.3451576   3.3805146  27.4131184
  47.1220665   3.8661101  27.1359062  46.1876602   3.6728711  28.3108673
  23.6180439  57.9838142   3.6805227  23.5918732  57.7857780   4.6166463
  22.7985592  57.6275749   3.3373454  51.8506241  67.7093658  13.4195709
  51.7102852  67.4439240  14.3284597  51.8399963  66.8891983  12.9261618
  37.8756676  42.7113190   8.2828426  38.2927818  41.9841995   7.8207350
  37.6602516  42.3552246   9.1448317  54.8943176  34.9366760  33.1736603
  54.2188110  35.4793510  32.7669334  54.4216995  34.4074326  33.8161316
  32.5942879  62.9649925  54.1039581  32.4329605  62.2669640  53.4691658
  31.7220325  63.2279053  54.3976898  22.6832638  56.1307907  60.6507645
  22.0153236  56.8146706  60.6018372  22.6901531  55.7397804  59.7770996
  36.0303001  69.1242294  70.0853653  36.0377235  68.3017883  69.5957031
  36.9539032  69.3608932  70.1700668  74.9053116   6.1323590  35.8752327
  75.5996323   5.7615790  35.3305511  74.3992767   5.3741388  36.1672249
  33.3710976   1.7023664  59.3207741  33.5356483   2.5704014  58.9524422
  34.1236649   1.1787997  59.0455399  19.0184689  20.4675159  21.8084660
  19.0159988  20.7003632  22.7369099  19.9235725  20.2139759  21.6275291
   8.9745064  48.2384071  54.8948021   8.9076738  49.1328964  55.2289505
   8.4624367  47.7138977  55.5103531  29.5026131   1.6814684  61.7475319
  30.2573280   2.1828825  62.0561066  29.8724899   1.0422939  61.1385345
  76.4332047  47.9805984  37.9092865  77.3831482  48.0876503  37.9579239
  76.1037445  48.8556480  37.7043915  37.4116936  35.1648026  70.9666214
  36.6135025  35.5643120  71.3123322  37.1445274  34.2837143  70.7048187
  67.5967102  13.1395864  39.9939651  67.2903671  13.0663261  39.0900764
  67.1267929  13.8957510  40.3455772  29.0925999  49.9266014  39.9105988
  29.8909111  49.6997299  40.3875313  28.5358086  49.1524429  39.9936256
  32.3561058   0.6207132  67.8597946  32.9796486   1.1778100  67.3938828
  32.7236900  -0.2603568  67.7903061  24.2137108  59.4793930   7.2039380
  25.1555614  59.6498871   7.2130847  24.1126480  58.6664429   7.6990495
  65.1355515  32.4783363  21.9269466  65.7183151  32.9817581  22.4954414
  64.8214951  31.7625599  22.4794521  67.5522385   1.6615415  51.0752335
  68.4886017   1.8527746  51.0214767  67.1772079   2.0813963  50.3010826
  31.7699890  50.5896988   4.3858438  31.7856770  51.1598358   5.1545630
  31.4256802  49.7580376   4.7114539  27.8772621  30.4814548  70.7315445
  27.3076267  31.0156803  70.1780548  27.2805824  30.0490036  71.3424377
  71.1385193  13.1406937  68.8663177  71.7256165  13.6067467  69.4615860
  71.6251907  13.0861540  68.0438766  81.2749939   0.1687017  40.5783386
  80.6702271   0.5092880  39.9191742  80.7167053  -0.3100475  41.1909904
  66.6635895  46.5712395  12.6633530  67.5805435  46.2967339  12.6719809
  66.6149368  47.2645912  13.3214798   7.1050839  35.9042015  25.9772854
   6.7161489  36.2675362  25.1817055   6.3747020  35.8383980  26.5924644
   9.8382654  50.9208641  69.8598862   9.3396721  51.1746559  69.0832138
  10.7093258  51.2910347  69.7168427  16.4970798  64.2712021  67.0338669
  16.9230137  64.3935928  67.8823013  16.9784298  64.8462906  66.4390488
  24.2944908  11.8405190  73.5228424  24.5721397  12.3457966  72.7587509
  24.9846706  11.1881208  73.6422653  48.6104736  70.3900452  62.2692642
  48.1470222  69.6853943  62.7219353  49.5320320  70.2484283  62.4858551
  36.7688560  41.3009338  72.7414474  37.1840935  42.0199547  72.2651978
  37.4223709  41.0324326  73.3872452  52.7019501  35.9110413  31.9950352
  52.1243401  35.7132034  32.7322350  52.1256943  35.9043999  31.2307606
  51.7779884  63.4579659  60.2921791  51.7307320  62.7704086  60.9564552
  52.5842018  63.2712479  59.8111458  23.6042538   3.2140582  66.7833939
  24.3228359   3.4867404  66.2128525  23.0040741   3.9597185  66.7856903
  50.8635559  70.3663406  73.0048828  50.2219543  70.6935043  72.3743668
  51.4374008  69.7989197  72.4901276   1.1635349   4.2555847  69.9256897
   0.6284726   3.4684813  69.8236618   0.7269226   4.7541351  70.6163712
   6.5087409  20.1516438  82.6266556   5.7326298  19.6091003  82.4869003
   7.2358093  19.6157703  82.3097305  79.6367340  44.5997543  21.7184200
  80.1102142  44.5268402  22.5471153  80.2174530  45.1111374  21.1549644
  57.5677452  59.0094948  42.5063362  57.7748184  59.8965302  42.2121925
  56.7985191  59.1161690  43.0659332  81.0274200  67.4270630  67.3306580
  81.1292648  67.0363617  66.4627762  80.1976547  67.0770340  67.6550140
  42.1512222  18.0832157  73.6241302  41.2302933  17.9856720  73.8662262
  42.6136475  18.1425915  74.4601135  55.1174850  53.5580482   2.9300797
  54.3379059  54.0441971   2.6614792  55.5790596  53.3745537   2.1118433
  10.2307634  28.9025974   8.0367718  10.3265162  29.0960274   7.1042223
   9.9300518  27.9942474   8.0633268  23.8464012  64.4212799  41.9897385
  23.4501553  65.2140579  41.6281853  23.2875328  63.7100029  41.6767120
  52.1827660  27.1661472  45.1007042  53.1228981  27.3405819  45.0564766
  51.8173180  27.6305122  44.3476791  72.9789505   5.7434182  71.8530197
  73.8641357   6.0824933  71.7199631  72.9508057   5.5042830  72.7794418
  10.8118849  45.2707939  78.8997726  10.6798811  46.0753288  79.4012985
  10.6154375  45.5170555  77.9958954  49.0353813  40.4256821  56.4613152
  48.3103485  39.8459435  56.6946907  49.4987297  39.9611130  55.7643852
  61.3621445   5.6819057  85.6235428  61.3801079   6.6127887  85.4013519
  62.2801666   5.4522753  85.7675323  56.0404053  66.8209610  68.7686844
  56.7828941  67.4187622  68.6816711  55.2972870  67.3087463  68.4136200
  50.8945999  51.4428291  62.3372459  51.3172112  51.1906662  61.5162430
  51.5003395  51.1501770  63.0181808  28.4566536   0.4336051  24.9282265
  27.8715611  -0.1950131  25.3509998  27.8702374   1.0821975  24.5387707
  25.1542206  16.9106178  77.9338684  25.7599030  17.4345036  77.4095383
  24.3055840  17.3378830  77.8177109  83.4032745  15.1334076   6.1845241
  83.6132202  15.8844948   6.7395234  83.5878372  14.3711205   6.7332397
  45.7908058  24.4970741  21.5924301  46.1976242  25.2159615  21.1087646
  46.0100479  24.6700783  22.5079823  30.5083847  67.8491974  46.7122803
  30.5737915  67.2729034  47.4737511  29.8837471  67.4117203  46.1337700
  18.9907722  11.1079397  64.7942047  19.4852009  11.4598103  65.5344467
  18.9033775  10.1743641  64.9866409  23.5605869  22.8567791  68.7095642
  22.6055279  22.8972931  68.6600494  23.7382183  22.3660164  69.5119553
  15.5064297  43.1814423  12.6457062  15.7890606  43.6195755  13.4484453
  16.2570229  43.2541275  12.0561647  16.6735954   1.6216475  58.8271523
  17.4022770   1.5148444  59.4385834  15.8903217   1.5297775  59.3696251
  60.9726067  64.5044098  35.1140480  61.8257027  64.8940201  35.3055229
  61.1750679  63.6144867  34.8254547  50.4991760  40.4098091  21.5160580
  50.9561119  39.9374390  22.2119827  50.7236671  39.9341125  20.7163410
  54.7144585   2.9711213  25.0573654  54.5749588   2.0434918  25.2478237
  54.5348663   3.0529699  24.1207333  74.3034515  22.3227043  79.6260605
  74.5619354  21.6285744  79.0197525  74.0810471  23.0631390  79.0616760
   1.4479029  62.0162544  22.0585461   0.6723542  62.2644577  21.5554047
   2.1390448  61.9230728  21.4028988  60.1460876  64.4347916  62.0797348
  61.0334282  64.3908844  62.4360085  60.1208992  65.2633362  61.6010857
  82.9079590  53.8134308  70.1025696  83.3732147  54.3040237  69.4250107
  83.0101089  54.3421783  70.8939133  28.2533302  52.9053955  26.5552540
  28.4583054  52.3260803  27.2891560  28.1164913  53.7629051  26.9579754
  47.4234047  65.2497482  46.9611397  48.1391983  65.2122040  47.5955353
  46.9609032  64.4191208  47.0724373  25.8785801  10.6169806  85.6874619
  25.1682873  10.0090303  85.8926697  26.5081196  10.0917988  85.1933975
  55.9220276  43.9808769  24.9640102  56.5938187  43.8234749  25.6274548
  55.5609894  44.8387299  25.1875515  15.9542322  13.9544678  81.2076340
  15.4416227  13.1937895  80.9340744  15.4499426  14.3375759  81.9253693
  72.1985321  44.2487373  13.9226046  72.0078888  43.7514801  13.1272297
  71.8130264  43.7291870  14.6280680  85.6355896   2.3548987  69.2898407
  85.3125763   2.9458930  69.9699936  85.1634903   2.6181066  68.4998550
  61.4129066  66.5810318  19.6896038  61.8235054  66.1034164  20.4103813
  60.9726486  65.9050446  19.1743889  66.1698914  55.0730057  29.7566948
  66.2675171  54.5293922  28.9749107  65.2413712  55.0072136  29.9797497
  35.2437439  39.2533112  82.2752075  36.1344910  38.9142265  82.3636627
  35.3285484  39.9963455  81.6777573  57.5162506  23.2345715  52.8278236
  56.7608566  22.7216511  53.1150856  57.3234749  23.4550800  51.9165344
  22.1577568  63.3426361  16.0230770  23.0735931  63.5223198  15.8104982
  21.8008728  64.1922073  16.2821159  32.1347809  47.6547813  23.3827858
  32.0426178  48.2514114  24.1255951  31.6130505  48.0555534  22.6875076
  84.3469696  54.5623741  13.6528664  85.1929321  54.9003334  13.3590097
  84.5220108  53.6515312  13.8894262  10.0854883  34.9436035  18.3305016
  11.0394640  34.9598885  18.2537174   9.7734947  34.8845139  17.4275055
  57.5231705  60.8400536  23.8830738  57.8644066  60.0537186  23.4570904
  58.0188713  60.9045029  24.6993828  63.0136566  34.9181404  48.2391815
  62.3109856  34.2835007  48.3796082  63.1451683  35.3234406  49.0963097
  61.1669617  33.6321526  38.4801331  61.5653839  32.7833824  38.2875557
  60.3715820  33.4182472  38.9678268   2.0338185  64.1769638  84.3735733
   2.9033751  64.3075180  83.9953461   2.0931838  64.5604782  85.2485733
  69.3206253  47.2615662  81.1666260  70.2004471  47.2249107  80.7913818
  69.2746811  46.4997139  81.7442932  58.3617706  54.6055946  37.9187088
  57.6082115  54.9235611  38.4159775  58.9923973  54.3352966  38.5861511
  84.6541595  68.7826004  67.1619644  85.3991013  69.3833771  67.1807175
  84.1104507  69.0977020  66.4399414  86.3879929  38.8956909  87.9180984
  86.6150742  37.9714699  88.0204849  85.6425095  39.0255280  88.5042953
  84.0292969  68.7896652  37.5644455  84.5397415  69.5905151  37.4448128
  83.1182938  69.0834198  37.5602646  80.1823807  31.2144241  60.9833107
  79.3757858  31.1859226  61.4979286  80.8832169  31.1762657  61.6341591
  19.4342651  21.5204105  17.4831009  20.2061157  21.5699806  18.0470352
  18.7628536  22.0160046  17.9519558  81.5886230  46.2416458  73.4180832
  81.8545380  45.8634033  72.5799561  80.8726044  45.6812897  73.7173309
  47.2670288  70.6025467  23.7109222  46.7833443  71.4226761  23.8092594
  46.6058617  69.9655380  23.4401588   9.5727549   6.1268711  69.5747528
   9.8413725   5.5556836  70.2943497   9.0451040   6.8071609  69.9931107
  68.7518921  20.0738964  46.6200180  69.5412369  20.2165718  47.1423302
  68.2019272  19.5118237  47.1657639   4.7093492  25.1090240   9.1396065
   4.2423110  24.2736073   9.1532907   4.5714736  25.4460297   8.2543669
  85.9692230  69.3668900  73.1007462  85.3894806  69.4138947  72.3405380
  85.3821793  69.4315720  73.8540192   2.1636844  51.8174362  19.1269608
   2.3063200  51.7534142  20.0713062   2.3792963  52.7252007  18.9131641
  83.3602829   9.4013767  76.8910522  83.7948990   8.7601871  76.3287277
  82.6192169   9.7125235  76.3712082  12.0471087  26.0673332  84.9773254
  12.8662739  26.0509796  84.4824219  11.7292223  26.9654465  84.8847275
  57.1501923  69.6003113  40.4490356  56.6634941  68.7939224  40.6196289
  56.6357079  70.2854233  40.8758354  86.2970505   8.8074923  37.0427589
  85.5663376   8.2384930  36.8008385  86.8955231   8.7587900  36.2973137
  80.6133957   4.5508304  53.2817726  79.9010391   4.3567038  52.6725960
  80.2273254   5.1532354  53.9176102  71.8802948  58.1237221   2.8328471
  72.1689453  57.3064117   2.4267495  72.6902695  58.6013603   3.0118196
  20.3868828  69.3662338  84.4566727  20.3748741  70.0539169  85.1223984
  19.5895576  68.8620148  84.6187592  18.6316452  47.1790581  70.5824966
  18.0759201  47.3381691  69.8195496  18.0179825  47.0931358  71.3120575
  60.1813202  44.8726273  41.1627693  60.7524261  45.6404419  41.1398010
  60.5880699  44.2533646  40.5567169  55.8842773   5.3466287  86.2491684
  56.5479126   6.0087419  86.4426270  55.1220169   5.6144071  86.7624741
  73.9152908   3.8121717  46.6722832  73.9881363   3.0598619  46.0849533
  74.5076218   4.4652271  46.2995911  29.7864265  60.9570885  28.9455471
  29.9411201  61.4555130  29.7479649  28.8647060  61.1136818  28.7402611
  55.3493881  29.6396255  80.3193970  55.4731178  29.0003948  79.6177521
  54.7118759  30.2609787  79.9676437  50.4385185  61.5605087  55.2633400
  50.8523483  61.9031181  56.0555496  49.9880905  60.7669296  55.5524445
  78.8536911  53.9222450  36.4989471  79.1541061  53.0260773  36.6501541
  78.8981247  54.0327110  35.5491791  27.2896366  48.5282021  55.9355125
  27.0783920  48.1996880  56.8094025  26.4386673  48.6933365  55.5295410
  83.8789978  16.5829678   8.8273020  84.7733994  16.7032528   9.1463852
  83.3476486  16.5220737   9.6211472  78.7037659  30.2969208  68.7241364
  79.4968414  30.7939129  68.5234756  78.0243378  30.7022953  68.1853561
  53.2603340  16.0184937  59.8635330  52.3473206  16.2035007  60.0835495
  53.3820305  15.0989218  60.0997696  55.8966255  69.6709137  78.9609299
  55.6523666  69.8321075  78.0495605  55.1103935  69.2948303  79.3566895
  78.5167618  19.1712017  59.0136604  79.0534592  18.9092216  58.2656212
  78.0256577  19.9312477  58.7016029  56.2871361  15.2312756  42.9266815
  57.1972656  14.9413452  42.8647461  55.8716812  14.8867264  42.1361656
  44.0184402  33.3811760  87.1077728  43.5670738  32.7202644  86.5827026
  44.8616638  32.9820175  87.3219604  62.7201614  28.4173374  29.3567123
  63.6164246  28.6130123  29.0834694  62.6446342  28.8075943  30.2274761
  73.6282349   8.7942171  59.5040779  73.6962967   9.1647501  60.3840256
  73.8588867   9.5175352  58.9211197  22.0842152  56.4132690  15.0147429
  21.5576992  55.6710587  14.7178669  21.4897308  57.1620979  14.9691925
  49.9850578   3.1034982  10.7328672  49.1318283   2.7124197  10.5450087
  50.5353432   2.3645139  10.9923248   8.0847979  65.0727692  59.0674133
   8.6783695  65.8227997  59.0306282   7.4846110  65.2061005  58.3337746
   9.6322870  31.3890076  82.2345123   9.0321941  31.7865486  82.8654556
   9.5913563  31.9636917  81.4701233   2.0522289   4.4425616  60.4353142
   1.2028754   4.8642316  60.5657959   2.2125888   3.9692523  61.2517052
  54.6900177  50.7889977   2.5221941  53.8390388  51.0314903   2.1571422
  55.0709419  51.6176872   2.8127158  60.9718895  49.0700836  51.9106216
  61.8651886  48.7431145  51.8041344  60.9511566  49.8804054  51.4015274
  68.4195251  19.2639999  25.7060204  68.6280518  18.5327854  25.1245823
  69.1298218  19.8904552  25.5672417  67.4145813   8.3559380  17.7416115
  67.5882339   9.2568092  18.0145721  67.0853729   7.9257865  18.5308018
  13.8733416  42.5108185  68.3629532  14.1648836  41.9421806  69.0756149
  12.9471292  42.6685028  68.5459747   4.7433410  31.9303379  71.3013535
   4.0048933  31.3725414  71.5458679   5.5070376  31.4977322  71.6832581
  34.9562416  42.6145821  27.0863571  34.7928467  43.5183105  26.8165226
  35.7473869  42.6641312  27.6228828  74.2347641  63.9166336  56.2650414
  73.8786697  64.5472565  56.8909378  73.5781326  63.8721390  55.5699959
  53.0433426   9.5221539  33.8930397  52.2153969   9.3997517  34.3575401
  52.8247871   9.3789921  32.9721870  24.9117775  38.3709259  70.1878738
  25.6572037  37.8598976  70.5031815  25.2393742  38.8147469  69.4056091
  75.4805527  36.9988098  24.1043434  74.6639862  37.4761009  23.9572487
  75.9457092  37.0570869  23.2697983  78.2415009  63.9008636  88.4227371
  78.6207504  64.1348648  87.5755997  78.9887848  63.8730927  89.0202484
  74.5832672  66.4203339  75.7561646  73.7343445  66.8394394  75.6150208
  74.3681564  65.5216293  76.0057144  55.6609612  47.7237167  75.0748901
  55.2378922  48.3338280  75.6790543  55.2112617  46.8914528  75.2209778
  67.0369873   2.6590919  78.3087387  66.9405518   1.7587298  77.9984512
  66.9514236   3.1946943  77.5200424  31.7099075  33.2797050  87.5579605
  31.2796917  33.3166351  88.4122314  32.0668602  34.1587868  87.4313507
  37.2190552  69.0679169  75.3012619  37.8288612  69.4132385  75.9532776
  36.7988167  69.8443680  74.9314575  56.2859268  15.7906570  82.7458572
  56.6988220  15.6331596  83.5949402  55.3471298  15.7222261  82.9196777
  31.8932323   6.2717357  16.6581306  32.8247604   6.0763335  16.7596626
  31.5703907   5.5961208  16.0618515  24.6002369  32.6146393  62.1648407
  24.5216045  32.4034081  61.2345543  25.4617519  32.2803345  62.4143677
  42.2921600  49.5258369  34.3301697  41.9315758  49.4526024  35.2138252
  42.7025070  48.6764374  34.1677742   1.1493554  54.1099892  24.5312366
   0.6974234  53.9353180  25.3567543   0.5692497  54.7103500  24.0629692
  24.5836277  49.6177101  73.9677353  25.4476871  49.2087021  73.9193115
  24.7633724  50.5578804  73.9684830  77.7039566  56.5184669  56.8339691
  77.9590378  57.3986855  56.5575943  78.5090714  56.0046959  56.7702980
  77.1215439  20.1217384  77.7982712  77.0693817  19.1941242  77.5679550
  76.2294388  20.4482174  77.6808014  81.1453171  -0.1668448  37.2289543
  80.9548111   0.6973992  36.8642311  80.5442810  -0.2522956  37.9690094
   2.4616895  50.5933418  24.7472496   2.4855893  51.2107773  25.4783020
   2.4203317  51.1469154  23.9674587  14.7951021  35.9363365  14.0744743
  15.5102568  35.9964523  13.4410934  14.4294424  35.0619240  13.9405766
   5.2829027  55.8412209  15.0050011   5.6613102  56.0340729  15.8628168
   5.3190103  56.6740646  14.5345736  84.0163193  21.6350746  85.3304672
  84.7894974  21.1289864  85.0808640  84.3528748  22.5124760  85.5124817
  49.6322441  69.9952393  50.9382973  48.7715454  69.7279663  50.6158142
  49.7656631  70.8683929  50.5694771  59.8355560  65.5866776   8.1483946
  59.8648376  66.2876740   8.7995300  60.6372070  65.7003784   7.6378427
  60.6310539  60.2216301  13.3969965  61.4768753  60.0283508  12.9926949
  60.4660110  59.4766426  13.9749107  71.9056702  10.8970041  21.6909389
  71.2394180  11.5667896  21.5368996  72.7368927  11.3679571  21.6317997
   1.5079823  39.4360237  78.0428696   2.1248517  40.0275764  78.4738770
   1.9312301  38.5783882  78.0822906  17.4064674  31.5502453  80.6646652
  16.7052479  31.7308044  80.0386276  17.8142204  30.7464619  80.3423309
   0.6944078  12.2207355  49.1707306  -0.0990202  12.6933031  49.4224892
   0.9642363  11.7641230  49.9675560  60.1835175  34.1330299  28.0494919
  59.4514656  33.5778465  28.3180046  60.4291420  34.6065063  28.8442993
  60.7925072  60.0911407  20.4123402  60.9450493  59.3060989  20.9383354
  59.8990440  60.3560333  20.6309357   6.0204835   2.0746970  32.9378738
   6.6512737   1.3611293  33.0335655   5.2041559   1.7218304  33.2918892
  36.9933777  65.5027008   7.3771362  36.3839111  66.1640015   7.0493250
  37.8581619  65.8309860   7.1309481  71.2670059  25.9607182  67.3584137
  70.7980957  25.4917507  66.6681747  71.8694153  26.5378990  66.8891602
  24.9600468  55.7981377  37.4944115  25.6591778  55.1585541  37.3588371
  24.3159389  55.5963860  36.8156967  31.3849182  36.6291122  72.5208130
  32.0179176  35.9122162  72.5608749  31.6530991  37.2248039  73.2204285
  12.4780483  65.9254913  76.2975082  12.9313860  66.5779648  76.8313599
  12.4073057  66.3305054  75.4331131  28.4200649  54.8055573   3.6088662
  27.7736149  54.4683838   2.9886661  28.2098236  55.7356758   3.6920018
  82.3455811  16.1690292  60.4240456  81.5730896  16.2764893  59.8691177
  82.7652359  17.0293198  60.4195900  12.2941513  36.1536598  67.1389236
  11.6598520  35.4746704  67.3688583  13.1316385  35.8167458  67.4572601
   3.7622318  39.0360107   5.0677757   3.1494906  39.3149796   4.3873663
   3.9486136  39.8332100   5.5637259  63.8873978  25.2427883  28.1178951
  63.9766006  25.2469273  27.1648712  64.5431290  24.6129208  28.4170971
  47.4034767  25.3796711  25.7634182  47.0261116  26.2374878  25.9582939
  48.2301369  25.3664818  26.2458019  31.8833885  52.3244629  34.0716972
  31.6717663  53.0275726  34.6857681  31.3071480  51.6034546  34.3253174
  15.2036839  26.5118999   5.3971295  15.3336515  25.5642300   5.4326077
  15.8568153  26.8198700   4.7687931  39.2166557  51.8402328  74.6709442
  39.0705147  52.5126877  75.3362808  40.0874748  52.0325890  74.3232269
  34.5167236  54.4845695  34.0359650  35.4541855  54.5674248  34.2106857
  34.1853523  53.9481506  34.7561607  62.4578552  29.5021515  14.6596851
  62.8976669  30.0229282  15.3316898  62.2682915  28.6679344  15.0890770
   0.5668994   3.3296659  45.5954323  -0.0600506   3.6070063  46.2634468
   1.0773566   4.1165905  45.4046059  68.4768448  68.6161194  70.3680191
  68.9501114  69.1836395  70.9764404  68.9753876  67.7989960  70.3656158
  13.7507191  61.0490723  52.6919861  12.9228382  60.5778465  52.5982246
  13.9371376  61.0213509  53.6304512  28.6648808  40.9357414   2.3092422
  28.0736637  40.8637314   1.5599037  28.1764603  40.5518150   3.0374446
  76.6989059   2.2368939   1.9810897  76.7232361   2.9941840   1.3961530
  77.1987839   1.5626570   1.5209252  67.4304581   8.7269106  24.5677872
  67.7772446   9.5554781  24.8986130  66.5009155   8.7484522  24.7952271
  74.3720169  51.7993431  19.7919712  73.8628845  51.9767990  20.5828724
  74.6949463  52.6575813  19.5174160  27.8261719  57.4222527   4.1190591
  28.5436268  57.9830437   4.4140215  27.1568928  58.0325317   3.8094492
  40.0637627  62.6689644  73.2189178  40.2698364  61.9913139  72.5750580
  39.7291374  63.3996086  72.6989059  53.1616249   5.4039664  53.3655891
  52.2959976   5.6941299  53.0779648  53.4828262   4.8595634  52.6467781
  50.8809814  10.4008245  17.2991257  51.3125000  10.1698761  18.1217346
  51.4609489  11.0480433  16.8978996  57.6062164  66.7309265  58.2849312
  56.7636986  66.7035904  57.8314438  57.8391953  67.6591873  58.3016853
  81.7606735  10.9339581  35.6230164  82.6317673  11.3260069  35.5619698
  81.1626511  11.6395836  35.3766670  13.5157099  23.6000290  77.3676758
  12.9889116  22.9899845  77.8839722  13.9787874  23.0449409  76.7402496
   9.7042589  39.6319771  72.8752518   8.8599930  40.0657234  72.9989853
   9.4900942  38.7002831  72.8271484   3.5110753  29.0813675  27.6556606
   4.0895534  29.5156136  28.2825775   3.6018081  29.5930595  26.8518124
  25.7478085  42.4872055  64.7649460  25.6084156  41.8385124  64.0750198
  25.0234680  42.3475380  65.3749084  74.2496338  31.1034260  51.5200882
  73.6361923  31.8265171  51.3894768  74.8184509  31.1299496  50.7506866
   0.0438225  17.9666348  33.5750008   0.1331942  17.5831108  34.4474411
   0.1027798  17.2205772  32.9782143  35.1076660   1.3013345  12.9111891
  35.7871475   0.8628848  12.3990402  34.2889061   1.0637293  12.4759769
  49.1981850  42.0467110  11.8190756  48.8895988  41.4466248  11.1401787
  50.0762672  41.7328148  12.0351105  14.2162666  63.9458427  16.4212437
  13.6708870  64.7109528  16.6039906  14.0972309  63.3792801  17.1835213
  38.1055107  68.4854279   9.9815750  38.5257797  68.1203995   9.2028818
  37.7375870  69.3185120   9.6868954  40.6027107  23.5052681  45.2195969
  41.4345474  23.4053669  45.6825142  40.6697578  22.9076481  44.4748917
  82.8419189  70.8716965  72.8177338  81.9615860  71.2111282  72.6563797
  83.4126205  71.4209671  72.2802963  75.3226318  43.8591957  74.8087692
  76.2022400  43.9310646  75.1793671  74.9212570  44.7116432  74.9774780
   4.4769731  38.2492065  27.8737869   3.5773180  38.5751038  27.8484211
   4.5006189  37.5593872  27.2105961  64.5438385  49.8315544   3.8069613
  64.9061813  49.0770607   4.2713752  64.4561234  50.5071602   4.4793429
  59.8062210  58.9842796  17.9082489  59.7240028  59.8128319  18.3804493
  59.0069351  58.9266090  17.3847561  72.9732513   6.8150387  87.9007416
  73.4389191   6.1998501  88.4672470  72.1119690   6.9102368  88.3073959
  62.4202194  56.2999725  42.0606766  62.9882698  56.1294899  42.8120003
  61.7784958  56.9322395  42.3841896  17.7975731  25.1814785  34.1303444
  16.9240665  25.4168148  34.4431305  18.3418217  25.1808453  34.9177628
  76.8500290  33.2798042  14.0782280  76.2311478  33.9342308  13.7542772
  76.5287247  32.4504700  13.7243938  62.9858055  50.0474167  76.6612320
  62.1918755  50.4431381  77.0208282  63.2342186  50.6234474  75.9382401
  73.5665359  43.7884445  33.6774521  73.5653000  43.2333908  32.8976135
  73.1123352  43.2696762  34.3413887   5.0446444  65.8236771  54.5992508
   5.8765149  65.7927170  54.1267395   4.5588479  65.0636368  54.2789803
  -0.0178292  41.0120888  49.2096405   0.0787261  41.9329262  48.9667969
   0.8571431  40.7458611  49.4920883  81.6541138  57.7206421  25.5069447
  80.8208466  58.0804329  25.2028942  81.4237289  56.8749504  25.8916035
  63.9316254  53.9432983  63.5741730  63.9332047  54.8781281  63.7798843
  63.5923653  53.8953056  62.6803970   7.7910576  13.2868013  82.7292862
   8.0868902  14.0950136  82.3103485   8.5648069  12.9566231  83.1859360
  82.1650543  20.3178749  73.3198547  81.3443375  20.8103371  73.3315201
  82.1093521  19.7414436  74.0819931  64.5299225   8.3640289   2.3660972
  64.1068344   9.2117004   2.2294326  64.1048737   8.0071497   3.1459682
  16.5224266  59.8535728  22.5431271  17.2386360  60.4326859  22.2825470
  16.1667290  60.2544594  23.3362236  36.8780632  31.4487877  88.6676407
  36.6481819  31.4127388  89.5961227  36.0600014  31.6788712  88.2271118
  23.4113178  15.4843731  10.6707211  22.7299232  15.4041834  10.0032616
  23.0050373  15.1478100  11.4694023  54.2327042  62.2102127  83.0849075
  53.9601974  62.2003670  84.0024490  54.4460945  63.1264458  82.9082489
  47.5099983  16.8900967  18.3634911  48.0139008  17.6581612  18.6325474
  47.9319801  16.1575146  18.8123627  18.0504608  49.8684273  46.7554970
  18.6233368  50.3911781  46.1944504  18.4496536  48.9984589  46.7611427
   9.5500679  33.7668266  37.8019600   9.4566879  34.5785599  38.3005562
   9.5978317  34.0506287  36.8890495  65.8915405  49.2874146  54.0365181
  66.2746429  49.1316643  53.1732635  66.2212448  50.1486511  54.2930298
  63.7259560  23.8465748  21.8095188  64.4114532  24.3725719  22.2214108
  63.8527908  23.9808865  20.8703136   6.5123754  36.5300331  16.3598270
   6.1248798  36.4308167  17.2294445   5.8401575  36.2070351  15.7598047
  15.3771172  34.7542038  59.6099854  14.4869566  34.9608574  59.8948364
  15.7013960  35.5693703  59.2271309  35.0970383  67.2450485   0.6841255
  34.3114243  66.7692413   0.4145802  35.6846809  66.5673370   1.0182236
  67.5515823   2.9282880  75.0027847  67.2954178   3.8098161  75.2739258
  68.1529083   3.0679626  74.2712555  65.9149933   6.6026816  78.5683060
  65.2250137   7.2623525  78.4976120  65.7065353   6.1230240  79.3699951
  48.6035156  45.4253273  70.8548508  49.3772278  45.0962181  71.3123322
  48.0483780  44.6543579  70.7379608  42.4026756  57.7982445  30.7042637
  41.7325401  57.2432480  31.1031685  43.1994972  57.6039009  31.1977577
  50.4056778  65.4575348  40.9600067  50.8759499  65.9467392  40.2849083
  49.4826050  65.6516647  40.7972641   8.3403311  67.6547852   3.5455413
   7.9858265  68.1059418   2.7793732   7.7913084  67.9492950   4.2722254
  20.2635040  34.0767136  16.6393986  20.9892197  34.4307175  17.1534519
  19.4814968  34.4704590  17.0262566  22.9218140  43.2541008  24.7630367
  23.4384594  43.5342979  24.0075245  22.7021027  42.3410950  24.5776310
  53.4633865  23.4425945  33.3527069  52.5491676  23.2272854  33.5373077
  53.5111542  23.4857426  32.3976746  82.4106369  15.8591166  29.4035244
  83.3324203  15.7235889  29.6230278  82.3110962  16.8103218  29.3643951
  75.9335556  44.5946541  55.0137939  75.8217545  43.6631660  54.8238831
  75.1073608  44.8572044  55.4196205  52.6628685  30.1257286  72.4855804
  52.4831886  29.1855946  72.4952240  53.3302803  30.2489567  73.1605682
  11.4736309  69.0958099  12.5950947  10.6077862  68.6877365  12.5907240
  12.0664244  68.3968887  12.8713741  41.1476974  65.2882385  37.4478645
  41.0876274  64.3712387  37.1800232  40.8473434  65.2924652  38.3567123
  14.3004217  37.5763931  40.6400795  13.9524069  36.9976921  39.9616814
  14.2280235  37.0686569  41.4482841   5.1893787  32.2246361  21.2735519
   5.7975140  31.9191456  20.6004410   4.3766203  31.7517967  21.0944462
  79.1925659  64.8213654  32.7996140  80.1273346  64.8494568  32.5955086
  79.1482849  64.9821320  33.7421761  45.8230057  45.3477249  82.1773453
  45.3218346  44.5752678  81.9158630  45.6120262  45.4679909  83.1032257
  57.9909248  58.8433685  36.3388748  58.3377342  58.7431984  37.2253952
  58.3563690  59.6727715  36.0310211  81.3991852  70.7788010  29.8388882
  81.6287308  69.8533707  29.9232693  80.6571274  70.7873459  29.2343235
   2.0212836  49.5663757  46.1838112   2.4625084  48.9718246  46.7904892
   1.8815995  49.0430298  45.3946152  67.4075317  55.7137070  64.9618149
  67.7673798  56.0337105  65.7890625  67.0805130  56.4990997  64.5231171
  57.6677322  30.5526772   2.7789226  58.2195930  29.7776432   2.8838282
  56.9929886  30.2836609   2.1555588  79.5582199  52.9264107  43.3457832
  79.5745544  53.8660736  43.5274353  79.8286133  52.8546906  42.4303741
  81.0520935  49.2576447  15.3886566  81.2218933  48.8351479  14.5466967
  81.1430511  50.1935501  15.2096539  78.3997269  34.4404716  64.6593552
  79.1765976  34.5366364  64.1084824  77.6639938  34.5307045  64.0537262
  62.6139870  28.8565807  34.1238861  61.8975258  29.4808044  34.2390213
  62.3269768  28.0733089  34.5932922  39.4305115  15.8492098  82.8069534
  38.5952568  15.7523479  83.2643356  39.5410309  16.7948227  82.7077866
  40.0159645   5.9131465   2.2852802  39.6602325   5.4488888   3.0430081
  39.7669106   5.3733530   1.5350627  56.5838814  52.6170044  13.4741335
  56.6517410  53.5583801  13.6336288  56.9580460  52.4943123  12.6016769
  30.9632702  15.5173130  70.1652145  30.1441898  15.2870617  69.7266693
  30.7213306  15.6208057  71.0855331  25.1460266   0.6299589  52.2400856
  25.4606457   1.2729095  52.8755836  25.7006836   0.7619366  51.4712067
  49.9710960  12.0047922  79.2409286  50.3874779  11.4758234  78.5604553
  49.0524063  12.0547781  78.9768372   7.9873290  39.0444908  67.0194702
   8.6088953  39.6221962  66.5765839   8.2641354  39.0522614  67.9357452
  68.4585953  40.2427254  34.5437317  69.1402740  39.5819092  34.6656799
  67.8571930  39.8522568  33.9096375  68.2925110  17.3843575  48.1429558
  69.0183487  16.8341122  48.4372749  67.8091278  16.8338566  47.5269051
  64.8914261  61.6857376  18.5755234  65.4918518  62.2866859  18.1344032
  64.0230560  62.0565109  18.4183903   0.7720915  42.8428497  70.4949722
   1.5588590  42.3081055  70.6011658   0.5257383  43.0863266  71.3873062
   0.7457781  29.0461197  33.8757553   1.3892200  28.6342926  34.4524803
   0.0649435  29.3671398  34.4670601  30.6326485  31.1017494  65.7288513
  30.9571247  31.1597977  66.6275101  30.6324062  32.0061722  65.4154053
  60.0748940  29.1788082  65.0637817  60.7311897  28.8362160  65.6705322
  60.5812035  29.6637859  64.4121094  56.3274765  33.6347733  66.2182465
  56.4685822  32.7152138  65.9930115  55.3756981  33.7281380  66.2586746
  58.6296844  34.9894066  49.5622902  58.1457100  35.4523392  48.8784103
  59.0370636  34.2510452  49.1094131  70.6681137  36.1004562  29.2006149
  71.3059692  36.8122749  29.2524853  70.5439301  35.8235054  30.1084194
  23.9643192  62.6749802  44.3193855  24.1217957  63.3631783  43.6729965
  23.8986473  61.8717651  43.8028984  20.3842773  38.1644630  58.1888618
  20.8846951  38.3681450  58.9790039  19.5134354  38.5242233  58.3574982
  35.2079926  58.1454086  48.6825066  34.8387070  57.3418083  49.0486908
  34.9348984  58.1381607  47.7651215  74.4751129  61.2473640  66.5272217
  74.0701828  61.4573097  67.3687592  74.9192734  60.4127426  66.6767349
  64.4726639  51.0045929  37.0049706  65.1232758  50.3065796  36.9293404
  63.6739082  50.5581055  37.2857971  84.9486160  30.6536484  18.6475601
  85.1201477  29.7552872  18.3651485  85.0518417  31.1781635  17.8535423
  66.5934677  70.0265579  29.3431435  66.0007248  70.4732971  28.7387314
  66.0164566  69.6346283  29.9986401  11.3013039  64.1640091  34.3535767
  11.3862343  64.7545166  33.6050339  12.0109997  63.5315628  34.2414513
  76.9848022  47.9902954  60.0437012  76.8485260  47.1644287  59.5793724
  77.4780731  47.7461891  60.8268509  15.5011158  38.7237282  64.8204269
  15.6581717  39.1761131  65.6492310  14.5719233  38.4951515  64.8446579
  63.5429993  57.5437202  72.6385803  63.6711578  56.6803856  73.0315933
  64.3562851  58.0137596  72.8225784  16.3222656  58.4373970  77.8568039
  16.9672718  58.1818542  78.5162735  15.6572361  58.9208527  78.3469467
  16.6896973  15.7819080  10.0341167  16.5175285  16.6613026  10.3706484
  15.8788900  15.3000298  10.1972618  57.4677010  64.9444656   9.5266647
  58.1299896  65.2075195   8.8875952  56.9414368  64.2882309   9.0699043
   9.0490093  51.9446335  46.6556702   9.3406019  51.9407692  47.5673676
   8.3084145  52.5509377  46.6436424  49.4406204  65.6096039  52.0908546
  50.0621109  66.3374176  52.0744629  48.8254128  65.8356552  52.7884598
  85.9713364  57.7126045  45.7030258  85.3519974  57.0246162  45.9465790
  85.5067215  58.5290947  45.8866425  64.9551849  10.6599197  60.3600769
  64.6160965  11.4512329  60.7784958  64.1742706  10.1523323  60.1392517
  50.4400864  50.9043961  67.8020859  49.8073997  50.2915840  67.4273758
  50.1532860  51.0207634  68.7078629  52.5289383  18.0003948  84.1411667
  52.0644341  18.0285511  84.9776306  52.6903992  17.0694122  83.9880829
  76.1594925   1.7024902  84.2988205  75.2968445   1.3761036  84.0428009
  76.3093185   2.4563851  83.7283630  55.1687508  35.3459435  88.4791565
  54.3521347  34.9970665  88.8364410  55.8013458  35.2517052  89.1913147
  72.7666779  34.1558304  78.8430099  72.6382446  34.6631317  78.0415268
  73.6525421  34.3793221  79.1285553  19.8460960  21.6336403  80.2768707
  18.9301434  21.8896523  80.1686172  19.9181461  21.3856525  81.1985779
  81.6296921  45.3570290  54.5976601  81.4299545  46.0925598  54.0185814
  82.2767410  44.8417702  54.1159172  18.5548744   4.0954804  13.1389704
  19.2925186   4.2063112  13.7388306  17.7797394   4.1861391  13.6932068
  39.8501854   2.3370495  72.9384232  39.8468819   1.8499068  73.7623825
  40.0739136   1.6842153  72.2751083  14.8960571  27.6239185  73.0121689
  14.2793055  28.0627556  72.4262772  15.7332106  28.0577030  72.8471298
  47.5715675   4.8487482  11.1443110  47.4154892   4.5680985  12.0460358
  47.9236412   5.7350121  11.2268419  73.8169250  37.2922020  58.8077621
  73.5307846  37.4054947  59.7141418  73.0133896  37.3624573  58.2923698
  56.3584900  67.0628738  30.8114491  56.9683723  66.9522629  30.0820389
  56.9033813  66.9795609  31.5939980  58.9084167  37.9229279  46.5819893
  59.2215729  37.0303955  46.7288017  59.3033371  38.4344978  47.2880821
   4.8742948  52.1890450  81.7173080   5.3038650  51.6424294  82.3752670
   5.4079075  52.9828300  81.6799393  69.1245117  24.0918140  28.2000980
  69.6819458  24.2444248  27.4370689  68.5838547  23.3407936  27.9553719
  33.6950607  70.2622681  61.3180237  34.1363907  69.5680313  60.8286438
  33.1638145  70.7160263  60.6637154   4.2800379   4.8295522  44.2985954
   4.1232047   3.8880348  44.3705711   4.0927820   5.0342140  43.3824730
  67.1116638  35.0655327  54.2091789  67.5250549  35.1590958  55.0674248
  66.2480316  34.6985130  54.3980484  64.5891647  43.7323647  38.2233200
  64.5558319  44.0676651  39.1192513  65.5146942  43.7803879  37.9838905
  77.8167038  53.9045372  66.1436691  77.3627548  54.4221573  66.8086700
  77.5458298  53.0027695  66.3159256  16.6540260  63.1203461  79.8967896
  16.9782734  64.0167923  79.8103409  15.7628717  63.1533928  79.5489655
  75.0057983  41.9738770  53.1904373  74.4983139  41.9093323  53.9994583
  74.6460342  42.7394638  52.7424622  37.8572159  50.1279144  88.5019150
  37.6366272  50.5852394  87.6904755  38.7836533  49.9063721  88.4077377
  23.6782417  33.0989761  83.0322495  23.9832649  33.8889618  82.5860214
  23.8450928  32.3921471  82.4087219  69.9144821  16.0055580   9.2875757
  70.0977478  15.3035326   8.6632299  70.2390289  16.7977104   8.8593302
  44.7120590  32.9415092  59.4108162  44.3159103  32.6675148  60.2379951
  45.1968613  33.7373695  59.6294556  23.1069183  42.4048615  16.4449463
  22.2810001  42.4305954  16.9280891  23.2226238  41.4823380  16.2173595
   1.1856149  41.4353638  74.6196213   1.4416958  42.0704842  75.2884140
   2.0144720  41.1117096  74.2668076  26.3461704  71.0710907  82.6766739
  26.2404442  70.1508331  82.4354706  26.7860088  71.4668961  81.9242706
  51.9357414  28.9972248  27.3336582  52.1159592  28.2628136  26.7468071
  51.1234322  28.7548294  27.7782135  75.4492416  38.0563698  41.0814743
  74.6327057  38.5508766  41.1519356  75.1831589  37.1410103  41.1683502
  84.7591553  15.3046761  85.4566879  85.5914459  15.3155708  84.9840317
  84.4060211  14.4289513  85.2997208  36.2000961  30.4002285  12.8562412
  35.7048798  30.5129871  13.6675844  36.8947983  31.0568104  12.9064455
  77.3456421  13.8563232  79.8536072  77.9987411  14.4860735  80.1587372
  76.9006729  14.3027725  79.1332474  64.0601807  29.0050335  49.6323395
  64.2318649  28.2673931  50.2176971  64.4932022  29.7489243  50.0510864
  80.6321030  61.6289673  47.6386490  79.9734497  61.1192627  48.1104584
  81.3206177  61.7869530  48.2845802  53.1682205  67.0299683  86.7268829
  53.4916801  67.8955536  86.9766312  53.0610123  66.5656509  87.5570297
  31.1258888  34.2095718  69.1372528  30.4439087  34.6180649  69.6704254
  31.5015736  33.5358429  69.7039795   4.8723602  41.4764557  15.6285973
   4.6259718  40.8368988  14.9603958   4.0539808  41.9225655  15.8464756
  32.1801033  51.6812134  26.8252029  32.1534538  52.1106873  27.6802330
  31.9349232  52.3675613  26.2046833  18.9528503  70.8363037  61.3202095
  19.7759304  71.0037155  60.8611412  18.8709869  69.8826294  61.3250542
   3.7544005  56.1039391  30.2364407   3.0600650  56.0894241  30.8951664
   3.5591066  55.3603821  29.6661663  78.0968018  59.9522858   5.6406698
  78.8085480  60.5894775   5.7009740  77.3644485  60.3674126   6.0962548
  12.4094992  11.5800858  16.6278954  11.9915924  10.9579601  16.0324593
  11.7004910  11.8808451  17.1963005  60.8282204  19.1959934  45.9324951
  61.2260704  18.9960327  45.0851669  61.4166031  19.8394413  46.3274803
  30.3969078  32.4043541  45.5393715  31.3363209  32.2266464  45.5858231
  30.0234165  31.9109459  46.2696342  77.4401321  10.9534998  15.5283289
  78.3936844  10.9053621  15.5965567  77.1657257  11.4087162  16.3243885
  61.5019073  51.0267944  50.3405495  61.3998032  51.9777794  50.3784180
  62.4409599  50.8819237  50.4564323  85.7954941  62.5313644  45.6573677
  85.4420013  62.7882538  46.5090065  86.6475525  62.9650459  45.6110191
  44.7945213  17.2174339  18.5494766  44.4447937  17.7372169  17.8257713
  45.7367325  17.1809444  18.3847351  44.0774689  29.5479984  58.4958000
  44.2085457  30.4554996  58.7705536  44.1892014  29.0366020  59.2971878
  67.4867325  27.0366783   3.9329295  67.1505203  27.4642887   3.1453123
  67.1916428  26.1292439   3.8573165  24.3662891  69.7442932  63.7475281
  24.4487934  69.6315079  64.6944733  24.3613682  70.6927872  63.6188164
  47.6898003  23.7787628  60.5870323  47.9098549  23.2119675  59.8477402
  47.6060295  23.1813622  61.3302193  46.1867981  36.6585426  41.8235092
  45.3783913  36.1953812  42.0430374  46.1868973  36.7001038  40.8672142
  48.3049507  31.1915989  73.3821259  49.2544594  31.3073540  73.3465271
  47.9904556  31.5333576  72.5451508  73.3316193  68.4592438  47.9584427
  73.6325607  67.7493820  47.3911972  72.5084534  68.7480621  47.5644569
   2.4387770  60.9310265  72.7756271   2.7267952  60.8108635  71.8707275
   2.8216090  61.7676353  73.0397415  33.9962234  46.3405457   8.0159349
  33.8354721  46.2717819   7.0748386  34.4529037  45.5299149   8.2407684
  71.4926071  26.3774090  13.3557806  70.7215958  26.9357796  13.2558222
  71.1465836  25.4851971  13.3344345  40.6853218   6.7546434  17.2844734
  40.2209053   7.5490670  17.0209560  40.5289345   6.1375275  16.5696697
   0.8547659  62.0417786  60.2135773   1.0516996  62.4053917  61.0768433
   0.6426550  62.8042793  59.6752167  58.9678841  28.0040379  47.0245018
  58.7585373  27.1928215  47.4874649  58.6815529  27.8470383  46.1247253
  84.2909775  28.8228779  76.2656326  83.5198135  29.2507019  75.8934860
  84.6907730  28.3646450  75.5264282   6.7051468  53.5959358  34.4200478
   6.0930519  54.1167717  33.9001427   6.1536460  52.9539223  34.8671455
   2.1486263  48.5344048  71.9420319   1.2537827  48.7889595  71.7168884
   2.2995048  48.9253273  72.8026428  64.6641159  15.5284948  10.7595730
  64.3101654  15.6831560   9.8837681  65.2951965  14.8186398  10.6409445
  82.8512039  66.0275269  65.3521042  83.2466965  65.3729477  64.7764740
  83.1619186  66.8659515  65.0104446  44.1939430  29.5850105  71.7866516
  44.5837784  30.2787914  71.2547455  44.9335251  29.1984367  72.2554932
  21.4006577  26.5532112  85.7096863  22.0512562  27.1864510  86.0129318
  21.8128738  26.1276894  84.9578552   5.0008044  29.1518078  18.4448128
   4.0866156  29.1009293  18.7239208   5.0063763  29.8250160  17.7643757
  54.7201424  60.6068306  55.3157921  54.9779549  59.9274025  55.9388008
  53.8570976  60.8919868  55.6159210  15.5741739  68.3104630   8.2792406
  14.8781128  68.4528046   7.6377831  15.7474680  69.1793823   8.6414213
  23.3458023  66.4797058  37.0442848  22.8195286  65.8885651  36.5059395
  22.7044010  67.0358887  37.4864426   7.3139381  10.0098162  23.8508720
   7.2470770   9.0731201  24.0362415   6.9351616  10.1087484  22.9773903
  60.6635361  35.8924026  47.1085167  60.7064781  35.2934227  46.3631248
  61.3842545  35.6200104  47.6764946  74.7135086  39.7053185  30.0782585
  75.5616150  39.9257278  30.4634438  74.8234329  39.8767014  29.1429634
  40.2507362  69.5307541  35.2290154  39.9834671  68.6841049  34.8712616
  41.0306549  69.7674332  34.7270775  61.3997078  12.7744579  11.3807135
  61.6413536  12.0458765  10.8088684  60.9692001  12.3596201  12.1282454
  70.0921402  29.0608158   7.2589278  70.4147034  28.4208698   7.8934822
  70.5203705  29.8803253   7.5064292  24.4438648  65.8282547  48.6644859
  24.9519444  66.5046844  49.1122971  24.9671516  65.6060944  47.8943901
  76.2760620  69.8641357  35.3727837  76.9786224  69.2146378  35.4009590
  76.5735703  70.5111847  34.7332191  55.0880356  56.6246529  54.9809799
  55.2240410  55.7702522  54.5714264  54.1655159  56.8231277  54.8203545
  81.1294632  46.7313538  46.3624306  81.6193466  46.3641891  45.6266060
  80.9382935  47.6311493  46.0977440  31.9940834   2.8604579   8.8912859
  31.8932781   2.3281252   8.1021776  32.6169815   3.5430722   8.6417532
  19.4274139  64.5193329   8.6639891  18.7500572  65.1568604   8.8897705
  19.4295769  63.9027328   9.3961296  67.0948639  66.3531189  56.5085526
  67.8019257  65.9907837  55.9746933  67.4265289  67.2020187  56.8011169
  44.2312698  55.9807587  74.2064056  43.6014252  56.6996460  74.1541824
  44.3035583  55.7931709  75.1422577  30.4072285  70.8684464  69.5207291
  31.0277767  71.4009781  69.0231781  29.7928200  71.5012817  69.8925552
  59.0087929  30.4095001  70.6577377  58.2482338  30.2006168  71.2000885
  58.8507271  29.9464645  69.8350296  58.0938530   3.7413778  19.3514748
  58.3702049   2.8249691  19.3440075  57.1410866   3.7035503  19.4353714
  64.5136795  51.4742279  41.0494614  64.3699341  52.1637268  40.4012642
  64.1595917  51.8329201  41.8632164  58.0664902  58.9082298  39.3087654
  57.7034111  59.7920799  39.2521133  57.7271767  58.5623627  40.1342773
  47.3314247  70.1348038  72.1163559  46.4381638  70.0797043  71.7768173
  47.2350235  70.5359116  72.9800949  61.0746384  25.9760571  49.0764465
  60.1458130  25.9180775  48.8525009  61.1761475  25.3943119  49.8297768
  10.3142328   1.8454226  71.6863861  10.6052237   1.5727329  72.5565567
   9.9713678   1.0459270  71.2870331  33.3479919  33.6514015   2.9674947
  33.8031197  34.1726036   3.6288877  32.8089523  34.2843018   2.4930425
  33.3714180  41.4378815  41.1312981  33.0901375  40.5619278  41.3955307
  32.5834351  41.8435822  40.7697411  83.5181122  49.1677780  68.4192123
  83.0782394  49.7266045  69.0598907  83.4391251  48.2839203  68.7780838
  67.4607239  53.2375755   0.5832951  66.9612274  53.3071289  -0.2302760
  67.1833496  52.4043655   0.9641533  86.5947113  12.4268942  72.3477402
  86.5028305  13.3367777  72.6304169  85.7508469  12.0253668  72.5548706
  37.1677132   6.8930306   9.9261169  37.8565254   6.2537789   9.7441025
  36.7284470   6.5560198  10.7069492   3.0917726  29.2224388  70.8861618
   3.3068607  28.6916180  71.6530991   3.9388604  29.4210320  70.4871216
  64.7072067  15.7174683  44.3013000  65.0881424  14.9497547  43.8749962
  64.0909500  15.3564405  44.9385757  51.7257042  66.2770081  15.8627625
  51.3001289  65.4595490  15.6041565  51.7301865  66.2524185  16.8196354
   2.0549459   7.8034868  47.1054115   2.1487417   7.2818065  46.3083649
   2.3757582   7.2332153  47.8040543   6.0692043  17.2285118  10.4078388
   6.3356714  18.1475048  10.4339104   5.1593995  17.2512608  10.1112413
  38.8769493  42.3841591  37.9431381  39.2661209  41.5253716  38.1082458
  37.9450455  42.2047882  37.8181877  40.0191956  27.6636715  73.2113800
  39.8859711  26.9470005  73.8317566  40.8515358  28.0564728  73.4743500
  52.3853989  39.8167572  14.7045612  51.6130295  39.3776665  15.0607586
  53.1027336  39.2019768  14.8585272  19.2490749  15.8372297  84.8630981
  18.9572716  14.9401178  84.7010117  20.1885262  15.8202162  84.6804123
  83.7100906  41.1633377  44.6590691  82.7611160  41.0758438  44.7487030
  83.9461670  40.5293770  43.9818764  45.1221237  59.9895630  55.9814720
  45.5323906  59.3341904  55.4172020  44.9069672  60.7123032  55.3919106
  29.4379292  46.1976433  30.4777470  29.1747513  45.9474487  31.3633957
  30.2606411  46.6720543  30.5973816  47.6620789   7.1882248  86.2440872
  47.2911148   6.6606851  85.5367584  46.9375038   7.3096313  86.8576660
  51.5376282  15.4499731  74.0727615  51.3224373  15.4684887  73.1402435
  51.9385109  14.5915155  74.2090607  12.8560114  66.3583603  73.6684875
  12.3048944  65.9953766  72.9751282  13.6993036  66.5186539  73.2449341
  83.0371017  29.1747131  79.5002594  83.5471497  28.9014454  78.7377548
  82.4713058  29.8735409  79.1720123  14.0650835  40.7925072  34.4541740
  14.2374516  40.2473068  35.2218208  13.8436642  41.6510124  34.8149719
  79.6528473  13.6026459  17.5122070  80.1273804  12.7965593  17.7153664
  79.7263260  14.1306810  18.3071976  53.5789146  48.2950287  19.2068920
  53.1344604  48.1102562  20.0342693  53.2992325  47.5906105  18.6222477
  83.0579376  12.9119368  25.2413521  83.4177017  13.7454395  24.9379082
  83.6671448  12.6209669  25.9199066  19.7007370  40.6799011   6.8531461
  19.3032646  41.0331955   6.0572634  19.3158245  39.8085022   6.9466166
  20.1926575  46.9625549  85.2649460  20.9897079  47.4380379  85.4991608
  20.3669930  46.6199722  84.3883133  60.2220764  -0.1580965  44.0809555
  59.4098816   0.3446624  44.0192757  60.6513634  -0.0242653  43.2359467
  31.9877663   8.1360140  18.9520073  32.8345757   8.5485039  18.7817249
  31.6831608   7.8500314  18.0908089   7.5998168  32.9681129  15.8394327
   8.0975418  32.1988335  16.1164036   8.2452345  33.6745224  15.8138876
  38.9407272  42.1721840  86.1117554  38.7165527  41.7134895  85.3020782
  39.8355484  41.8928490  86.3054047  15.3147249  71.3773499  11.5285282
  15.8153524  71.4650345  10.7174091  14.4884624  71.8262939  11.3497381
  23.1307392   8.0410280  29.6912422  22.7644978   7.8205042  28.8348160
  24.0439472   7.7585859  29.6411419  81.6812057   8.4990816  35.0480347
  81.6373520   9.4362040  35.2380600  81.3911743   8.4252319  34.1388245
  49.4388046  48.0680847  22.6930828  49.5783348  48.1886787  23.6323490
  48.7158966  47.4432297  22.6366119  86.6873856   9.8232489  84.2195282
  87.2828751   9.1553345  84.5594025  86.1123199   9.3484373  83.6194611
  81.4611969  10.3059797  74.9403229  80.9277039  10.0055218  74.2045593
  81.7888107  11.1621122  74.6647491  12.1280632  69.0832672  15.6906900
  12.4705505  69.9624863  15.5297365  11.7326088  68.8241882  14.8583879
  42.8538055  32.7139320  30.6434364  43.4403000  32.8344383  29.8966198
  41.9746590  32.7677460  30.2686863  68.5085449  20.2225552  14.7997074
  67.9725876  20.5574265  14.0807915  67.9530792  19.5724583  15.2298965
  77.4948044   8.3374004  63.5825996  78.2833023   7.8074870  63.4655952
  77.4579163   8.5073166  64.5238724  69.2563324  37.4924736  36.4998703
  69.4546356  36.6183128  36.1640892  69.8580246  38.0711327  36.0315247
  62.8038063  21.3407116  39.4780769  62.4418526  22.2267742  39.4674797
  63.1212044  21.2223339  40.3733292  51.9426956  39.0995560  62.6318970
  52.8019638  39.4194336  62.9067879  51.4944916  38.8839951  63.4497490
  50.8564644  39.8775558  18.6532497  51.2526054  40.7275734  18.4614773
  51.5985603  39.2763100  18.7166805  73.9597931   4.8612990  77.7692795
  73.0605774   4.7036572  77.4815369  74.1687088   5.7336488  77.4352264
  85.6959991  58.8971901  77.0445709  85.1991501  59.6108932  76.6445770
  86.5014496  59.3107491  77.3551407  55.3984909  17.8121948  30.1430740
  54.5825081  17.5353050  29.7262573  55.8673592  16.9960938  30.3173523
  35.2517357  42.9066277   1.7426019  35.6598167  42.0417900   1.7006534
  35.7276955  43.4276733   1.0959115  10.6217136  70.8791046  24.1604233
   9.7310047  71.1141281  24.4204884  11.0718393  70.6968079  24.9852772
  76.5381851  32.5886955  45.6643295  77.4261246  32.5384636  46.0182533
  76.5086136  33.4308319  45.2102737   9.8227835  41.3037491  78.1561661
  10.2106638  42.1618233  78.3279037  10.5344191  40.6833191  78.3138885
  84.6661606  70.2360229  29.9884510  84.5090637  70.5674667  29.1043148
  84.1892395  70.8391190  30.5585842  72.7645493  52.8475647  63.6996231
  73.4827271  53.4399338  63.9222221  72.0416412  53.1256447  64.2620239
  44.5609589  33.2471199  28.4114780  44.8683281  34.1180763  28.1601086
  44.9656105  32.6574593  27.7752476  57.4401093   1.1868650  44.0951729
  57.6183891   2.0867324  43.8218880  57.1463203   1.2659229  45.0027390
   0.6848356  48.4203682   0.3559103  -0.2418933  48.4026222   0.5948467
   0.8080483  49.2724495  -0.0624236  41.0328751  48.3899765  47.9217377
  41.5195541  48.7827873  48.6463585  40.5118446  49.1094780  47.5652580
  31.1162510  48.1438065   4.9579859  31.2114143  47.8726234   4.0449495
  30.2613831  47.8030014   5.2212057  62.5799522  12.8200626  66.1039963
  62.8682747  13.6748610  65.7839584  63.1258507  12.1910820  65.6321793
  83.2197342  38.2755241  43.4450493  82.3738098  37.8752327  43.2440071
  83.2092667  38.3933182  44.3949127  64.2604980  31.7321339  29.4604683
  63.9380112  31.2348099  30.2120686  64.7555389  31.0945816  28.9459820
  76.2039337  23.0971470  85.3855820  76.5016327  23.8425007  85.9071732
  76.1680603  22.3694515  86.0063858  23.1682472  59.8034935  65.8317032
  22.3301849  60.2659683  65.8331223  23.8253613  60.4986458  65.7971420
  52.6883125  63.2194138  53.0619583  51.7785492  63.1568718  52.7710037
  52.9666824  62.3105698  53.1748619  12.9085636  41.9398613   9.3784285
  13.7276993  41.4872093   9.1775379  12.2410450  41.4527969   8.8952923
  22.2812557  10.1822863  23.1150951  23.2009029   9.9946518  22.9272861
  22.0747795   9.6342735  23.8722496  40.1031075  54.9630089  72.5355911
  40.2238083  55.6757660  73.1629944  39.2806702  54.5495720  72.7980804
   6.6023388  30.3351631  72.4929581   6.9919209  29.9289646  73.2672043
   7.3513756  30.6129169  71.9656754  64.0079651  64.6506805  58.7074280
  64.5232697  63.8578339  58.8560410  64.0484848  64.7887955  57.7611122
  18.7797394   5.6746569  81.5289993  19.1843700   6.0908208  80.7678680
  18.9575901   6.2749977  82.2530060  50.3890152   8.0766459   4.7013502
  49.4439621   8.1509686   4.5687666  50.4807854   7.4710422   5.4369144
  80.7776031  70.4687195   6.2394643  81.1215134  70.7066803   5.3784566
  79.9066010  70.1146545   6.0599761  69.6255722   2.9802063  15.8281746
  70.4553146   2.5227463  15.9641562  68.9745483   2.2814407  15.7639217
  77.4069977  29.5741348  44.5877457  77.8713455  30.1536064  45.1917496
  76.8840714  29.0069313  45.1543655  73.5163269  61.5512466  36.8359528
  73.0789413  60.9309807  36.2526855  73.8877335  62.2103691  36.2495651
  61.3604584   5.1286302  71.7417145  60.8987465   5.9604068  71.8475494
  60.7422638   4.5697613  71.2708282  71.6790924  37.5494461  75.9600143
  70.8316956  37.5658569  75.5151749  71.7092514  36.6929550  76.3863297
  58.9667816  61.1051064  66.6095352  58.5290298  60.3954124  67.0795822
  58.7077560  61.8984222  67.0783539  43.4652786  70.7151794  31.4009285
  43.1803284  70.7330856  32.3145561  43.0072632  69.9650116  31.0218449
  11.5829172   7.3678980  20.2547436  12.4605341   7.2540350  20.6195126
  11.0896807   7.8045187  20.9492302  19.6668873  51.3886223  58.7018700
  19.0730362  52.0789490  58.9968681  19.4920082  51.3067131  57.7643547
  82.0025253  30.4745159  24.4495831  81.4437790  31.2147999  24.6862564
  81.8776550  30.3722153  23.5060921  54.3252831  34.1936302  61.8156586
  53.8937073  33.3982849  61.5035667  53.6236458  34.8427696  61.8662262
   2.5158155  56.5531425  69.8450317   3.3414083  57.0284729  69.7518005
   1.8704462  57.1051407  69.4034119  67.0609589  68.4131470  37.8559151
  67.8997116  68.4120636  38.3171310  66.4140930  68.2207947  38.5347404
  59.6946907   9.2797947  28.8888664  59.0139160   9.4337893  28.2338333
  59.8521881   8.3363085  28.8533688  37.8168640   1.9759203  87.3652267
  38.4316330   1.8120726  88.0803833  36.9580040   1.9952708  87.7873917
  73.2913437  14.4231558  75.8844376  73.4802246  14.0389404  75.0283203
  72.9932251  13.6859837  76.4172897  79.9040756  41.4204140  83.3074036
  79.3116455  40.9008255  83.8508072  79.3262863  41.8975716  82.7118301
  47.3260384  57.4685059  50.7099915  46.9683990  57.3661041  49.8280373
  48.2380905  57.7233276  50.5705070  59.5326462  54.5201302   4.3493633
  60.4221878  54.3401146   4.0451546  59.4737816  55.4753799   4.3655891
   1.1288419  15.6654911  86.3672714   1.3739148  15.2734442  85.5291367
   1.8639773  15.4686460  86.9478455  78.7271881  12.4843159  11.4441710
  79.3503723  13.2024841  11.3341522  78.7608795  12.2789783  12.3784800
  26.7571888  33.8323784  75.8534851  27.0120029  34.5714760  76.4057846
  26.4416523  34.2353973  75.0446320  64.2556534  69.4253922   5.8130975
  64.0207214  69.7220535   4.9338756  63.4180794  69.2194443   6.2281675
  78.3631210  68.5103836  21.7810383  77.9066162  67.7327652  22.1021938
  79.2222137  68.4745789  22.2016506  60.3924675  35.5425758  81.7704086
  59.7800026  35.2234421  82.4331894  60.7063904  34.7509232  81.3334122
  61.4292336  10.5273829  30.8075981  61.3603592   9.9117527  30.0778809
  60.9076881  11.2820606  30.5343113  14.2594624  51.5000610  17.4633141
  14.8907995  52.1583710  17.7536182  13.5168209  51.6014862  18.0586529
  52.2890282  22.6675072  79.7052765  52.0554848  22.7048111  78.7777557
  53.2456627  22.6996117  79.7128677  48.9562798   1.1818621   8.5368280
  49.5509720   1.1030550   9.2827244  48.5914879   0.3036745   8.4275227
  46.6053276  21.8120060  44.5641747  46.2836647  22.3637314  45.2771721
  47.4078369  22.2434578  44.2708130  84.4806442  27.9530411  23.4157791
  84.4908371  27.9197445  22.4592133  83.9491730  27.2006645  23.6759739
  81.0755157   1.9596776  24.9745693  80.8223877   1.4032128  25.7111187
  80.3276367   2.5433719  24.8472672   5.1374521   2.9975495  39.8262100
   5.7800345   2.8629320  40.5227737   4.5981159   3.7254353  40.1352921
  57.3520355  27.2408199  17.3918076  58.0973206  27.7337284  17.0485497
  57.6605988  26.3355083  17.4296494  51.9585075  22.0644684  39.8921242
  52.1138191  22.2858582  40.8103294  51.6001587  21.1772251  39.9169807
  21.6760349  55.7451019  29.9165726  20.7304115  55.6247253  30.0034027
  21.8977985  55.3127060  29.0918999   1.0948552  61.4209709   1.4861935
   1.3037635  61.9812164   2.2336636   1.3984439  61.9148026   0.7244884
  17.2492409  21.9454479  79.8206406  16.9885311  21.8859692  80.7397308
  16.8664322  22.7681217  79.5158539  59.8832207  62.0969582  51.6351662
  59.8812828  62.9535408  52.0623627  59.0127869  61.7396545  51.8109932
  49.4787521  57.0321960   6.8066430  49.4391747  57.7418175   6.1654730
  50.3819695  56.7185402   6.7613120   6.4996901  27.0239124  17.1414623
   6.1735482  26.2380295  17.5799274   6.1058545  27.7494125  17.6259975
  46.0094910  22.3270187  29.3875446  46.6640625  21.6934204  29.6813469
  45.7569122  22.0235729  28.5155602   1.3661581  36.1482887   8.1605415
   0.9893954  36.8359680   7.6115627   2.1034591  35.8121071   7.6510296
  83.1052628  19.4722061  57.5282898  83.8033600  20.0870018  57.3026276
  83.3268967  18.6725197  57.0512009  16.2839870  45.9793968  46.6785469
  15.5971508  46.5981827  46.9267311  15.8124361  45.1816902  46.4386864
  44.7199898  33.3381920  19.6671753  45.3696594  33.2358589  18.9716969
  45.0283165  34.0891571  20.1743393   8.4210014  46.9700394  59.6766586
   8.7532930  46.0724030  59.6843834   8.7971907  47.3714485  60.4599762
  68.9824142  70.4526749  28.1587543  69.6565857  70.0588837  28.7125130
  68.2039642  69.9170380  28.3115540  76.7547379  27.1049080  87.6351013
  76.3030090  27.0402145  88.4765244  77.5929871  27.5169601  87.8443451
  11.0952873  70.7193909  64.5255203  11.8068981  70.3621216  65.0567398
  10.8199272  71.5079117  64.9931183  55.0673103  63.4955788  59.6260567
  54.5816574  63.7409210  58.8385429  55.9383087  63.8709946  59.4969940
  63.3216553  68.0747375  74.3711395  63.7976112  68.8113480  74.7546844
  63.2687378  68.2833405  73.4384460  83.0330200  56.3902626  50.4657974
  82.9988174  56.4485817  49.5109901  82.2252350  55.9369850  50.7071571
  45.8978271  33.5455666  34.9000549  45.5731201  32.8065071  35.4144402
  45.3518867  33.5484123  34.1138153  22.7561207  29.6528645  78.0188522
  23.3862534  29.6971588  77.2996826  22.0203743  30.1906471  77.7261047
  22.7927513  46.4420433  88.1589508  23.0162849  46.4234276  89.0895004
  22.3904057  45.5896721  87.9921799  50.7308121  29.2008305  55.4709740
  49.8049164  29.4367046  55.5285378  50.7701340  28.5554790  54.7651367
  72.0331573   6.5288892  63.2414169  72.2277756   5.6345205  63.5215225
  71.2358932   6.4477921  62.7179413  63.4044456  19.9191589  51.8057632
  63.9200974  20.4376926  52.4233894  63.0760117  19.1851635  52.3250084
  64.7051544  11.2452879  75.3901825  65.3803101  10.7297840  75.8313828
  63.8841209  10.9543657  75.7870407  47.2212524  43.6970291  33.1769562
  46.9299927  44.0430870  34.0205460  47.1803665  42.7463837  33.2810440
  76.5914536  51.2562599  11.4849653  76.4485626  51.9175606  12.1620903
  76.2730637  51.6649361  10.6800756  67.3370667  26.7689800  40.0958443
  67.9343948  26.2717438  40.6545753  67.9018860  27.1587486  39.4285469
  67.7221680  18.8249168  39.5595779  68.6722488  18.9403725  39.5438919
  67.3724823  19.6852055  39.3275032   7.5618825  37.3543930  42.9944458
   7.2658501  36.6812820  43.6072426   6.9712753  37.2729836  42.2455902
  81.6789627  71.0437698  83.0040894  81.4067535  70.4507446  83.7044144
  81.6354294  70.5119247  82.2094345   8.0268335  64.4543304  83.2660446
   8.9101295  64.2556458  82.9553299   7.6531348  65.0128555  82.5844040
   8.7422867  52.6742706  21.2913113   9.3692522  51.9659119  21.1451054
   8.0630312  52.5328178  20.6318913  20.7425957  33.4514084  76.0839081
  20.4060860  32.5877190  76.3227158  20.4236736  33.5947380  75.1928482
  42.1699867  57.1048164  60.1704674  42.9805298  57.5822906  60.3473053
  42.2478600  56.3017349  60.6854706   6.2041006  17.4642963   7.0370908
   6.9349041  17.1715069   7.5815473   5.4331837  17.3603039   7.5948582
  45.7528801   2.5050433  88.2962341  46.5327835   2.7391427  87.7930679
  45.3600197   1.7823646  87.8067169  66.0150223  50.4370308  21.8021774
  65.9343796  49.6695862  21.2358246  65.7714996  51.1743813  21.2424965
  54.3574753  62.4627533  67.0354462  54.3326187  62.8006668  66.1402206
  54.9221687  61.6915283  66.9847565  84.2535858  26.9311485  35.8936729
  83.9990234  27.8534851  35.9205780  85.1230850  26.9109020  36.2934113
  62.0090027  20.9812164  68.7645340  62.6152611  21.4361076  68.1799316
  61.6985970  20.2338867  68.2532806  46.7077065  64.1152878  49.5877953
  46.3339081  64.9612656  49.8344307  47.1029358  63.7838402  50.3941231
  27.6764984  31.6044674   8.1387606  27.9128704  31.8846779   7.2545419
  28.2172260  30.8307209   8.2973890  23.3483677  11.1455374   0.3059827
  23.8465576  11.1838531  -0.5104544  24.0044384  11.2646904   0.9927169
  35.6397552  45.7279358  82.2288361  36.0710449  44.8904648  82.3987198
  36.2818527  46.2307014  81.7276611  37.2997932  41.1514282  14.5099068
  36.8747559  41.9889984  14.3253880  37.2476425  41.0608559  15.4613848
  23.3537216  41.1505165  87.5592194  23.4546127  41.2977676  88.4996262
  24.2270966  41.3020706  87.1979980  58.4813652  10.0833073  47.5462952
  58.8467941   9.1995440  47.5869827  58.6491928  10.4520445  48.4135323
  42.0685234  56.9678345  64.0243225  41.7274475  57.3397789  64.8376770
  41.7759399  56.0565300  64.0364914  70.9783325  11.0268545  60.3486710
  71.0534439  10.3890648  61.0584679  71.8513260  11.4135017  60.2807236
  38.7801323  68.9740143  69.1105499  39.2366905  68.3881149  68.5068054
  38.8266106  69.8333511  68.6914902   3.8595331  22.5007706  29.7233334
   3.9620268  21.8132629  30.3814068   2.9384394  22.7542171  29.7831936
  61.0398865  56.4142532  62.2549400  60.3469162  56.9257622  62.6725349
  61.0884094  55.6099548  62.7716408  57.6907539   2.9545631  16.2177620
  57.9331436   3.5578642  16.9202633  58.5248947   2.6071072  15.9019928
  73.2466354  64.0647507  44.0307770  72.4526749  64.3864594  43.6037369
  73.9629440  64.4431915  43.5209579  24.0282345  31.2097702  65.0226059
  24.7157650  31.0667934  64.3721542  23.9181957  30.3583393  65.4459152
  52.4549179  40.3878670   4.7699819  51.8496094  40.0398407   5.4247403
  52.4128723  39.7610474   4.0477896  69.8700943   1.5812789  23.4914665
  68.9955139   1.2036905  23.5851345  69.7422562   2.3449283  22.9286785
  79.2188034  18.1682396  61.4775848  79.8726654  18.7677269  61.8371773
  79.0211792  18.5216198  60.6102333  24.4873047  52.9361153   0.1051047
  25.1129112  53.0858269   0.8139309  24.1342697  53.8041611  -0.0900830
   0.3888386  45.1135406  50.9857063   0.2296615  45.5856133  51.8030434
  -0.4750545  44.8000717  50.7180176  70.6102371  38.1623268  87.6831970
  69.9446793  37.9686432  87.0230789  70.6207275  37.3887825  88.2468872
  33.0642662  50.6299820  22.8885269  32.4623985  51.2934952  22.5512848
  33.3513603  50.1500397  22.1116962  71.6082458  34.8760452  76.4534149
  71.7968750  34.8313446  75.5160522  71.1511230  34.0571747  76.6450577
  69.3612137  58.0019493  68.0671844  68.7868576  57.3912735  68.5291672
  70.2409439  57.6473656  68.1959305  55.1546631  39.1804085  66.2034607
  55.8854713  39.5046349  66.7297974  54.6265182  39.9578819  66.0222702
  59.8100052  14.3803349  64.7135315  59.3591919  15.0267057  65.2568588
  60.2560310  13.8102446  65.3398590  33.8116150  51.4791870  46.6363602
  32.9198990  51.6043777  46.3117104  33.8979187  52.1118546  47.3494644
  22.1224270  54.7610016  76.3197174  22.7948685  54.9565163  76.9722748
  22.1023312  55.5351677  75.7571411  78.3603134  30.4744835  17.2862606
  78.6063843  31.3870926  17.4373341  77.4085922  30.4630699  17.3878918
  66.5777969  25.8906555  61.0743027  65.8631897  26.4846191  60.8445816
  66.6213379  25.2743073  60.3432426  43.1725922  33.1867218  56.9906349
  43.5819893  33.1565666  57.8553391  43.2980652  32.3067741  56.6354141
  25.3183212  44.0176048  28.2873497  25.8847580  44.7867165  28.2253475
  25.7558346  43.4483337  28.9203949  55.6683235  14.1213713  78.2178955
  55.5900497  15.0739241  78.1654739  55.5254402  13.8195782  77.3208237
  54.3364182  55.0848198   7.6355906  55.1088753  55.3257103   7.1242094
  54.6107216  54.3165703   8.1363659  56.5595512  29.6798573  49.9287186
  56.5592117  29.0905838  50.6830330  56.4628525  30.5536499  50.3073540
  51.9075737  63.6913109  17.6412220  52.2907562  64.5497665  17.8213882
  52.6257858  63.0742531  17.7813625  48.6205177  43.3748932  14.5162182
  47.8253708  43.5813675  14.0249538  49.2639275  43.1462784  13.8454037
  48.0996933  53.7474670   9.5764742  48.9514847  53.7685242  10.0126410
  48.2673340  54.1086426   8.7060251   3.0084205  37.0577240  78.0303726
   3.7578490  36.5098915  78.2637482   2.3376622  36.8333855  78.6753387
  74.9518814  35.2730255  13.0099640  74.1214371  35.7145844  13.1878061
  75.4246826  35.8746414  12.4348583  65.4327393  12.9426317  83.3394394
  66.2457809  12.4418011  83.2734375  65.3943481  13.2173510  84.2555618
  80.2818909  12.8643341  57.6841164  80.4167709  13.7683277  57.9684296
  80.5032883  12.3364172  58.4512672  27.3494701  17.1263065  70.8687973
  26.8758450  16.5030041  71.4196167  28.2562389  16.8201847  70.8858643
  73.4912109  28.4824963  15.8510265  72.9609985  27.6861362  15.8207979
  73.9351578  28.5069790  15.0033569  29.0386906  26.9183521  71.1150436
  28.7591152  26.4564648  71.9054413  28.8204441  26.3216686  70.3991013
  15.1323423  -0.3250616  56.6223106  15.4870205   0.2902154  57.2640839
  14.3903170   0.1369545  56.2322235  55.8307533  51.9608345  71.4788666
  55.0505219  52.5136986  71.5214386  55.4951096  51.0671196  71.5484848
  85.9092484  48.0552864  22.1478329  85.7805862  47.6039200  22.9820671
  86.8595200  48.1286812  22.0592899   3.9223514  65.0915298  58.9002724
   3.3782747  65.8746948  58.8174171   4.7709098  65.3502655  58.5407829
  60.4023056   5.2683434  17.9484100  60.8595734   5.2278891  18.7883511
  59.5054855   5.0019627  18.1508636   3.4250150  58.0475540  48.4544754
   3.2632976  58.4246750  49.3192635   2.6169400  58.2095070  47.9676323
   7.5168829  67.6776733  59.9631424   7.2032876  66.7971573  60.1695023
   7.1104183  68.2377853  60.6244240  82.3698807  46.0546188  38.8314476
  81.5147705  46.4844246  38.8482208  82.4006958  45.6157036  37.9813690
  18.7444954   5.8514538   1.9907962  18.4385777   5.3519535   1.2337331
  19.6834660   5.9619713   1.8412828  70.4609680  59.3307114  38.0414467
  70.3857956  60.0761261  38.6372147  71.2520828  58.8741570  38.3276863
  52.2203064  54.3832550  58.4479485  51.4272995  54.8956604  58.6054649
  51.9788132  53.7775002  57.7472534  12.7486734  11.0384293  73.3326950
  12.2128687  10.4558496  72.7944107  12.1156015  11.5358820  73.8503723
  35.7255630  51.2724609  40.4560661  35.3739738  50.9644661  41.2913857
  36.4778824  50.7047348  40.2889328  15.9188242  55.8303757  37.9742737
  16.8221893  55.6386719  38.2260933  15.9819269  56.6223488  37.4403915
  50.8492546  24.1123886   7.2034130  50.2488441  23.3993473   7.4209247
  51.4400253  24.1656284   7.9546700  75.0367508  48.7520142  79.7835617
  74.2828445  48.8387489  80.3669357  75.7723389  49.0965271  80.2899704
  46.5647545  15.4923754  63.2248116  46.5642509  15.4477749  64.1809769
  45.8259354  16.0622540  63.0112343  70.8354568  55.4989395  88.5308914
  71.5709610  55.7070236  89.1070633  70.8546677  56.1828575  87.8614731
  51.4972687  40.7766342  72.2147217  52.4048843  41.0793457  72.2434845
  51.1783752  41.0569153  71.3568268  76.5756149  17.6051159  65.0758209
  76.9521942  17.1146832  64.3451385  77.2367630  17.5520191  65.7659607
  57.5066795  21.8798141   3.9519496  57.3215790  21.5852451   4.8436894
  56.7014046  22.3145695   3.6713181  58.8023529  13.9238548  19.2710247
  59.7107162  13.8295574  18.9842911  58.6352386  14.8655243  19.2314930
  62.6139336   7.3259835  34.2310104  63.1353989   7.5027304  33.4480247
  63.1428299   7.6658993  34.9527855  66.3918610  12.3358498  47.3645439
  66.5380249  12.4983521  48.2964554  67.0612564  12.8580780  46.9224777
   6.5490432  62.0940170   8.0962496   7.2836947  62.0802727   8.7097073
   6.8593307  62.6251106   7.3628402  25.4865913   2.8269269  25.8233776
  25.5750694   3.7799807  25.8137589  26.1558475   2.5304685  26.4401779
   2.3229027  28.9453564   3.4304280   2.9367895  29.4412918   2.8887422
   1.6474000  28.6515942   2.8191733  51.3937683  65.3003769  12.2809000
  52.1950569  64.7943497  12.1463633  50.9436874  64.8506241  12.9960070
  54.7162819  24.8628712   5.6523337  54.5810471  24.3574295   6.4538774
  55.3565292  24.3549252   5.1540284  12.2115669  36.6385422  30.2133198
  11.5543299  36.2581062  30.7960186  11.7065039  36.9924889  29.4812908
  46.0475197  16.0805721  48.9835091  46.8658333  16.5228710  48.7577553
  46.3061371  15.1774302  49.1670418  37.2157021  63.3595505  88.7350998
  36.3715096  63.7803116  88.5722275  37.6277924  63.9018211  89.4076767
  35.0309334  47.9804573  46.4855156  35.4870605  47.8003960  45.6634712
  34.1334801  48.1837349  46.2219086  73.4811935  11.8595734  60.3772888
  73.4488449  11.9154978  61.3323059  74.4001999  12.0148611  60.1592674
  61.0193443  58.3351173  83.5849457  60.9685402  58.5551949  82.6547775
  60.1108589  58.1825104  83.8449326   5.4838195  37.2869873  83.9151917
   5.7227759  37.3172607  82.9887924   4.5707092  37.5733566  83.9365005
  20.9304390  37.1338081  80.5167542  20.3221378  37.5013428  81.1579361
  20.7095547  36.2030487  80.4831619  78.2535324  16.2781487  50.5813179
  77.9077911  16.4029484  51.4651299  78.4255371  17.1646957  50.2640190
  57.5702515  71.1434326  17.3323803  57.0199547  71.2760086  18.1042824
  57.2031784  71.7318344  16.6726284  27.5035648   5.6045241  77.7054596
  26.5990868   5.4108334  77.9517059  27.5434170   5.4112821  76.7688141
   1.7924249  28.0586796  50.1843376   2.4673755  28.6503963  49.8518524
   2.0477788  27.1961288  49.8571815  41.0263748  43.2073822  13.0002441
  40.5833855  42.9546089  13.8102427  41.9233475  43.4052773  13.2695198
  45.3801651  45.7110405  44.8584023  45.0870018  44.8001251  44.8812561
  45.2740097  45.9739494  43.9441605  60.3598442  11.1670523  20.0056686
  60.7013130  11.9029026  19.4975796  61.1344414  10.7731714  20.4070282
  40.9230576  25.5188026  84.9050827  40.6244202  26.0613785  84.1752472
  40.1487083  25.0197945  85.1650848  50.6141701  37.8657494  78.6452866
  50.8298569  37.0717773  79.1344833  49.6971664  38.0373726  78.8594894
  86.0794220   4.9358401  64.3334045  85.7450027   5.8322859  64.3614044
  85.6810455   4.5559449  63.5503273   2.1860731  24.5732937  63.3260612
   2.5602961  24.8339157  64.1676483   2.4679134  25.2557907  62.7169685
  25.1127472  42.5169373  84.4121475  25.8805656  42.8815117  83.9719543
  24.4514809  43.2062454  84.3504333  52.2989731   5.5798016   3.7867932
  51.8386116   5.7253394   4.6133008  51.6809845   5.8670206   3.1146128
  16.8511715   3.7905576  57.1273804  16.2759056   3.4535866  56.4405403
  16.9119720   3.0756569  57.7609825  83.4416122  59.7226677  57.3800087
  83.7967682  58.8503761  57.2091293  82.8741760  59.9013596  56.6301308
  58.7201920  32.1171112  12.7206259  58.2722626  32.7373772  13.2958336
  58.1116791  31.3826218  12.6402140  13.4053020  30.3315449  85.6554260
  12.6865959  30.4907570  86.2672653  14.0036001  31.0660591  85.7923813
  13.5197449  40.7044983  14.7941275  13.2145300  41.3624992  14.1695366
  13.0518599  39.9062653  14.5488939  12.7855120  38.2730179  65.4082260
  12.5843458  37.5248337  65.9703598  12.3578930  38.0694466  64.5764008
  58.7267036  40.0028954  84.6744614  58.7813416  40.9356804  84.4667206
  59.4995499  39.6194916  84.2597961  32.5575523   4.5292563  82.3378525
  32.2158089   4.8541427  81.5048523  33.4629593   4.2847877  82.1462784
  86.2952423  19.0603428  18.2086792  86.8643875  19.6115513  17.6715794
  86.8849869  18.4144402  18.5975857  73.3484116  29.6272526  43.3199730
  73.3947296  30.3976097  43.8862190  72.4115067  29.4555206  43.2253685
  15.0598345  10.9100456   5.5631785  14.2238569  11.3675108   5.4731903
  15.0277338  10.2199078   4.9006748  78.7585144  64.1373062  51.4012337
  78.6407700  63.9327164  52.3288727  79.2725449  64.9447632  51.3974190
   0.2067962   5.7710276  42.6918831  -0.4041505   5.0371547  42.6254997
   0.8757918   5.5861125  42.0327301  64.6359482  11.4082308  64.8779068
  65.5575790  11.4986887  64.6357422  64.6476517  10.8659544  65.6665955
  80.9821014  13.4771767  76.2730103  81.0563354  12.9659548  75.4671783
  81.1156769  12.8395596  76.9743195  66.9259567  40.1579781  84.5556107
  66.0322189  40.1838570  84.2138596  67.3278122  39.4070969  84.1186676
  65.5076904  36.8321877  30.6486454  65.4866180  36.5133324  29.7463608
  65.7167740  36.0580864  31.1714096  12.9935913   7.1815743   0.3470462
  13.5032835   6.8751464   1.0970775  12.6945906   8.0546198   0.6012540
  50.8880692  17.6760216  79.6855621  51.5499573  17.0952587  80.0608673
  50.8368568  17.4177151  78.7652969  68.2110519  49.4172554  67.7903595
  67.4943466  49.4327736  68.4246597  68.3463287  48.4880676  67.6045074
  74.1930466  44.9431458  49.4536133  74.8007050  45.4345741  48.9009094
  74.3446350  44.0271835  49.2206573  86.2972336  56.9013443  54.7307396
  86.5778503  56.1259346  55.2167664  85.8280716  56.5522423  53.9729500
  49.7613754   6.8174858  23.3718605  49.1778603   6.9367042  22.6225090
  50.5580826   6.4414401  22.9975891  30.2748928  35.5789604  80.8945999
  30.2464676  34.6225281  80.9203033  30.5743389  35.7859764  80.0093307
  85.8161087  57.5417786   6.1409087  85.9126511  58.4253616   5.7856765
  85.1660461  57.6334000   6.8375106  66.5041962  20.1799736  72.2440262
  65.9318085  20.9464035  72.2786179  66.6193008  19.9254837  73.1595688
  10.1098890   5.9100828  79.9303131   9.4431915   5.6635556  79.2892456
   9.7390537   5.6500707  80.7735825  46.6964340  56.5835228  83.6803436
  46.8249321  55.9272842  82.9954605  47.3441277  57.2613182  83.4871674
  74.2404099   1.3017375  18.3108101  74.6631088   2.0746727  17.9364758
  74.8396301   0.5818580  18.1134796  57.6180115  11.1716156  73.7957611
  57.8827858  10.2711983  73.9838409  58.0672874  11.6966944  74.4580841
  84.2941818  15.0201941  67.8415222  83.9727097  15.5020437  68.6035614
  85.2261505  14.8895397  68.0164413   3.0440063  22.8258743  10.3061104
   3.2127013  22.8291836  11.2483225   3.7660580  22.3185596   9.9352942
  85.9377899  66.1077194   5.2914495  86.0688324  66.5968628   6.1037316
  85.3284836  66.6442566   4.7844038  58.5578575  63.9826546  20.4892902
  58.8090172  63.5804939  19.6577740  57.7309074  63.5593567  20.7199497
  70.0494156  34.7253151  83.2927170  70.8200912  34.8930664  82.7503586
  69.5046005  34.1445007  82.7616272  61.4048729   4.3700294   4.7186112
  62.1020546   3.7794502   5.0039001  60.6145630   3.8300834   4.7285891
  58.2846260  38.5740089  76.2331696  57.6016884  38.1486092  75.7146530
  57.8458099  38.8276978  77.0451508  17.7994537  69.2952118  85.8147125
  17.0617714  69.5807343  86.3537216  17.7368774  69.8276215  85.0217056
  61.8796043  -0.0548228  51.9732742  60.9910965  -0.4108357  51.9670296
  61.7727661   0.8603317  51.7138329   2.1718364  59.3144035  41.1447067
   1.5974625  59.8446083  40.5922470   2.0011389  59.6239548  42.0342407
  14.3888588  59.0477219  62.2834435  13.6167984  58.7887993  62.7865448
  14.3595428  58.4984436  61.5000763  39.9027405  67.2419662  27.3053856
  40.7626343  66.9650497  27.6218204  40.0937424  67.9059219  26.6428795
  18.4439106  -0.1464637  26.8528328  18.8651524   0.3132794  27.5790730
  17.6489563   0.3576284  26.6791363  12.3780155  34.7905273  10.7068462
  12.6711941  35.4987030  10.1334658  12.8797007  34.0272713  10.4205170
  68.2524490   7.2151375  22.4811592  69.1733551   7.4754343  22.5015640
  67.8652344   7.6444974  23.2440147  40.8188820  25.6930618   7.5943961
  41.0929298  25.7980461   8.5054989  39.9749603  25.2445869   7.6482835
  59.7385254  34.0942612  52.4981461  59.1332626  34.8016205  52.2755814
  59.4924965  33.3761635  51.9150200  14.2154655  19.0216808  52.6741600
  13.3860092  19.2197723  52.2394257  14.0223646  18.2622623  53.2239113
  79.7747955   3.0121765  85.2517776  78.9157715   2.9803441  85.6728516
  80.1556854   2.1501262  85.4191818  25.1370945  47.9987984  42.2277641
  26.0251465  48.2295456  42.5004349  24.6052322  48.1233177  43.0137978
   6.9891324  55.3514633  44.8901215   6.8759890  56.2722206  45.1259995
   7.0057707  54.8897591  45.7284431  42.5887642  52.9332237  85.2080154
  42.4889374  53.1023598  84.2711792  43.3518600  53.4508553  85.4648666
  24.2974110  69.7914658  71.7070618  25.1487427  69.3554840  71.7443314
  24.2833595  70.2165680  70.8495483  33.4817238  30.1782398  86.5268555
  32.6544495  29.7502308  86.3062592  33.3818970  30.4342690  87.4437637
  75.6996384  30.5712719  83.0040207  75.6043091  30.9661503  82.1372910
  75.0238342  29.8940697  83.0343323  45.4834290  28.0873547  67.7151947
  45.1707382  28.9543171  67.4566727  46.4272423  28.1976757  67.8304062
  78.9315720   1.1765891  60.1244583  78.3465576   1.5156579  59.4469414
  78.7607269   1.7293683  60.8870049  59.6587868  50.6811295  37.6093979
  59.4431038  49.9578629  38.1981239  60.4332542  51.0854797  38.0004616
  75.4388885  51.8098679   0.4182700  76.0481949  51.5117989   1.0936462
  74.9634018  51.0204811   0.1593979  41.4046783  66.7115936  59.4934120
  42.2583199  67.0087280  59.1783943  41.5040512  66.6625214  60.4441757
  40.2613144  44.0775642  36.5436821  40.4530449  43.6940231  35.6878967
  39.9114037  43.3507195  37.0589371  71.8590927  62.1315002  49.6860619
  71.7917709  61.4604149  49.0068398  72.1723022  62.9091873  49.2241783
  12.6469154  32.4170990  16.6583443  12.4348383  31.8652630  17.4111614
  13.1969976  33.1126747  17.0186481  16.5463848  37.7427139  55.3119278
  17.4343796  37.3928833  55.2390099  16.0878582  37.3934441  54.5477333
  18.9587479  64.2291412  68.7844849  18.6496849  64.5912476  69.6148987
  19.6016445  63.5663376  69.0366974  74.9835815  52.5123215  24.6545448
  74.5707169  52.1847610  25.4535942  75.6506653  51.8588104  24.4444103
  41.5173225  25.5193768  26.3630028  42.1147842  24.7928715  26.1856289
  41.3435745  25.9020252  25.5029907   1.8737805  10.9338036  80.0787735
   2.2988157  10.1208992  79.8053436   2.5565391  11.5998478  79.9984131
  48.7904549  52.2306252  65.7836609  48.7321281  52.0048103  64.8553085
  49.0825500  51.4241066  66.2084427  61.7793694  58.1628113  29.0540695
  62.3974762  58.7396164  28.6052113  62.2385712  57.8918877  29.8490314
  48.0609360  70.7313614  19.7242374  48.0609512  70.6211166  18.7734089
  47.7362137  71.6211700  19.8621769  76.0155411  59.6638794  25.1295033
  76.3341217  60.3430328  24.5349579  75.5058289  60.1395645  25.7853603
  36.0592957  36.9027023  84.9999390  35.8750229  37.4591675  85.7566528
  36.6207771  37.4385109  84.4396820  83.6291351  42.3570213  58.3600502
  83.0411301  41.6106071  58.4755516  84.1289597  42.1482925  57.5708466
  84.3187256  48.2227287  71.7902603  85.2659607  48.0893784  71.8248444
  83.9486694  47.3539009  71.9465561  44.7356377  22.3821106  31.9170837
  45.1334114  22.1610661  31.0749779  43.8624382  21.9918175  31.8793163
  67.4559479  48.6698875  82.4929810  67.6826324  48.6515045  83.4227676
  68.2599106  48.4065094  82.0451965   8.6203184  48.6217384  73.0026321
   8.7236023  48.4953041  72.0594635   7.6750178  48.5814209  73.1475983
  25.6816788  58.2222633  83.8629227  25.0016613  58.7563019  84.2735443
  26.0352001  57.6932602  84.5780487  36.6851540  32.3778610  22.0378551
  37.5037422  32.7061882  22.4097996  36.8308525  31.4379234  21.9305210
  53.1843338  42.0322189  33.1316757  53.4676743  42.9078140  32.8684616
  52.4949455  42.1875534  33.7773094   4.7765598  68.3540115   3.6958106
   3.8796649  68.1203308   3.9349859   4.6779342  68.9745636   2.9737172
  60.0460320  66.1879425  48.6745605  60.8367157  66.4153519  48.1853409
  60.2643166  65.3660202  49.1139183  63.3577728  66.9613342  43.6611595
  63.1584053  67.7561798  43.1664810  62.5366249  66.7404633  44.1006622
  54.0921135  56.9030304   3.2609916  54.3406868  57.7979202   3.0294416
  53.1616707  56.9614449   3.4780035  80.4851837  56.1552429  83.4477005
  80.0294571  56.5158005  82.6870804  81.3295822  56.6059532  83.4568481
  38.7664413  66.2690125  17.9434853  38.3652000  65.5264511  18.3949699
  38.2139816  66.4086533  17.1743832  41.4906578  31.4487324  68.6827393
  41.5235634  32.4039345  68.6304245  41.1708755  31.2681465  69.5666885
  65.6904297  43.0010643  82.9047165  65.6690903  43.0774117  81.9508057
  65.4763260  43.8790817  83.2201157  77.0360413  30.4416294  31.9089069
  76.5963516  31.2369938  31.6084003  77.9238052  30.5115261  31.5578766
   9.5181952   2.9098477  13.7859001   9.9866505   2.2014952  13.3442926
   9.1454830   2.5002735  14.5666475  59.3604774  36.5318527   5.8321400
  60.2439384  36.8921814   5.9089417  59.0793610  36.3921165   6.7363949
  22.1371498  35.6128387  18.0957603  22.4845886  35.9053650  18.9383430
  22.8622093  35.7338562  17.4826736  32.9731865   0.1865037  34.3636055
  33.6400986   0.4629959  34.9921036  32.1467705   0.2689303  34.8394928
  76.6198578  49.5380821  29.2257214  76.8548203  48.6766586  29.5706558
  77.0077515  49.5597267  28.3509064  36.6258430   9.1761665  38.5429420
  36.8336258   8.4804001  37.9192696  35.7602844   9.4860506  38.2764702
  63.0900192  30.2716637  31.6380806  63.1030464  29.6367264  32.3542633
  62.4829597  30.9511318  31.9313946  76.2913589  54.7089081  27.7651348
  75.9382782  54.9573097  28.6194553  77.1364975  55.1556511  27.7161713
  39.9965668  27.3698330  63.6383820  40.6063499  26.9979134  64.2756195
  39.1310387  27.2162113  64.0171890  48.7308769  16.9784565  62.1133080
  49.2168388  17.5228481  62.7327499  48.0062599  16.6205578  62.6262131
  83.8036499  52.0247154  37.4545403  83.5479813  52.7848663  37.9770699
  83.2209473  51.3247261  37.7489853   9.8168049  43.3757706   8.8411818
   9.1095762  42.7343369   8.7731829   9.6752806  43.7994843   9.6877441
  12.4995813  35.3072701  73.9362106  13.0196848  35.9207993  74.4551544
  12.0143414  34.7967110  74.5843658  57.1880760  30.3487186  73.0470657
  56.9302673  31.0284538  72.4243927  58.1387253  30.4359818  73.1169052
  42.1710129   8.5686808   7.4586906  41.4097977   8.9233427   6.9993472
  42.2266731   9.0839796   8.2634268  13.7217369   7.0372915  29.8869896
  13.5990248   7.9409833  30.1777020  12.9150829   6.5911212  30.1448154
  44.5435295  70.7843628  71.3679657  43.6859932  70.3894196  71.2102051
  44.3471031  71.6319733  71.7669601  53.2702751  68.2970657  54.5482140
  53.2457352  67.3475876  54.4293633  54.1337662  68.5564423  54.2267570
  54.7147751  10.9631033   0.3356529  54.2683258  11.8062744   0.4129708
  54.1738777  10.4606724  -0.2736305  38.5516014  33.8688927  16.8066330
  38.4153709  34.0812073  17.7299938  38.5759506  32.9123230  16.7818851
  59.5848236  69.4687653  76.0979614  59.0681915  69.9081650  76.7734299
  59.2781258  69.8506317  75.2755585  41.1213341  43.7126541  69.0111694
  41.6917801  43.3692741  69.6988602  41.5078278  43.3911171  68.1966400
  70.8255539  69.1539307  47.5359116  69.9679718  69.0410995  47.1259766
  70.6288757  69.4410400  48.4276085  69.0550232   5.3827605  40.9045372
  68.6018982   6.2094250  40.7385979  69.5271683   5.2011151  40.0919418
  75.7372818  71.3905334  26.5755825  75.7356567  70.6227264  26.0040073
  75.0680084  71.9661026  26.2054214  29.8066177  12.2254286  78.2481308
  28.9768066  12.5130081  77.8674240  30.3035316  11.8801727  77.5064392
  83.2630920  48.3050957  21.7297516  83.0671692  49.1455193  21.3155842
  84.2186966  48.2506104  21.7207012  75.5096893  13.3168430  35.0819740
  74.8783417  12.8170977  35.5995483  76.2868805  12.7590847  35.0485039
  22.7868233  13.3408213  65.8609238  23.1028690  13.1754122  66.7491684
  22.3844280  14.2080822  65.9074936  17.4242706  18.9792500   8.6357708
  18.0510063  19.6493263   8.9085951  17.9624882  18.2973804   8.2337675
  53.5163269  21.5644016  42.6225586  54.1046562  22.2873173  42.4046326
  53.8871346  20.8083172  42.1675110  44.8311005  58.5673981  82.6143570
  45.6227570  58.1513023  82.9554977  45.0151863  59.5056458  82.6595230
  82.7797699  54.2089500  43.3731995  83.0784760  53.4652061  42.8498878
  83.5840759  54.6615257  43.6271744  18.0309391  17.2098999  77.1602402
  17.9585819  17.8769016  77.8429642  17.1553345  16.8270588  77.1056671
  37.7816658  39.6996078  26.4441833  38.5754585  39.1699371  26.5188274
  37.6729317  40.0915985  27.3106422  54.3045120  69.4869232   5.0309086
  54.9655952  69.0081940   4.5308881  54.3462639  69.1069031   5.9084473
  25.1574287  10.3323345  82.8544769  24.3443470  10.4583778  82.3653488
  25.5033264  11.2165318  82.9760513  52.1063385  19.4273853  44.7269325
  53.0191956  19.1837902  44.5733604  51.6007881  18.6911545  44.3825264
  10.5144949  56.5109825  87.2767410  10.9316521  56.9014931  88.0446701
  10.3581085  57.2491531  86.6877747  71.3198242  23.2541218  16.9170933
  72.1927567  23.6310444  17.0273342  70.7239990  23.9333515  17.2331161
  62.4165993  24.2853050  77.5159836  62.2152443  23.8874779  76.6689758
  63.1407814  24.8839874  77.3333054  50.2247849   7.7957172   0.1099730
  49.3736801   8.1311140   0.3916818  50.3581696   7.0079284   0.6370674
  84.7800751  34.2457390  65.3163910  83.9719391  33.7792168  65.1030807
  84.5153809  34.9000626  65.9629364  28.4667683  47.9097290   5.4430103
  28.1776009  47.0661697   5.7908931  28.2536793  48.5388069   6.1322770
  55.9749451  69.5364227  26.2779217  56.6358986  69.3373947  25.6147766
  55.8320732  68.7052612  26.7306862  63.8809776  67.7862320  85.8047562
  63.0255775  68.2150116  85.7790604  64.0056000  67.4470444  84.9183884
  70.4662704   4.7248454  43.2950325  69.9584198   5.4800606  43.5916405
  70.1614380   4.5672374  42.4014626  52.9785767  48.2614174   5.2593522
  52.7029533  48.1040573   4.3563008  53.0468788  49.2138176   5.3264217
  69.1149216   7.1144643   9.4208250  69.7424088   7.7292585   9.8009739
  69.3013458   6.2823820   9.8557005   6.7267060  46.3800621  16.1604004
   7.4537315  45.8949318  16.5506763   6.9454103  46.4318733  15.2299614
  78.5415115  45.7340202  78.8420105  77.7544327  45.1991158  78.7390060
  78.4235992  46.1740150  79.6838684  22.5136299  38.5575714  17.8251095
  22.2098637  38.7582397  18.7103729  21.9296131  39.0553131  17.2529125
  86.4249191  36.9063187  75.2568359  86.6237869  37.7048111  74.7678604
  86.6069412  36.1966438  74.6408310   1.4272810  61.0386772  48.2124710
   1.3615416  61.7913017  48.8002357   1.4733424  61.4220810  47.3366203
  26.4770775  53.3260117  45.3235741  26.3032112  54.2197456  45.6189423
  26.2828121  53.3414192  44.3864212  63.0005569  27.1612759  47.7761421
  63.3004951  27.8842125  48.3271713  62.2825241  26.7655220  48.2701416
  10.6693020   8.8484688  67.0178452   9.8403969   9.1316538  67.4037933
  10.9112244   9.5580797  66.4227371  16.5833340  44.9577141  14.5516214
  17.3938503  44.8274765  15.0438938  16.2825089  45.8284416  14.8115635
  83.2698975   2.6126988  12.3630810  83.7133102   2.7139196  11.5208426
  82.3567429   2.4400518  12.1337843  83.3307266  28.1568832  73.2582245
  82.9187851  27.6513977  72.5575027  82.6878204  28.1513309  73.9673615
  60.8764877  41.3480606  62.6262894  59.9876518  41.3946838  62.2741127
  60.9077072  40.5098877  63.0875130  63.3059502  52.0149117  58.4828644
  63.9997406  51.4084282  58.2239037  62.5300941  51.4631157  58.5818596
  78.9522247  37.4149208  36.0812759  79.5500565  37.9425926  35.5517540
  79.3694382  37.3711510  36.9416504  42.8987198  26.8750992  81.3682938
  43.1089973  25.9567814  81.1988602  43.7466011  27.3193130  81.3660583
  11.2318811  20.0034294  81.0144119  10.3127298  19.8127651  81.2015991
  11.3450928  20.9171391  81.2762299  14.6014042  22.5352287   3.5127628
  14.3015919  21.6616192   3.2614629  15.3510303  22.3754578   4.0861430
  83.9251480  30.5616531  71.6498871  83.8940277  29.6719837  72.0016785
  83.2502975  31.0352516  72.1362228  46.1758423  53.7056847  38.5366478
  46.8009109  54.2887573  38.1058960  46.4407578  52.8271713  38.2641296
  82.7882614   7.9519267  17.1518040  82.4572220   7.4749341  16.3908005
  82.1812820   7.7282124  17.8573227  23.6664600  21.9889431  73.0442352
  22.8915539  21.7308197  72.5451126  23.7797756  21.2904682  73.6888504
  76.9791946  23.6313972  65.0312805  77.5364151  24.2698650  64.5862122
  77.0724030  23.8390846  65.9610214  31.4297791  24.1025963  74.4067612
  30.8458691  24.8597984  74.4506454  32.3042488  24.4797497  74.3103943
  76.8180466  37.3548279  21.8812675  77.6239395  37.8553810  21.7539349
  76.8023682  36.7362709  21.1509438  71.7003021  52.2033501  33.5524483
  70.7496185  52.0920753  33.5457077  71.8415604  53.0786972  33.1918259
  79.6395798  61.0463829  31.3121223  80.1789398  61.4117928  30.6108418
  78.8229599  61.5439835  31.2702465  21.0350513   9.3996296   9.5554094
  20.5677738   9.0085220   8.8172235  21.5382996  10.1157837   9.1679888
  42.2250481  14.8765316  61.4660988  41.6788902  14.9582052  62.2479401
  42.7535324  14.0941782  61.6237640  76.0448990  51.4367676  41.3962135
  75.5598450  50.9923973  42.0915489  75.7194366  52.3367500  41.4146194
  82.0854416  57.3735466  31.0975037  81.9536896  56.4837303  30.7702427
  82.2889786  57.8882751  30.3165684   8.4527340  62.4076958  10.2413826
   8.2817240  63.3489418  10.2090530   7.9128222  62.0909042  10.9655151
  57.3300629  11.9896374  43.6308212  56.4756393  12.1542292  44.0297012
  57.1344604  11.4684982  42.8521156  81.6570892   4.8204474  84.4856873
  82.3509064   4.9977579  85.1208344  81.4786148   3.8848648  84.5808792
  83.3253021  50.8708191  41.7543602  83.5639954  50.9905968  42.6735497
  82.5267868  50.3436508  41.7809944  47.2789040  67.1258163  75.7591629
  48.0374680  67.7091293  75.7355728  47.4469604  66.4862518  75.0671005
   2.2377071   9.6035681  49.3217888   2.2314231   8.9641743  48.6094894
   1.3598104   9.5499897  49.6994896  46.2127686  14.3796186   5.0990210
  45.3830833  14.0713606   4.7345634  45.9663353  15.0984097   5.6811218
  22.0287228  60.2095795   6.0399799  21.5273571  59.7596474   6.7200003
  22.9355450  59.9467316   6.1975117  39.1696205  46.1734734  27.9925404
  39.1349564  45.2858047  28.3490200  39.7783165  46.6384888  28.5665455
  46.9737358  20.1640625  85.8969955  47.1408882  19.2221012  85.8653564
  46.8525581  20.3547001  86.8271561  59.0104752  62.3501015  18.0292683
  59.8328209  62.7241707  17.7129650  58.4464264  62.3236618  17.2563648
   3.6377347  57.0548668  24.6762199   3.9008200  57.8324509  24.1838989
   2.7498896  57.2501717  24.9759178  56.9542122  71.4502411  29.9362564
  56.3664627  71.3483429  29.1876602  56.3701172  71.5258789  30.6908073
   6.8577003  66.0547867  22.9120007   5.9008336  66.0295563  22.9106922
   7.1153564  65.4035187  22.2595425  83.7915268  66.4754333  68.4070587
  84.1924515  67.1653366  67.8783569  83.0326767  66.1929245  67.8965988
  60.4157944  33.8392143  16.9424667  60.1501045  33.0103569  16.5441799
  60.8892441  33.5836334  17.7341423   2.2033231  11.9616528   3.6993504
   2.7572989  11.3872385   3.1707759   1.4155558  12.0877457   3.1704316
  22.7861462  61.2359505  80.5406647  22.6289539  60.8022842  79.7019424
  23.4195423  60.6733360  80.9862061  81.8907700  42.7119675  19.4666824
  81.8513412  43.4751511  18.8902893  82.6958771  42.2610550  19.2123146
  45.5565643  25.5063610  60.9963455  46.2404556  25.0096703  60.5471001
  44.8139610  24.9041290  61.0420341  66.3071518  55.8955612  75.2489700
  67.2613144  55.9167023  75.3222427  66.1372452  55.3295860  74.4959564
  33.8880730  23.1312962  19.2824783  34.6828194  23.0385456  19.8078442
  34.1458397  23.6993389  18.5564499  59.3573036  11.2871990  56.1338234
  59.6707840  12.1842775  56.2487755  58.9962006  11.0484247  56.9875336
  46.8048439  42.8339500  83.5657272  46.6703911  42.0009804  84.0177383
  46.3554001  43.4784088  84.1124420  41.5663948  29.3987484  78.5630493
  41.2206268  30.2382717  78.8661652  42.5133591  29.5313969  78.5195160
  73.7496414  26.5801620  61.8084259  73.2730103  27.0115700  61.0992393
  74.0022202  27.2927914  62.3954506   6.5784125  58.0164413  27.2854023
   7.2898307  58.2427750  27.8844757   5.7811818  58.2472801  27.7622318
  54.7587700   5.1696844  11.5166206  54.6395454   4.3087816  11.1155424
  53.8849297   5.4155536  11.8202372  32.0045891  41.6936302   3.1125302
  31.7162762  42.1006432   2.2955568  32.6699219  41.0604782   2.8429201
  53.6995735   6.4435768  61.1321411  53.8674774   6.5889945  60.2010727
  53.5093384   5.5077791  61.1979141  26.3229256  34.8465233   3.5234585
  25.8379898  35.6695671   3.4628818  25.6773167  34.1720505   3.3124874
  35.1588898  36.8187599   2.5223353  35.7503204  36.1504898   2.8685353
  34.8642082  36.4660492   1.6826993  37.9872780  38.0378799  88.7888947
  38.4859810  38.8352051  88.9672165  38.2584457  37.4274025  89.4744720
  58.3448143   1.0326720  23.7811909  57.7775345   1.7602549  23.5261440
  57.8429832   0.2484280  23.5590286  79.1598740  37.2263527  80.3539810
  80.0378113  37.4984627  80.6212158  78.8146439  37.9751358  79.8677979
  58.1861992   3.8300591  43.4774933  58.2921600   4.0039349  44.4127846
  57.6614571   4.5630231  43.1555557  83.1915131  17.1928234  79.8568115
  83.4962006  16.5391827  79.2274017  82.2573166  17.2872143  79.6707993
  58.9082870  26.4218864  14.1484861  59.1098595  27.2585793  13.7295046
  58.5408745  25.8848495  13.4464655  68.3882217  19.8453274  70.0017319
  67.8027267  19.9651318  70.7494431  67.9174728  20.2336483  69.2642746
  73.1514511  64.5206375  79.0276489  73.2639008  63.8703613  79.7209930
  73.5183105  65.3258591  79.3927002  49.1238594  41.7807541  38.4916267
  48.1814766  41.6810265  38.3567200  49.4676590  42.0017433  37.6260643
  54.0775337  25.2093182  51.4368782  53.4832726  25.4739056  52.1390724
  53.5536461  25.2832108  50.6391830  35.1791916  59.6783905  64.7520905
  34.3355446  59.6502647  65.2034225  35.6900864  58.9765472  65.1553726
  62.5730896  16.4178238   2.4064453  63.3125992  15.8746328   2.1338634
  62.6836967  17.2346554   1.9198409  20.4505272  64.3153458  59.9758835
  20.3367996  64.8565598  60.7571564  19.5589046  64.1287766  59.6818924
  57.2708549  39.8158417  67.7814713  57.9780617  39.3627853  68.2406311
  56.8033447  40.2894135  68.4695053  53.2985611   9.3014784  59.5207520
  53.0031242   8.7449484  58.8001823  54.2244225   9.0833836  59.6277580
  56.0506630   9.5059824  82.2695312  56.5336761   9.5674810  81.4454269
  55.1484032   9.3258924  82.0054703  14.4282713  53.6344948  26.4667225
  14.2594290  54.3751221  25.8843212  13.5752449  53.4329643  26.8513832
  79.0846100  50.3717575  24.0571632  78.1679077  50.6462364  24.0335464
  79.5240860  50.9506569  23.4342918  76.3284607  38.7167702   5.0413904
  75.6455841  38.5491486   5.6908607  76.8511353  39.4234734   5.4203491
   2.9821680  14.6465998  61.5571289   3.1723065  15.5268421  61.2327003
   2.2905853  14.7748194  62.2063637  41.6760063  45.1262856  22.5217514
  42.1146774  45.9638901  22.3726845  42.3895302  44.4936256  22.6045628
   1.8332379  23.4598846  69.8788757   1.1764851  22.7701569  69.9747009
   1.5824028  23.9198227  69.0777664  63.9858856  32.2813568  25.9144993
  64.3632889  32.0525208  26.7638683  63.6799278  33.1818161  26.0231304
  76.2218094   4.5732541  39.6535645  76.5323029   4.7650909  40.5384483
  76.4097748   5.3690729  39.1559982  30.6154881  50.9701195  36.0582657
  30.7152081  51.4906845  36.8553238  31.1497478  50.1910362  36.2126198
  66.6636429  62.6813927  73.5088196  67.2611313  63.2704544  73.9695129
  65.9637680  62.5094147  74.1387634  26.1271782   3.4414084  50.6260643
  25.1845284   3.2757232  50.6398735  26.2140713   4.3537707  50.9022446
  55.8813019  70.8991470  42.6384048  55.2414169  70.6132355  43.2903557
  56.4507561  71.5057449  43.1116829   4.3598728  69.0505142  41.7411766
   4.1909313  68.3625641  41.0974274   5.1360416  69.5026398  41.4104500
  61.5583572  28.9366341  23.5343018  61.0435791  29.6431313  23.9242992
  62.3084679  28.8352547  24.1202106  25.4071312  21.5490208  84.4566803
  25.1337070  20.6676140  84.7108307  24.7901554  22.1291561  84.9027939
   9.4087276  63.1940727  30.9663315   8.7077169  62.5671921  31.1447506
   9.6889076  62.9923820  30.0735550  10.0140619  51.1474152  15.1354818
  10.6471891  51.8639259  15.1801033  10.5478354  50.3536224  15.1703310
  73.2469559  65.2364731  36.9098511  73.2206192  65.6909790  36.0678520
  74.1255264  65.4095535  37.2480736   0.7511651   4.7229271  31.3361740
   1.0720869   5.1634455  32.1230545   0.2589894   3.9712744  31.6663437
  37.5644188  41.3104744  83.5339203  37.6334763  41.6368446  82.6367340
  36.8162422  41.7800293  83.9026718  11.6431379  47.2916565   7.5140214
  10.7893991  46.8719711   7.4080720  12.1761036  46.6390762   7.9682469
  63.0948067  28.8869247   3.8500018  63.6682663  29.2368126   4.5318794
  63.4360657  29.2580585   3.0363472  19.1191788  15.9848299   3.2075624
  18.4901352  15.3168392   3.4801874  19.3345222  15.7562180   2.3033526
   5.1953425  14.6626024  12.7123232   5.6481309  14.1273537  12.0606155
   4.7494488  15.3372564  12.2002182  42.1294823  31.7965450   8.4792280
  41.3186760  32.0992355   8.8881359  42.0696793  32.1018410   7.5739942
  61.3589134  45.7312546  78.6025391  61.1866226  46.5865860  78.9961853
  62.1019249  45.3853188  79.0970001  44.1952896  35.5057564  11.4312897
  43.7543869  35.6642990  12.2659750  44.1770172  34.5543556  11.3276806
  33.8136330  59.7279434   7.7631373  34.0516281  59.6583023   6.8386154
  34.4044647  60.3948517   8.1129713  65.1646957  62.0440903  59.3754387
  65.9298096  62.2844276  58.8528786  65.5296860  61.7081184  60.1940575
  38.3448029  15.1264362   8.3346004  37.8018608  15.5754328   8.9825554
  39.1304016  14.8692932   8.8172436  64.3844604   4.6979594  34.0732918
  64.3385925   4.2948027  33.2063446  63.7553596   5.4184275  34.0359764
   8.7612247  63.2497864  62.9456367   9.4397583  63.6238136  63.5077095
   8.0066290  63.8264885  63.0649376  67.8582687  49.8019295  85.0945587
  67.8443146  50.7363586  85.3016281  67.9817657  49.3710060  85.9403000
  51.4488945  41.6575203  24.4004021  50.5639038  41.6197052  24.7631569
  51.9256325  40.9659309  24.8593712  83.5751266   0.3365512  79.2019272
  83.7880859   1.1672438  79.6271744  84.4202042  -0.0988808  79.0901947
  79.3454361  25.2981319   8.1531715  78.8367004  24.4874802   8.1693907
  79.9014664  25.2475567   8.9306707  84.4973602  65.6327896  85.8601608
  85.1692963  66.3032532  85.7368088  84.9881058  64.8164215  85.9547348
  54.9368134  49.0911255  14.5778122  54.3202896  49.6289825  15.0746365
  55.3379517  48.5197639  15.2326946  31.7566776  47.9103355  70.1918030
  32.0328140  47.1598129  69.6657867  32.3120422  47.8743134  70.9705887
  84.4855270  43.9857750  49.6233482  84.5979385  43.3902435  48.8824463
  83.5866394  43.8364105  49.9164619  67.5318756  27.2111034  22.8833790
  67.3973007  27.8921051  23.5424366  68.4724045  27.0351238  22.9094067
  55.6286850  40.4629402  27.0647392  56.0598564  39.9063301  27.7132034
  56.2686386  40.5470848  26.3579082  20.5159912  10.8026562   4.4585128
  20.6368351  11.6657724   4.0627112  20.1475086  10.9850197   5.3229179
  80.5024109  59.9010162  84.0440063  80.5120544  59.8488274  83.0882797
  79.7045441  59.4388962  84.3010788   7.7661204  61.6565857  73.9588013
   8.5723362  61.1692886  73.7891312   8.0624390  62.5372353  74.1887741
  47.9982948  66.4123688  54.6653976  47.0468407  66.4192200  54.5608864
  48.1567726  65.7903671  55.3754883  66.6088257  41.4278450  75.2814713
  67.3001556  41.4584999  74.6201401  66.4986649  42.3384361  75.5551834
  63.2666206  61.5254478  36.1648102  63.2129021  60.7365990  35.6253090
  63.6431923  62.1871796  35.5846939  21.8843307  68.2684937  88.1239777
  21.5920391  68.3062286  89.0346756  21.1640739  67.8430786  87.6586914
  23.4840050  40.9030418  55.0756073  23.8148079  40.0881691  54.6977425
  22.5666466  40.7185097  55.2771835  18.2372303  14.6397047  63.6386452
  19.0951710  15.0533791  63.5435410  17.8182449  15.1188221  64.3535767
  16.6512909   4.6959081  64.4685822  17.3151760   4.3354583  65.0564346
  16.6750469   4.1242270  63.7012177  80.9438629  25.1847610  48.1502457
  81.2444916  24.3257465  48.4468040  80.5990143  25.0275154  47.2712784
  63.9377899  31.9905739   4.1892438  63.8762703  32.3288689   5.0825548
  63.1051750  32.2324257   3.7836719  33.1632881  12.0416269  85.9943619
  34.0162163  11.6088295  85.9565735  32.9908485  12.1498432  86.9296646
  40.1227417  66.1278229   6.8082814  40.0802460  65.2219086   6.5020943
  40.9454803  66.1778183   7.2949381  37.6905022  44.3021698  71.8601151
  38.4654579  44.6589088  71.4260483  37.4128532  44.9936752  72.4609146
  56.8142738   3.0214937  22.4584751  57.0697556   2.4792604  21.7121868
  55.8655777   3.1154726  22.3726196  81.0344849   7.6767254  80.7754288
  80.8579636   6.8918667  81.2941513  80.2271729   7.8249431  80.2829895
   9.3040028  53.2575150  49.4054794   9.3325462  54.2126122  49.4621010
   9.7290449  52.9571495  50.2088203   2.8001068  44.4454384  26.6341858
   3.4168653  44.1348839  27.2970562   3.2199452  45.2203636  26.2607422
  59.6276474  36.0650215  78.6407700  59.4929695  36.6885300  79.3544464
  60.2532387  36.4976234  78.0596390  73.6268539   8.5143089  15.6132774
  72.8699188   8.9081497  15.1794834  73.4074326   7.5850601  15.6809807
  59.5716629  66.6695480  51.4446640  58.9132385  66.5792389  50.7557869
  60.1819344  67.3257217  51.1081505  73.0174332  22.3945160  13.7789335
  72.2118378  22.8467312  14.0294237  73.6236038  23.0972519  13.5445232
   1.5460796   3.4417994  40.8495789   0.8965831   2.9924767  40.3087502
   2.1008689   2.7400808  41.1902122  18.6182671   8.3917742  64.6549683
  18.4651566   8.2281256  63.7243729  19.3059940   7.7716351  64.8972321
  62.6153336  69.3269958  72.0017776  63.2539330  69.8203125  71.4869385
  62.2371864  68.7040634  71.3811493  52.2037239  54.7514496  25.2873135
  53.1486320  54.6331406  25.1904469  51.8631821  53.8658714  25.4138451
  32.8273659  63.5069695  20.0653782  32.3325539  64.2235641  20.4627247
  33.4907227  63.2831383  20.7181339  25.6843109  29.2178116   3.8149424
  26.5600491  28.8508778   3.9360723  25.1288319  28.4585629   3.6382637
   6.6186376   4.9992585  76.0084839   6.3282557   5.4922409  75.2410965
   7.3716931   5.4900236  76.3375549  65.9960785  20.1897106  36.4564056
  65.3139572  20.8612328  36.4581375  66.6141815  20.4744301  37.1295395
  68.3965225  23.0405178  81.3591385  68.5974655  22.9026852  80.4334717
  68.4629059  23.9877110  81.4801788  64.5101089  34.6305428  54.9439926
  63.6837540  34.4876366  54.4825325  64.4084473  35.4878769  55.3573647
  53.1306114  62.7927742  33.5447807  52.3298607  62.8283691  33.0215607
  53.5036316  63.6712761  33.4718399  49.6605949  52.2396660  28.8589916
  49.0181541  52.4573326  29.5343571  50.3577995  52.8852310  28.9746838
  41.8425674   2.3417046  40.2330818  41.6690750   2.7259903  41.0924149
  41.2199821   1.6179044  40.1642761  37.6607971  64.0691452  55.8670387
  37.4332848  64.5181274  55.0528603  36.8470917  64.0601730  56.3710594
  58.4082451  28.9690342  35.3466148  58.0495453  28.0989857  35.1717415
  58.1599655  29.1528053  36.2526016  48.6831818  21.8760109  72.2120590
  48.8449631  20.9335651  72.2551193  47.8190804  21.9524536  71.8074417
  35.1873016  54.0771637   5.3631735  34.7130737  53.7495155   4.5989842
  34.6039886  54.7338676   5.7435956  14.1047459   6.6081247  24.2769852
  13.2657318   6.8134804  24.6894379  14.7529802   7.0668745  24.8113747
  84.2303314  35.9507446  12.5008440  85.1236420  35.8863602  12.1630878
  84.1593018  36.8502731  12.8202801  72.5176773  61.2655029  32.3120766
  71.6685181  61.2395554  32.7530785  72.7137985  60.3493690  32.1159439
  78.2942734  33.9106255  67.2943039  78.2524490  34.1092529  66.3588715
  78.2566071  32.9551735  67.3381958  16.6405811  50.9714661  12.7188358
  16.6841602  50.5320816  13.5681152  16.5139713  50.2623215  12.0885048
  45.8652534  41.6605263  50.9091568  45.9886742  41.4158516  49.9920235
  46.5158653  42.3453369  51.0639877  56.4995041  63.5234642  23.4518261
  57.2206383  64.0788193  23.7481079  56.7932396  62.6311760  23.6356010
  78.0175552  54.9747963  53.9409676  77.8428726  55.9119720  54.0271225
  77.4110870  54.5606880  54.5549278  76.4852600  32.8373833  72.1211777
  76.1006088  33.1860352  71.3169861  76.5166931  31.8910332  71.9809418
  26.3513260  49.1609650  28.2259579  25.9131088  49.8753662  27.7635422
  25.9562759  48.3659897  27.8679352   7.4215355   7.0752439  24.1290398
   6.9239769   6.7448182  23.3810520   7.2840409   6.4223828  24.8154068
  46.7773705  21.8151798   6.0569119  46.0184746  21.2324982   6.0850563
  46.7299728  22.2287369   5.1949630  71.2503510  14.4471073  42.0586395
  70.4362335  14.1596928  42.4719543  70.9674835  14.9238710  41.2783089
  34.4456825  16.8234806  14.4746437  35.3207474  16.6637669  14.1211090
  34.3532219  16.1856976  15.1823978  33.9118843  42.8189659  24.5230904
  33.0640488  43.2256813  24.3442326  33.9886284  42.8347778  25.4770775
  52.9723549  67.3589020  10.2368612  53.1146355  67.2371674   9.2981548
  53.6575089  66.8356552  10.6527987  73.6497192  44.6332855  42.2279396
  72.9917221  44.2092781  41.6770439  74.4843903  44.4222603  41.8095818
  16.2934437  15.5720739  65.4863129  15.8694754  15.6738424  66.3384476
  17.1941051  15.8622198  65.6307373  85.3864059  61.2428551  27.2834492
  84.5709839  60.9040451  26.9139519  85.1470184  61.5372963  28.1622143
  10.5017958  27.8017635   1.4122691  11.1428986  27.4894562   2.0507710
  10.3827429  28.7272968   1.6254467  62.6352997  46.6315765  10.6622391
  62.8765488  47.3675537  11.2247038  61.7595367  46.3818436  10.9570341
  67.1815643  20.2447052   7.4547834  68.0034714  20.4916840   7.8786950
  66.5011139  20.5591488   8.0500555   7.8466244   7.9128008  70.4164124
   7.0650210   7.3649144  70.4881744   7.8450589   8.4382629  71.2164917
  65.5443497  33.9899750  51.6774940  64.6900787  34.1869469  51.2932281
  65.8934250  34.8431282  51.9353828  51.5168915  49.5496216  46.0422363
  51.3350601  49.6527023  45.1081352  51.1967163  50.3595619  46.4393730
  73.5865173   7.7091813  77.4539490  72.6672668   7.6802435  77.1886749
  73.5622177   7.6489782  78.4089508  85.7909470  60.9087830  81.7673950
  84.8595505  60.7511330  81.9219055  86.0872345  61.3773193  82.5477295
  80.9233246  46.5445824  83.8582764  81.2931061  46.3383942  82.9998016
  80.2935486  47.2445259  83.6859512  78.9520569   5.8211231  13.8974142
  78.9058990   5.9764004  14.8408070  79.3614655   6.6110616  13.5444098
  23.1645451  31.6150837  20.5223255  22.8213387  31.3493328  21.3754463
  24.1154366  31.5972862  20.6305885  48.8879623  19.1398201  23.8916740
  49.8043365  19.3875637  24.0146275  48.9263611  18.2729931  23.4874859
  61.0658112  36.8026733  67.1848526  61.0649109  36.0991783  67.8339462
  60.8959694  36.3610458  66.3527756  51.3426437  52.0389824  79.8449860
  51.4451332  51.1045837  79.6643600  52.1708183  52.2969360  80.2497330
  69.3469238  61.9206047  46.9302444  68.4233017  62.1619987  47.0001221
  69.4358521  61.1491394  47.4898605  72.0774231  13.3653364  54.5377350
  71.2301102  13.7474918  54.3091583  72.4677963  13.9940634  55.1448097
  22.3595772  40.3142242  24.8528175  21.7120209  40.3460236  25.5570145
  23.2019272  40.4082680  25.2976055  85.4189072  24.2812519  32.9571495
  84.6195374  23.9522953  32.5460129  85.9826965  24.5255013  32.2231827
  75.5148239  52.5936508  55.5004578  74.7290344  52.7323494  54.9717560
  76.1527405  52.2251472  54.8893051  48.3878212  66.2358627  44.5898514
  49.2938385  66.0484848  44.3443832  48.3115311  65.9138718  45.4880333
  52.4215698  21.6751213   6.2858791  52.8403320  22.4509010   5.9130020
  51.5591316  21.6460381   5.8716497   3.2358625  48.2753868   7.6673017
   3.4592912  48.5820961   8.5460749   3.3133428  49.0534439   7.1151614
  43.4021301  20.4084187  20.4730759  44.2110634  20.1129246  20.0552940
  42.7152367  20.1983967  19.8403816  85.2548828  66.9201431  10.2414465
  85.7400131  67.3137894  10.9666538  84.4924698  67.4875412  10.1273413
   5.0563631   3.9293680  56.9864578   4.6066566   3.8193510  57.8242493
   4.4279060   4.3976989  56.4369659   3.2130606  54.2083740  18.6177521
   2.5791125  54.9125366  18.4817638   4.0636973  54.6472321  18.6106243
  75.6754379  10.0014391  86.1085892  75.7301102   9.7597513  87.0331573
  75.2394791   9.2580147  85.6920700  37.7373772  64.6515808  61.0509796
  37.6725960  64.1783981  61.8805199  36.8410110  64.6711121  60.7157516
  57.5467072  53.0783463  18.7329063  58.3708229  53.3556938  19.1330891
  57.3254318  53.7847900  18.1261044  26.0917454  15.7838526  14.1454792
  25.8713551  14.8544464  14.0833130  27.0487423  15.8035116  14.1466961
  55.5157433   6.3034415  49.5981865  55.4092712   6.8294120  50.3908081
  56.0611229   6.8420057  49.0248222  37.4642105  40.0858116  29.3677750
  38.2264938  39.6475182  29.7459965  37.3972702  40.9094048  29.8509369
   5.0691805   6.2811451   5.7686687   5.2745395   7.1820297   5.5187359
   5.9212437   5.8492246   5.8292022   6.9391184  70.1347961  44.5842896
   7.1006088  70.8790512  45.1641464   6.1597013  70.3831406  44.0872307
  26.4881401  21.8219433   1.0047418  26.9579220  22.0585480   1.8044635
  26.3940105  20.8706989   1.0547959   2.3351717  67.8245850  51.8408356
   2.2144058  68.0643616  50.9220543   2.7476954  68.5923767  52.2365112
  58.7691689   8.1183205  54.6659393  58.5187950   7.3949895  55.2406883
  59.3417931   8.6647635  55.2042084  20.1615257  14.6529331  31.2693253
  20.4193172  15.0111370  32.1187172  20.4826984  13.7513151  31.2821674
   8.3627863  63.6212616  21.0293770   8.7642393  62.7998543  21.3128567
   9.1028528  64.2069244  20.8695908  61.2603760  63.4327850  10.4607821
  61.7544479  63.6640854   9.6742573  60.9732895  62.5326576  10.3072186
  33.0806007  51.3575211  16.6372967  32.7608261  51.7163162  15.8095016
  33.7638512  50.7377853  16.3816986  64.7154846   8.7467918  36.0645828
  64.3793030   9.2513027  36.8053169  65.5672302   8.4255228  36.3604584
   1.0854706   4.5191836  67.3241653   1.2869616   4.4199190  68.2546387
   1.7245276   5.1575861  67.0074921  86.3701248  37.4703026  35.8244286
  85.8071136  36.8899002  36.3366585  87.1232529  37.6353683  36.3916817
  70.6768036  17.8121605  21.3188381  71.4101410  18.2857170  20.9261646
  69.9003143  18.1823368  20.8989925   5.9932251  39.9626999  45.2493858
   6.2241707  40.8882332  45.1701126   5.3174853  39.9416504  45.9270058
  28.5345974  48.8511658  24.6125355  29.1351566  48.9453354  25.3519230
  28.5542946  49.7037621  24.1778812  82.4868240  68.0816727  57.5028343
  81.8587265  68.0045776  56.7846527  82.1656113  67.4732132  58.1682930
  73.5953598  60.8797569  77.5466309  73.6438904  59.9513931  77.3185577
  72.7605286  60.9701881  78.0060959   9.8870497  51.6173286  72.4567032
   9.1767197  51.2189713  72.9596634   9.6626463  51.4397163  71.5432892
  78.4393311  21.6469917   9.0124788  77.9700317  20.8253212   9.1568642
  79.1534958  21.6300697   9.6495934  54.7864456  40.3387260  50.2477188
  53.9173737  39.9408951  50.2994461  55.3862534  39.5958633  50.1797295
  71.3947601   2.7805383  85.5668640  72.2415924   2.4168553  85.8254013
  71.0404587   3.1582186  86.3718872  36.4677086   3.1869369  57.5879173
  36.4549294   3.4045947  56.6558800  35.5917664   3.4151065  57.8991928
   5.4320741  14.2349586   4.4509678   5.5724669  13.4436283   3.9310470
   4.8956017  14.7968826   3.8917983  58.2433281   2.7053833  29.7084713
  58.7752914   3.0133548  28.9747143  58.1344566   1.7679421  29.5485249
  33.6820946  46.0245132   5.2189083  32.8204613  46.4044952   5.3904629
  33.5269356  45.3818550   4.5267010  62.1978149  26.5044842  35.5453644
  61.4454041  26.7346210  36.0904732  62.0401039  25.5952930  35.2909431
  50.3416328  27.7827625  16.2196598  50.7995491  27.9449940  17.0444183
  49.9589653  28.6289272  15.9877062  20.8978558   9.4926720  66.2763977
  20.7220173  10.1242008  66.9738770  21.3527927   8.7730761  66.7139359
  77.2988968  62.2032394  80.2752838  77.5791702  62.7502022  79.5414505
  77.1378555  62.8221512  80.9874954  49.9214478  50.3451157   9.7175484
  50.5054550  50.8656654   9.1660128  50.5077095  49.7795563  10.2202158
  18.0913258  39.0289307  17.3035374  17.2889557  38.5851669  17.0287399
  18.7649231  38.3498001  17.2677193  77.6470871  62.5957756  49.1079903
  78.1378937  63.0181923  49.8129082  77.1777573  61.8808632  49.5379410
  77.4416199  31.6487637  42.6795349  76.6661148  32.2061424  42.6151199
  77.2110672  30.9926834  43.3372841  62.8259583  47.2711296  26.0338898
  63.1182213  46.3599396  26.0572834  62.3171234  47.3387871  25.2259655
   2.2693505   6.2521462   3.7081571   3.0631051   5.9118357   4.1209216
   1.5636227   5.7131758   4.0654960  61.8508492  51.6495934  35.5429611
  62.5011826  52.3285294  35.3631210  61.1308670  52.1144867  35.9692574
  19.1458130  18.0429459   5.0955157  19.9071388  17.9185371   5.6622043
  19.1638603  17.2922592   4.5019021  47.9137497  16.8348522  51.4078217
  47.9881744  17.3970547  50.6367035  47.5409012  16.0188198  51.0741997
  64.6357803   2.2546201  53.1758385  64.7436447   2.6531546  52.3122635
  64.8520126   2.9549232  53.7915115  70.5112762  44.9132957  46.9158325
  71.3861084  45.0013123  47.2941856  70.4203262  43.9771767  46.7379379
  37.0649948   6.0790367  83.7156372  36.8065033   5.7979069  84.5933533
  36.3964386   5.7091312  83.1390610  38.6187019  52.6785393  42.2492867
  38.3682175  53.5655441  42.5075684  38.5446510  52.6770477  41.2949562
  58.3469772  61.0616646  20.9163952  57.8508148  61.0038376  20.0998726
  57.7910728  60.6305466  21.5655022  79.2744064   8.6995192  73.7181015
  78.5024796   8.5277185  73.1787872  79.9808350   8.8393602  73.0875244
  12.4848089  58.1386070  75.6491776  13.2738791  58.2597046  76.1773224
  12.4000597  57.1894073  75.5593414  52.9937439  55.0532875  87.6327591
  53.3455391  55.8261986  88.0744324  53.3329926  55.1126137  86.7396622
  47.8499107   6.1772375  82.8668289  48.0075264   6.0156741  81.9366226
  47.9417725   7.1250272  82.9642410  40.0538406  47.3187637  11.6028156
  40.3581276  46.6047211  11.0426483  40.2359161  47.0187836  12.4933729
   7.1335545  17.5546722  79.4431305   7.0405517  17.1239834  78.5933762
   6.3924956  18.1588821  79.4878006  30.2201290  70.3750381  30.7633801
  30.1816788  69.4625549  30.4768085  30.2573433  70.3247528  31.7185326
  44.4725494  61.0850449   2.9716196  44.4767151  60.6158066   2.1373351
  44.8004341  60.4479980   3.6063583  85.7124023   5.0838351  34.5835228
  85.4579926   6.0056291  34.6260147  86.6013489   5.0968156  34.2287979
  64.1161957  52.7920265  66.1909332  64.2365265  53.5458527  66.7684326
  63.8823280  53.1734772  65.3447495  29.4812489  65.7696152  55.4662933
  29.8760471  65.1048660  56.0306206  29.8944435  65.6357727  54.6133041
  40.7385406  55.9485092  31.4462166  41.1062775  55.0806618  31.2793541
  39.9530334  55.7797890  31.9665470  30.3003674  45.9003029  15.5047550
  29.6036224  45.5241737  16.0426254  30.5372982  45.2005577  14.8961058
  11.9746847  19.8116550  77.7760620  11.9422636  20.7529411  77.9468231
  12.4017000  19.4425526  78.5491409  74.7525177  24.3303013  46.3795090
  74.6018677  25.0677052  46.9709244  74.9121399  24.7356052  45.5271721
  69.6429214  27.4807053  34.6213951  70.3554535  27.7054996  35.2197189
  70.0792313  27.2846718  33.7922783  19.1591530  70.9754486  13.9435377
  18.2604256  70.9272690  13.6176510  19.6684551  71.2888870  13.1961460
  11.7057629  70.5927734  21.5516548  11.0660877  70.6703339  22.2594891
  12.5162249  70.9425278  21.9218597  16.1146526   8.7847128  21.8995323
  15.8841686   9.7091732  21.9916344  17.0700951   8.7806921  21.8416767
  32.3847809  61.5620728  71.1076965  31.9311924  62.2577362  70.6317368
  33.2947197  61.6275826  70.8179550  22.6316032  51.7830276  45.4715233
  23.2389088  51.6243591  44.7488632  23.1955833  51.9186058  46.2329559
   1.3643979  22.1598244  22.6038303   1.7216350  21.3655930  23.0010834
   0.6180828  22.3896694  23.1573811  73.4174728  51.9042244  12.6729326
  72.7740784  52.5831070  12.4694757  73.2708511  51.2290268  12.0104818
  73.4700317   7.3798962  50.8143997  74.3535919   7.0117297  50.8111458
  73.5268097   8.1336746  51.4016190  63.2468300  23.9812145  35.1222534
  63.5415535  23.4960823  34.3515282  63.0515366  23.3048286  35.7707863
  72.9048233   5.0111055   4.7022038  73.4108887   4.7715812   5.4785805
  72.6712570   4.1740613   4.3009129  28.6301842   0.9127344  88.7484741
  28.4825363   1.5776200  89.4210510  29.5480537   1.0228574  88.5002365
  62.2202988   7.2906213   0.5640166  61.4579735   7.1503549   1.1256393
  62.9262009   7.5154767   1.1701285  13.3721609  24.7608528  65.1555328
  14.0736294  24.2035103  64.8185730  13.1007090  25.2857933  64.4025497
  19.2563457  60.1017456  58.4795532  18.8461037  60.3003235  57.6378326
  20.1893978  60.0267944  58.2794876  45.2300262  64.1927719  71.5245438
  45.5796089  64.7911377  70.8642578  45.7426605  64.3783188  72.3113174
  15.6655378  53.8886604  63.5327072  16.3091145  53.6401520  64.1962433
  15.5288887  53.0912819  63.0210991  76.8267059  16.7135429  56.9640465
  77.0570831  15.8054657  57.1603966  77.6305389  17.0932045  56.6091537
   2.3934810  70.0834503  79.3358231   3.0234902  70.4408951  78.7100830
   1.9745431  70.8534698  79.7202682  52.7290993   1.9645931  81.2893829
  52.2845154   2.7813988  81.5161133  53.0729790   1.6400678  82.1216431
  21.1090584  69.1507797  63.3786087  21.1690044  70.0917130  63.2134209
  21.7543869  68.7623215  62.7879524  46.2595978  41.4953117  58.7776337
  46.9784317  41.9451408  58.3335991  45.7721558  41.0688515  58.0728188
  78.7284622  32.4215012  19.4042931  79.5134201  31.9089546  19.5975971
  78.3048172  32.5405769  20.2543392  44.0237198  42.9509239  81.7448273
  44.8696671  42.7019043  82.1171036  43.4309044  42.2455940  82.0042648
  57.7886810  23.4852562  56.4984741  57.7866440  22.5903511  56.8381424
  58.6362457  23.5740757  56.0626144  85.0403061  63.8604813  75.8408051
  84.9721603  63.6299324  74.9142914  85.9599838  63.7085724  76.0584030
  25.9899998  50.6781960  48.3033524  26.6436558  50.7160454  47.6051178
  26.3582687  50.0691795  48.9434395  49.5370331   4.2815170  49.8087120
  49.7055855   4.2840562  50.7509537  50.0805893   4.9910927  49.4662552
  12.3730125  15.0088911  78.5804443  11.5735550  15.5291176  78.5000458
  13.0811987  15.6522884  78.5531769  32.7564621  62.2618752  37.6657524
  33.6942940  62.4533424  37.6594734  32.4986076  62.3575706  38.5825882
   6.8716149   8.8865194   8.2639542   7.3589220   8.8937778   9.0877943
   7.1882062   9.6565218   7.7916212   2.5733962  71.1303482  50.7864838
   1.8614893  71.4757538  51.3251038   2.1622093  70.4494324  50.2540245
  25.2231998  41.0844002  62.2027054  24.2672863  41.1179161  62.2392578
  25.4178200  40.7494583  61.3273964  36.1912956  35.3552933  74.9044724
  35.8195343  35.5666466  74.0481110  36.9854279  34.8594818  74.7050705
  70.0288849   0.0777640  37.7470779  70.3013992  -0.1609356  36.8610802
  69.3291702   0.7180747  37.6181145  57.0295715  55.4218330  32.9866104
  56.3691826  55.2254715  33.6511078  57.6778908  55.9571915  33.4441071
  59.6522484   4.1277657  84.4450912  60.0556259   4.0136418  83.5845718
  60.2109070   4.7659698  84.8887482  44.2426605  22.8972836  61.4997177
  44.9287529  22.5400925  62.0635643  44.0511856  22.1932545  60.8801079
   4.3464956  28.9297428  81.9619904   4.9704986  28.2610416  81.6796951
   4.4051924  28.9240398  82.9173737  45.5470276  14.4095526  69.7622299
  44.9805298  14.3138475  68.9966202  45.2173729  15.1897974  70.2080688
  71.0907440   6.2827210  50.9939651  71.8292770   6.8893423  51.0470543
  71.1332321   5.9308844  50.1047859  49.3548355   4.3496966  84.1359558
  49.2962990   3.8194745  83.3411789  48.8701820   5.1483288  83.9273148
  21.9475136   7.9433475  71.1143265  21.2474613   7.7530684  71.7387848
  22.1522350   8.8672609  71.2582169  62.2092857  10.2508583  46.8964806
  61.7422943  11.0850964  46.9433517  62.7179565  10.3062401  46.0875168
  27.1524944  51.8640289  64.2282715  26.9027290  50.9400101  64.2345810
  26.7682076  52.2105141  63.4229736  74.2906342  46.6565247  31.4202042
  74.9440460  46.9367714  32.0611000  73.4900513  47.1128616  31.6791553
  85.2860641  64.4176636  80.2870865  85.1318512  64.9608383  81.0600128
  84.5440826  63.8132553  80.2671890  30.8116226  20.7794361  10.4929752
  30.6927280  20.0113239   9.9343166  30.9635944  20.4189892  11.3665962
   0.4772301  37.6816444  53.9134560   1.4231842  37.5387421  53.8821297
   0.2194037  37.7801628  52.9969101  63.8293953  16.0094624  87.0040665
  64.4451065  16.6334343  87.3885040  63.0436668  16.5265999  86.8267746
  27.4558468  54.3952827  58.9688568  28.3039627  54.8389587  58.9779625
  27.4664173  53.8748360  58.1655807  51.2933083  27.3350830  87.3607559
  51.8159828  27.9099159  86.8016434  50.4067955  27.3962708  87.0049667
  61.3002396  28.1064472  67.3155060  61.2381210  27.2020626  67.6228561
  61.9317627  28.5172367  67.9059830  69.0553818  45.6382179  13.6587563
  69.8256683  45.7999229  13.1140089  69.0988846  46.3089828  14.3402338
  69.7113571  68.2769852  32.4074669  68.9409409  68.8024597  32.6232529
  70.1243210  68.0991364  33.2524910  19.3951702  27.4643326  87.4721680
  20.1049213  27.0889549  86.9510345  18.6733131  27.5703983  86.8525696
  21.0907440  21.2516632  73.0159149  20.5239849  21.4946079  73.7480316
  21.2498550  20.3155251  73.1365891  43.8869781  47.8602905  49.8942757
  43.8799438  47.6726799  48.9556694  43.6390076  48.7827492  49.9560127
  40.2886772  49.1604233  40.6197052  40.7821884  49.7407227  40.0401077
  40.8106117  49.1219597  41.4211617  67.6837158  52.3268356  81.4453812
  66.9534225  51.8945885  81.8881760  68.0767670  51.6406555  80.9060287
  49.4919205   5.6668625   8.7961435  49.3537025   4.9496870   9.4148417
  49.9123535   6.3528495   9.3146906   9.2564497  55.9293060  49.9483566
  10.0666504  56.3164101  50.2799530   8.6551638  55.9580307  50.6925735
  67.2730637  15.2335930  73.3530807  67.8395386  15.8783875  72.9293213
  67.8308945  14.4645109  73.4695663  30.4906521  11.0933180  11.8708029
  30.1208935  10.9291840  11.0032940  29.7478313  11.0061750  12.4681768
  18.6619282  68.1481628  56.8091545  19.2105770  68.2015991  57.5916901
  17.7661114  68.2152634  57.1396751  32.7139969  55.0463257  65.3738480
  32.7367897  54.5541077  64.5532227  32.4728470  55.9352646  65.1133347
   5.9284854  41.1007385  74.7284012   5.3746738  40.8285255  75.4601288
   6.8212075  40.9234619  75.0247955  43.8329849  54.3965683   6.6684484
  43.6713066  53.5916901   7.1606460  43.2402649  54.3420601   5.9188199
  86.6134644  30.0876980  68.4947891  86.2586670  30.1716652  67.6097488
  86.6686096  30.9873238  68.8170700  69.5464325  27.2135315  38.5952721
  69.9659042  26.3531494  38.5997772  70.2668839  27.8318768  38.7170563
  24.1075954  31.2899609  23.6564846  23.9236794  31.0700836  24.5697536
  24.9490395  30.8716621  23.4741955  85.9046783   7.8704929  33.4802399
  86.0103378   8.7950859  33.2561989  85.4550781   7.8786688  34.3252373
   8.7968082   3.1480877  67.2542114   9.4944124   2.5202210  67.0661545
   9.1323881   3.9834778  66.9290314  72.9576187   9.6076584  52.5300331
  72.1971970  10.1730375  52.3946114  72.9385071   9.4002323  53.4642906
  52.3419647  23.9640369  45.1755981  51.6419678  24.5947227  45.0068703
  52.6442680  23.7033062  44.3056183  62.7103462  42.5462685  81.5810852
  62.4622345  41.9611130  82.2968140  63.4231644  42.0895119  81.1344376
  85.3239822   3.7263038   3.8757787  85.8593140   3.9276826   3.1082509
  85.6327209   2.8674901   4.1644855  45.2838249  66.9357681  32.9674835
  45.0042801  66.4206543  32.2106857  45.6510544  66.2918320  33.5730629
  18.1739368  50.9005699  34.3699455  18.9529915  51.2958603  33.9787292
  18.1175041  51.2937393  35.2408447  46.7304306  26.2203007  11.4380445
  45.9884415  26.0870762  12.0279045  46.4087334  25.9396362  10.5813227
  68.9683456  34.6823463  36.0284119  68.8916702  34.2642212  36.8860397
  68.4697418  34.1153488  35.4400787   4.9147687  54.0643082  60.5509605
   4.9829612  55.0142136  60.6471939   5.8029819  53.7433929  60.7069206
  80.9097977  69.5646439  75.1928253  81.1012573  68.9855804  74.4550858
  81.5057373  69.2766495  75.8843002  19.3878384  48.1960106  56.1973724
  18.8756580  48.9279594  56.5411110  18.7803192  47.7258644  55.6263046
  52.4900017  44.9734154  84.5751038  52.5107841  45.2851982  83.6703415
  53.0434570  44.1924477  84.5720901  30.6582127  22.7992668  78.6485367
  31.1093864  23.3343067  77.9955444  29.7715168  22.6966324  78.3028946
  42.3611794  21.1017475   0.2387164  41.7316818  21.8120461   0.3629844
  42.1421585  20.4657345   0.9197096  39.2428436  57.1039009  18.8591080
  38.8527069  56.6748085  19.6206226  38.7679291  56.7421379  18.1108990
  38.8427773  51.3460655  11.0762157  39.6091347  50.8257027  11.3173523
  38.3002281  50.7489243  10.5611458  77.7089386  23.5106964  55.7159462
  78.1355667  23.8351517  56.5090065  76.7802124  23.7005920  55.8487892
  55.9361458   7.7797489  72.6119308  56.3995399   8.5115404  72.2045288
  55.1813698   8.1831160  73.0407028  32.0327492   1.6267780  46.1559448
  32.8959160   1.2425146  46.3092804  31.4563999   1.1745993  46.7720528
  28.9282475   7.2420173  82.2183304  28.2411785   6.6013880  82.0345840
  29.1773701   7.0721364  83.1267929  57.3520317  10.8487501  27.6867561
  56.7567101  10.1515083  27.4116631  57.2952499  11.5013952  26.9888573
  52.5698013  38.4202042  59.9477959  51.6415443  38.5332146  59.7433624
  52.6427612  38.6613388  60.8712502   5.7478251  39.7624741  89.1090012
   5.1721234  40.3683281  88.6423798   6.0623035  39.1622124  88.4329681
   1.0752027  59.2798500  62.9625816   1.1855122  58.5388756  63.5584145
   0.2237383  59.6498909  63.1956253   1.5657817  26.2799797  19.0046768
   1.4236027  25.7785206  19.8075199   0.9694127  25.8864689  18.3677120
  39.3324203  26.2281837  42.0120926  38.8139038  26.1290894  42.8105621
  38.8705063  26.8981953  41.5081596  45.4383698  60.5911369  32.9630165
  46.2072563  60.9386711  32.5110550  44.7654648  60.5376320  32.2843628
  40.3353615  15.8106203  11.6681023  40.1789703  15.6027393  12.5892754
  40.5177803  16.7502575  11.6622419  53.2538567  28.9106369  65.1058273
  54.0339317  28.3884258  65.2929382  53.5892296  29.7922134  64.9427948
  19.4375801  23.3345814  26.5042324  18.8981457  23.8106995  27.1355438
  20.2733040  23.8012695  26.5032158  72.4062729  70.3738937  74.4018250
  72.8726501  70.5918732  75.2088013  73.0838089  70.3756409  73.7256775
  53.2234459  44.8204346  65.1504211  53.4145012  44.3860016  64.3191528
  52.9956665  45.7172127  64.9051895  40.6742401  64.1589813  88.6703568
  41.4131203  64.0436172  89.2678299  40.0320435  64.6562653  89.1768494
  59.6953773   7.4387474  37.6441460  59.6796188   7.2831249  38.5884781
  60.4727478   7.9792290  37.5034103  16.8994675  48.7409286  35.5120163
  15.9720764  48.6453743  35.2951088  17.2509003  49.3008385  34.8197517
  75.1127472   6.3703265  81.4930496  75.5080643   7.0405135  80.9355469
  75.4784622   5.5458689  81.1725006  -0.0396680  58.4002914  28.2256031
   0.3757498  58.5423126  29.0761852  -0.3110110  59.2735710  27.9427814
  55.0931282   5.0110607   0.5672351  55.7425308   5.6665945   0.8217634
  54.4150276   5.5099602   0.1117019  37.5460472  62.3402977  33.3260651
  37.9411926  61.6201591  33.8174820  36.8132095  62.6280403  33.8704796
  33.6873169  54.5998878  62.8488617  33.7656288  54.3365631  61.9319344
  34.2322235  55.3835983  62.9203644  22.9187527   3.1042612  16.3427925
  22.5522861   2.2246885  16.2517586  23.5454922   3.1782715  15.6231041
  67.8893051  54.4627266  37.4152145  67.8366547  54.8344955  38.2956963
  67.0408554  54.6625786  37.0197144  74.7010040  15.7139626  49.1595383
  74.6463928  15.6848049  50.1147346  75.5027847  16.2051563  48.9803581
  22.8854237  57.3214035  66.9845657  23.0726986  56.7554054  66.2356949
  22.8559570  58.2043190  66.6160278  28.4336872  16.3236351  88.0840530
  29.2124310  16.8795986  88.0576935  28.4777870  15.8898964  88.9361954
  17.4865093  65.2232132  85.1638184  17.4599857  65.0325165  84.2261810
  16.5721416  65.1782074  85.4433441  25.1960506  12.9995747  83.2485504
  25.7139969  13.7829695  83.4336319  24.3021832  13.3238659  83.1386871
  72.9793167  18.2554836  66.5801849  73.0346298  18.4248981  65.6397247
  73.8129272  18.5703869  66.9297104  39.2750664  39.6955681  37.6515121
  38.6298828  39.2092018  37.1382675  39.6981392  40.2746849  37.0175858
   4.3593183  46.9970932  11.4302578   4.3868103  46.5014877  10.6118116
   5.1505318  47.5354614  11.4109478  53.8300476  41.8336411  60.4430618
  54.4545975  41.4478645  61.0573463  54.1783104  41.6152649  59.5786209
  77.6172562  41.2545586  36.5169334  78.1946259  40.7336960  37.0751228
  77.3874969  42.0139389  37.0524635  45.8979568  35.3681602  70.7757187
  46.5274734  35.5102768  70.0687943  45.0957756  35.7922478  70.4709396
  64.5983505  26.7933960  39.5450401  64.6186981  26.0029583  39.0055733
  65.5013046  26.9032726  39.8430786  84.0154953  21.4243507  65.6041489
  83.8044281  22.3492413  65.4766312  84.7197189  21.4265633  66.2524414
  73.2795334  69.4365082  54.7054443  72.7853012  69.3001328  55.5137558
  73.9821930  70.0375824  54.9528580  59.6933975   1.2812972  58.3652687
  60.4094048   0.6626310  58.2209854  60.1247063   2.0805013  58.6677208
  80.0514755   7.6541471  44.1354446  80.0351868   8.5900755  44.3354568
  80.0676270   7.6138191  43.1792297  56.5965576  51.5638008  45.0255814
  55.6686974  51.7936630  45.0752983  56.6799812  50.7843513  45.5748787
   0.5760644  65.6946869  33.6082916   0.5107763  66.5504150  34.0322037
   1.4915019  65.4397202  33.7231598  60.6029701  27.5833588  61.3604279
  59.9714394  26.8695068  61.2720032  61.1915131  27.2973099  62.0590134
   4.3471413  56.1441040  86.5038986   4.4978604  56.8817978  85.9128723
   5.2103834  55.7456017  86.6145477   1.3659363  17.7679234  19.9463673
   1.7678131  16.9416256  20.2146149   1.2007530  18.2315578  20.7673359
  35.3895226  39.5215187  77.3816071  35.6611481  40.2568359  76.8322830
  35.1097145  38.8490868  76.7604904  26.8621941  36.4708176  78.0408859
  26.5217514  36.4322853  78.9346695  27.3022099  37.3192749  77.9885559
  71.2242279  16.5076027  46.8548927  70.7736282  16.2164688  46.0621529
  71.3691788  15.7052631  47.3563614  44.6308327   9.4856186  60.7622261
  44.9101639  10.1427755  61.3996849  44.3803444   8.7290039  61.2923393
  58.3094749  44.5448685  60.5996895  59.0362549  45.1320648  60.8075829
  57.8096046  44.4849052  61.4137955  38.7979202  34.9568596  24.3878803
  37.8854980  35.2461739  24.3845825  38.8480911  34.3308907  25.1102924
  25.1942120  68.2882767  75.5307388  24.3473225  68.1765289  75.0988541
  25.1281452  69.1351242  75.9720078  29.5862026  34.7890053  15.8918686
  29.2841396  34.6904564  16.7947960  29.0489178  34.1750832  15.3912115
  14.9007320  69.3450851  21.2864552  14.5551319  68.8660507  20.5332508
  15.0639257  68.6701050  21.9452419  77.5431900  29.1615639  84.4294586
  77.4726181  28.2074623  84.3987656  76.7096024  29.4748039  84.0783844
  59.1565666  14.3118820  14.6820154  59.8986397  13.8063974  15.0137482
  59.4895058  15.2063475  14.6091051  84.0539398  41.1980247  21.8646221
  84.9136276  41.2542419  21.4474716  84.2404709  41.2300453  22.8029270
  69.0024719  54.8328209  17.1385345  69.3792953  54.0493393  17.5390244
  69.7217636  55.4642105  17.1244755   7.4713683   9.5585356  81.1624146
   7.6348166  10.4001045  80.7366409   7.5879502   8.9115047  80.4667130
  66.9933319  39.9184151  28.6836624  67.3345413  40.0881882  27.8056049
  67.2722855  39.0241165  28.8802490  34.3236847  15.2210541  16.9474792
  35.1542931  15.3181524  17.4132023  33.8652382  14.5248680  17.4179897
  16.0434017  37.4179802  80.8371201  15.2451143  37.9417839  80.7693100
  16.6257877  37.7815170  80.1701126  66.7200317  31.7085686  80.6798325
  66.3317719  30.9253559  81.0697784  66.0823364  32.4019356  80.8495941
  67.4949112  56.3043289  71.5739365  67.9881134  56.6673584  72.3095932
  67.4051590  57.0348549  70.9619675  31.6496925  25.0756187  68.9845734
  31.9109344  24.1632462  69.1093140  32.1305962  25.5566711  69.6580353
  49.0872192  60.8019485  73.0303726  48.3030472  60.6161041  72.5138702
  48.9287872  61.6694450  73.4026413  28.0786972  50.3307190  53.7565231
  28.8710861  50.6509666  53.3254852  28.3902054  49.6558876  54.3596764
   2.8069606  48.8875046  30.8866730   2.4528458  48.3948326  30.1463280
   2.1843293  48.7328606  31.5970592  18.0306263  46.0007172  75.3199005
  18.9543056  45.7619972  75.3977509  17.5714130  45.3621559  75.8654251
  37.2736206  68.5193176  64.9974289  37.2615814  67.7091675  65.5070877
  37.9803810  69.0355911  65.3849640  76.5566406  60.9767685  87.3713837
  76.1569977  60.6384888  88.1726837  77.4198608  61.2858429  87.6462784
  23.4771061  36.6764641  26.9844379  22.7742672  36.8991165  27.5949097
  23.7604961  35.8027611  27.2538166  46.7371521   4.2897482   5.3540611
  46.5913925   4.0273895   6.2629910  46.0811462   3.8021863   4.8558960
  64.5909576  66.2668762  12.6185217  63.6453552  66.1332397  12.6834145
  64.9264526  65.4401398  12.2718420  55.5522385  47.0926437   6.3279524
  56.2703629  47.0118446   5.7002563  54.7964973  47.3427086   5.7963910
  75.9892502  12.9366894  45.9565659  76.7178574  13.2843533  46.4708557
  75.2101593  13.1508446  46.4697723  13.6763468  17.1321774   0.9064448
  14.1896286  17.1192074   0.0986051  14.2069092  16.6428928   1.5352019
   0.4754695  60.5237541  30.2833118  -0.0438451  60.3518295  31.0687962
   0.8792025  61.3764496  30.4449959  38.2447090  37.9663582   3.6422403
  38.6748085  37.6500740   2.8477521  38.9648399  38.2174606   4.2206821
  30.6830482  45.4701004  51.8645897  30.6073856  46.4076576  51.6871300
  29.8083782  45.1221390  51.6910706  48.1101990  66.7963333  39.5912285
  48.6185112  67.1678238  40.3122330  47.2239380  66.7102127  39.9424477
  86.1160660  55.2119751   4.9304895  85.9600296  56.0282173   5.4054947
  86.4985352  55.4887733   4.0978265  82.4563370   0.8150774   4.4371853
  82.5363235   0.7170734   3.4883811  81.9756851   1.6346172   4.5536437
  83.6216049  45.0075607   3.2111084  83.8628311  45.5925713   3.9293017
  82.6712875  45.0964050   3.1387186  44.8595924  32.3545380  32.5116730
  44.8764267  31.4672470  32.8703651  44.2169304  32.3144150  31.8034286
  36.7631874  19.8555756  19.2873459  36.6484261  20.6568146  19.7983055
  37.5898972  19.9843693  18.8223763  72.0872116   4.9322839  80.7858429
  72.2144394   4.5289655  81.6445465  72.9348221   4.8412743  80.3505249
  53.3079262  34.1276016   6.2913828  53.2971725  33.1740570   6.3742566
  52.5814743  34.3248367   5.7001147  35.1510506   1.6145471  61.7951164
  35.7046356   1.0619351  61.2433968  34.3773727   1.7893295  61.2592926
  16.4323006  56.3452339  75.7505875  16.3188572  56.9804497  76.4576035
  17.3530788  56.0892334  75.8040695  49.1964035   2.0355434  62.5798607
  48.5732956   1.3831595  62.2599182  49.9877167   1.5344081  62.7771492
  54.2170830  40.4578629  72.4742966  54.9100418  41.0852852  72.6801529
  54.3601074  39.7343140  73.0844193  45.9814720  60.4618492  64.6434250
  46.9380150  60.4295464  64.6580658  45.7190285  59.6194000  64.2724304
  17.4462414  43.2565422  59.0326424  17.0825691  43.1406631  59.9104500
  17.1934471  44.1456795  58.7841110   3.3735168  61.0043602  85.8698654
   3.2399359  61.0161705  84.9221039   4.2415218  60.6175346  85.9846039
  13.3338785  29.5770836  75.4856949  14.0487232  30.0264702  75.0348358
  12.6626225  30.2497597  75.6003876  84.9522858  24.0978699  35.6031914
  84.9140625  25.0236778  35.8432922  85.1005478  24.1016064  34.6575470
  80.9851913  36.3293228  27.2646999  81.3836441  37.1945038  27.3591671
  81.4268341  35.7893715  27.9201641  22.3654976  44.9390106   2.1623986
  22.8173904  45.7589531   1.9630978  21.7649574  45.1631660   2.8732693
  47.0752106  34.9349365  13.9354591  46.3631134  34.2963753  13.9727192
  46.6398544  35.7839355  14.0122843  81.5561218  49.6105728  85.5231705
  82.1343994  48.9975243  85.9770432  80.9032364  49.8544502  86.1792908
  66.1151581  53.3431778  57.2290459  65.3412018  53.8565903  57.4606323
  66.7523270  53.5485458  57.9132042  19.6197567  49.5410347  10.7505217
  20.3468380  49.1512489  10.2650843  20.0375099  50.0042114  11.4765930
  86.2243576  53.7294540  26.6780167  85.9933395  54.6449051  26.8355331
  86.1052475  53.3029442  27.5266247  62.1255913  10.1151295   4.8932042
  61.4731178  10.2779942   4.2120390  61.9676170  10.7985649   5.5445042
  72.7635574  31.2751770  10.6520052  72.4270630  30.7527504  11.3800688
  73.6746216  30.9968777  10.5584860  29.2423229  37.9254684  62.8066788
  29.2099571  37.1748924  63.3998222  28.3482475  38.2673111  62.8039474
  58.2433510  34.8636246  39.3688469  57.4246368  35.1700974  39.7587395
  58.9128189  35.0770683  40.0188332  29.1248760  46.1125069  35.7783928
  28.2566833  45.8678818  36.0987549  29.2599735  47.0011597  36.1074448
  45.6373596  65.8096466  10.9145308  45.8205109  66.0398865  11.8253956
  44.9373550  66.4075851  10.6524410  29.6548214  42.6856461  81.1360397
  28.7316933  42.9374275  81.1100616  29.8565063  42.4219322  80.2382584
  82.4240494  41.8559875  84.0602264  81.4812164  41.8892975  83.8983917
  82.7784653  42.5937538  83.5639191  52.6508751  54.0767136  20.9226170
  52.6242485  53.1498718  20.6849575  53.3647003  54.1408691  21.5571003
  46.2622032  12.6284485  10.2152634  45.4596100  12.5148659   9.7061710
  46.0210800  12.3672409  11.1040058  26.2401276  61.1472511  10.3318892
  25.5162697  61.6369858   9.9414787  25.8150997  60.4609566  10.8462696
   4.1588292   7.2563286   1.3325233   3.5043862   7.1851792   2.0274148
   4.8177071   6.5988674   1.5558093  23.8506031  25.3656178  68.3398132
  24.5437126  25.5294247  67.7002792  24.0044746  24.4682350  68.6352081
   2.9958384  13.3238459  55.4665909   2.3686414  13.8366671  55.9763641
   3.8519280  13.5918846  55.8005028  53.5172081  13.6518641  21.8160267
  52.8852158  14.3643751  21.9116364  54.3713341  14.0813599  21.8633232
  10.8700953  45.0035553  25.4627228  10.2390566  45.7101898  25.3260136
  11.2156029  44.8187065  24.5894032  75.5279312  54.4416695   6.3874111
  75.0743942  54.0034142   5.6673603  74.8389359  54.9199753   6.8486581
  65.0399475  68.1431046  80.5568161  65.7614136  67.5248642  80.6729660
  65.4343796  68.8894272  80.1055222  79.8720932  69.1753235  44.5374870
  78.9593964  69.0545120  44.7994232  80.1284027  70.0058746  44.9383812
  14.9144735   7.8436108  13.1929951  14.8800278   7.1177521  12.5699587
  15.7531910   8.2702360  13.0175657  41.4059868  32.9515038  17.9219837
  40.7408562  32.6526604  18.5420837  42.0420303  32.2368965  17.8901119
  73.0185852  41.3573914   8.6463051  72.0818481  41.2021484   8.5252123
  73.4427490  40.6306000   8.1901340  21.1291904  42.2443504  67.4579391
  20.5342712  41.5953064  67.0823822  20.6469460  43.0695724  67.4061508
  53.1791611  16.0784283  50.5527687  53.6286430  15.2949562  50.2359505
  52.4057198  15.7437754  51.0066681  75.7772980  35.4857826  88.0095596
  75.8023682  36.3917961  87.7017593  76.3435059  35.0104942  87.4014969
   1.7807993  43.6472397   9.3904276   1.5972157  44.5854263   9.4387684
   2.4790215  43.5065536  10.0299006  52.4433060   7.1769133  84.3305206
  51.6145020   7.2007742  84.8087921  52.9371834   7.9233871  84.6697769
   4.4373631  31.9704933  82.9285583   5.0091834  31.4707527  82.3458786
   4.6959205  31.6984234  83.8091049   8.2318478  67.5011673  38.5695572
   7.4661741  67.6613617  38.0179100   8.9752645  67.5553284  37.9690323
  47.0323715  56.9106712   8.2343578  47.7413521  57.2716484   7.7021227
  46.8819313  56.0373993   7.8724308  57.6638489  55.3684235  17.1285992
  57.5505638  55.3960381  16.1785278  56.9332237  55.8827248  17.4719772
  79.9079971  54.8191185  80.1974945  79.4964371  54.9969025  79.3517685
  79.2216034  54.9980278  80.8402100  82.5202484   9.9005995  14.3395910
  82.5599899  10.6613235  13.7599783  82.8625259  10.2180471  15.1752396
  50.3746872  32.0891266  17.6433926  50.5937119  32.5610580  16.8399372
  49.7430496  31.4252968  17.3666306  13.1098518  20.6699047   6.2440572
  13.6776648  21.4257545   6.3940878  13.1091738  20.2014141   7.0787716
  65.4958725  41.4333801  48.2815132  65.8105392  40.5714340  48.0089951
  64.5989380  41.4767113  47.9500580  69.2585983  56.5767937  75.4433365
  68.8430634  57.3981438  75.7059097  69.6195526  56.2207260  76.2552185
  47.8356934  35.0418549  35.9170799  47.0322304  34.6403542  35.5862122
  47.9745483  35.8013000  35.3512230  13.0080109  35.9256134  17.0825768
  13.8861208  35.9653168  17.4614944  13.1491833  36.0196724  16.1405277
   3.8341265  35.2466393  23.8536186   3.2402208  34.8629570  24.4988270
   3.2568901  35.5955009  23.1744080  86.7755737  48.2949142  86.1890030
  87.1925125  48.8503799  85.5303268  85.9118423  48.6860580  86.3201828
  52.5311012  16.2901897  10.9373550  52.1492577  17.1251011  10.6665277
  52.8807068  15.9135351  10.1298046  82.7320023  20.9137650  13.3377771
  82.3530731  20.9215069  14.2167454  82.6850739  21.8250599  13.0486898
  77.0996933  49.5217628  63.9684868  76.6992188  50.3619003  63.7448349
  77.4999771  49.6678581  64.8256073  54.6481323  47.9431610   8.7970791
  54.1846161  47.1464043   9.0550718  55.1838951  47.6772385   8.0497656
  44.0488472  49.5634766  26.4508495  43.6060028  49.7326279  25.6192780
  44.0706253  50.4146996  26.8880939  56.1368980  52.4719353  41.1548042
  55.4838295  52.4490089  41.8542366  56.5520821  51.6100464  41.1864281
  43.9047089  32.7758064  64.9119949  43.1743622  32.1883430  65.1061935
  44.6861191  32.2413979  65.0535660  64.4263763  59.3487206  44.2834396
  63.6536331  59.6254158  43.7909584  64.0915756  59.1353722  45.1544266
  24.7946701  59.0090179  76.1626282  24.7128220  58.9243240  77.1125565
  25.5482292  58.4633751  75.9375687  10.8694906  24.3956547  74.0661240
  10.4856558  23.5649033  74.3467560  11.7963133  24.1979122  73.9314728
  28.3961430  11.5157061   9.2405643  28.4418716  12.4714241   9.2132797
  27.6786785  11.3274240   9.8455658  50.3659859  64.2518082  87.6761932
  49.8050613  64.6164703  86.9916382  49.8380165  64.3063202  88.4727554
  85.5945358  16.0769348  24.0050163  86.0270462  16.8820496  24.2895432
  86.2139893  15.6745367  23.3962612   4.6517720  69.8101654  60.0705070
   5.5324807  70.0285873  60.3752670   4.6856256  69.9453735  59.1235085
  51.1228867  70.0700684  39.3077583  51.2943840  70.9707108  39.5828247
  50.2677383  69.8631973  39.6847954  33.9023781  42.6399879  68.0151520
  33.7572250  41.7824287  67.6154556  34.8533249  42.7057076  68.1023941
  78.0040283  57.8260803  54.1079674  77.0609741  57.8495865  53.9457169
  78.2907791  58.7310600  53.9854279  35.6699371  58.9432030  87.5004349
  36.2996674  58.2373123  87.3541946  35.9531746  59.3511353  88.3187256
  38.7590141  22.9062901  88.1817017  37.9128304  22.4845905  88.0321121
  39.2625809  22.7206306  87.3891220  58.5409203  29.2881145  83.5863647
  58.5155869  28.6923027  82.8376389  57.9777222  30.0185337  83.3303833
  53.3870392  56.8070755  36.2905922  53.5895996  57.6528549  35.8907700
  52.6048431  56.5050697  35.8288612  38.8309059  64.8916550  28.4046383
  39.4714355  64.5987244  29.0528202  39.1953087  65.7065430  28.0591030
   7.5523963   2.3427122  84.2430878   7.8054004   2.8377943  83.4639130
   8.3646669   2.2472501  84.7404175  73.8550491  55.2119942  73.5854950
  74.0463791  55.4949150  74.4796906  72.8992233  55.2102242  73.5341949
  48.1946259  20.9814205   1.7874101  48.8793564  21.5741997   2.0972354
  48.2998047  20.1940441   2.3214593  11.7126026  56.8464508  58.4742012
  12.1880331  56.0592804  58.7398376  12.1189232  57.1038322  57.6466217
  22.2570610  14.2704678  26.7455158  22.7051086  14.5088139  27.5571041
  22.9112530  13.7827606  26.2451077  66.5427628  47.5295525  76.1181030
  65.8350754  47.7245178  76.7324295  67.3436661  47.7100182  76.6102600
  19.9143200  45.4358063  18.7983761  20.5491085  45.6658363  18.1198769
  20.4004650  44.8718185  19.3998871  57.5931702  43.3775635  79.8169327
  57.8510094  44.0835571  80.4096603  57.6426964  42.5854683  80.3520660
  50.5359764  45.7061272  29.2850571  50.0179443  45.1739197  28.6812115
  50.9057579  45.0756836  29.9031467   7.0002751  13.6315422  55.3175507
   6.8323369  13.6188221  54.3752861   6.2464919  14.0898600  55.6890182
  36.3505440  43.7414818  84.5345840  35.4590263  43.5515633  84.8267441
  36.7768097  44.1259727  85.3005447  12.4756861  69.1247177   6.8689699
  11.8763342  69.5486374   7.4832215  11.9573746  68.4237137   6.4737830
  55.0983467  29.2993317  84.2013931  54.7011375  29.1562157  85.0604477
  54.9792786  28.4685783  83.7410660  45.1048126  22.1166286  68.0078430
  44.2774734  22.3903465  68.4038467  44.8827286  21.3312225  67.5077972
  76.3183136  61.9202576  46.9165916  77.0458527  61.8793449  47.5372696
  76.1360626  61.0057335  46.7005653  79.9367218   5.7136378  69.2184372
  80.3085175   5.6904154  68.3367004  80.3362122   6.4817433  69.6266632
  50.7869873   2.9007688  58.9767876  51.6000481   3.3186188  59.2606201
  50.5736046   2.2888141  59.6812134  74.9248428  40.9753342  78.5614777
  74.4889984  40.1245308  78.6105118  74.4249954  41.4631348  77.9069290
  81.0165863  62.9796944  11.7289028  80.7213898  62.1902084  12.1825600
  81.2761078  63.5764313  12.4308901  73.6912842  35.1097336  56.6249313
  73.3136368  35.5872574  55.8862915  73.4837494  35.6475182  57.3890953
  62.4768867  55.7838249  25.7891655  62.1618958  54.9923248  26.2256737
  61.6994171  56.1507950  25.3683243  42.9430656  11.4727106  56.7606468
  42.5290031  11.9543724  57.4767380  42.2959404  11.4887371  56.0555229
  28.6385918  57.1112709  18.1275711  27.8580780  57.4310913  18.5800571
  28.9165993  56.3507423  18.6380024  35.1518669   1.7404965  41.3659019
  35.1095810   2.2337742  42.1851234  35.9826775   2.0040293  40.9702568
  83.2136917  24.1165066  24.5783939  83.4409103  23.7191677  23.7377243
  82.4702377  24.6861706  24.3809128  71.1730957  21.3167324  56.5293694
  70.6366577  21.9767532  56.9684982  72.0748138  21.5782166  56.7158165
  32.9735756  37.5755119  12.9077492  33.2566147  36.9017601  12.2895432
  32.5313950  37.0906296  13.6045971  85.7905655  66.8918152  17.8447723
  85.5789261  66.8198166  16.9140415  85.9090729  67.8302460  17.9915504
  16.0822926  25.0493584   2.2298908  15.6621141  24.2053165   2.3950474
  15.9170475  25.2218704   1.3029791  59.4237213  20.0146275  38.6165771
  59.5577393  20.8450146  38.1597099  60.2402229  19.5332623  38.4829903
  14.5997267  39.9365654  53.5710564  14.4285975  39.6787491  52.6652527
  15.5324936  40.1508675  53.5869408  34.2344398  35.3886757   5.1644173
  34.5100975  36.2925262   5.0117898  34.8738785  35.0453987   5.7885232
  68.5181046  13.9080715  13.8632879  69.2866745  13.7291927  14.4050760
  67.7929764  13.4955168  14.3325691  78.1466446  40.0789413  76.8586044
  78.5876617  39.3529587  77.2998352  77.2205582  39.8370171  76.8665771
  77.7585297  23.6145401  26.4811687  77.9126740  24.5139561  26.1921673
  78.0025406  23.6152325  27.4067459  26.3233490   7.0305796  87.8875961
  27.1311569   7.5157528  87.7194138  26.3697243   6.8027115  88.8161240
  62.8006477  58.8233986  68.2530899  62.0229340  58.7158585  67.7055206
  63.0736732  59.7289925  68.1061478  59.8032188  15.5956488  72.7000961
  60.7580681  15.5574389  72.6450500  59.6038704  16.5300426  72.7584152
  83.1847229  13.0954227  88.6530380  83.7887421  13.0410767  89.3936005
  83.3817062  13.9384298  88.2446671  51.7550850  41.2986984  35.4580078
  50.8784637  41.1484146  35.8118248  51.9831734  40.4757538  35.0256081
  37.9990044  25.4173412  77.6964417  37.7712326  25.1129665  78.5749130
  37.6974564  24.7190495  77.1153336  48.0982590  69.0038834  29.7410221
  47.1849823  69.2148743  29.5470085  48.1682930  68.0644455  29.5713844
   0.6894268  59.2765656  80.3416290   0.2267820  59.9858818  80.7877960
   0.8525109  59.6137810  79.4607697  25.7032452  57.7894173  42.9740105
  24.9529419  57.2131805  43.1197052  25.3449516  58.6735764  43.0522346
  75.7563629  12.9264660  76.6947098  76.5496902  13.4599371  76.6470032
  75.0706482  13.4834900  76.3262634   0.4773706  28.2872543  21.1111336
   1.2171925  27.9995022  21.6460114   0.4613160  27.6751366  20.3754120
  68.8554306  69.0280380   6.8697977  69.1389160  69.9295273   6.7175803
  68.3532944  69.0690536   7.6836829  39.3089561  15.2788887  86.4563522
  39.2182655  14.8359079  87.3000183  38.6157913  14.9038057  85.9131546
  41.0164108  60.8146515  39.7310219  41.6961136  61.4199371  40.0274544
  40.2002296  61.1913223  40.0599594  59.9508057  48.4826317  66.6041870
  60.1584549  49.3483887  66.2526474  59.3648643  48.0945015  65.9543686
  67.4059143  66.5539474  80.8333969  67.6474304  66.0051956  81.5795670
  68.1200256  67.1871872  80.7607117  45.4732056   7.8587399  67.0119171
  44.7215691   7.3476529  67.3120270  45.2116432   8.1867828  66.1515656
  12.7935247  44.0700569  83.3266068  12.5705986  44.9075546  82.9202347
  12.6836615  44.2224846  84.2651825   4.0609007  38.6945419   8.3128519
   3.1279345  38.5501175   8.4707975   4.4288306  37.8147583   8.2301788
  45.9924850  10.7251139  25.2897453  45.2968102  10.8978920  24.6553822
  46.6901283  11.3360348  25.0524693  64.9823303  29.3237038  43.7004471
  65.1937561  30.2546730  43.6309700  65.1185760  29.1154842  44.6247406
  70.2732697  27.2097511  63.9163933  70.2751465  27.4028244  62.9788704
  71.0687714  26.6962299  64.0567703  59.4761238  35.1601143   1.4105606
  59.4089317  34.4471359   2.0456798  58.5734482  35.3229828   1.1369218
  64.9584808  50.4197464  49.3663368  65.4093094  49.5798569  49.4533463
  65.6604691  51.0548134  49.2244301  32.3373337  71.2411804  12.6755304
  32.4326782  71.5736694  11.7830095  31.7865753  70.4636841  12.5839252
  49.6980667  30.1723595  70.7423706  49.3359413  31.0222435  70.4917831
  50.6429405  30.2705593  70.6248703  45.2632599  46.5852280  79.0358734
  45.0292549  45.6675262  79.1747742  44.6135941  47.0767746  79.5384140
   9.3046370  32.4649849  25.2595158   9.5694275  32.9724808  24.4923325
   9.8760033  31.6971111  25.2476044  19.1664715  22.2368889   5.2032118
  19.5082932  21.8127880   4.4161115  19.3041077  21.5952015   5.9000082
  58.4465294   8.2436342  84.0681381  59.3740425   8.1515312  84.2860184
  58.4264908   8.2679186  83.1114578  82.1679840  34.6372604   8.1677790
  82.2085266  33.8046227   8.6382084  83.0830536  34.8974686   8.0621319
  64.6137848  46.0123215  52.6744843  63.8487740  45.5038490  52.9436455
  65.2124710  45.9567299  53.4192810  48.8368530  41.4291000  25.0225716
  48.1009636  41.7513504  25.5430069  48.5780106  40.5446739  24.7636871
  20.9838581  70.6931534  87.0703888  21.4683247  70.0617981  87.6022797
  20.1303825  70.7618484  87.4982758   5.4880538  54.4248352  50.4745483
   4.9125977  54.6442947  51.2072945   6.2181396  53.9537315  50.8761292
  58.0436668  32.5701523  28.7715855  57.1824875  32.5457115  28.3544445
  57.8675652  32.3910141  29.6952362  15.3723993  24.5246220  16.2602539
  15.0092039  25.1474152  16.8898964  15.5982666  23.7570477  16.7856522
  -0.1271885  52.0662155  44.3291550  -0.2945505  53.0071144  44.3832626
   0.4598415  51.8847618  45.0631180  34.0244827  12.3360519  80.9019318
  34.8291435  12.7891102  81.1539001  33.9599648  11.6037016  81.5149002
  83.7399902  13.0062799  35.9567986  83.6545105  12.8589687  36.8987236
  83.9150085  13.9438620  35.8759193   0.7384134  24.7921066  52.1516151
   0.0096469  24.1813793  52.2618103   1.0800740  24.9194908  53.0366402
  73.2598877  11.2370052  63.1696777  73.6119766  10.8648424  63.9782295
  72.6402359  10.5795765  62.8533630  81.6876602  66.7458878  62.3643303
  81.5154724  66.1409225  63.0858574  81.6265640  67.6150055  62.7607193
  16.1419086  41.5348206  80.7067108  17.0769272  41.3380394  80.7637329
  15.9589338  42.0568314  81.4878998  29.5241680   5.7510581  65.3522491
  30.2609367   5.1631932  65.5190353  28.8831406   5.5292602  66.0276184
  47.1549873  26.0072269  20.0786018  48.0067711  25.5844173  19.9693794
  47.3435135  26.7991962  20.5820656   6.6474552  41.6733284  18.1457233
   6.0905213  41.6771049  17.3672371   7.5398464  41.6351585  17.8016129
  59.8517075   6.2001586  28.9748878  60.4958687   5.5348806  28.7326164
  59.3012238   5.7728009  29.6310635  55.8529701  67.3192520  10.7525101
  56.4918900  66.7677307  10.3010254  55.9557724  67.0966034  11.6777630
  79.4038620  20.8270836  71.3797455  79.5181656  20.2463551  70.6274719
  79.4080429  21.7079334  71.0051575  80.9888153  38.8550377   5.7492881
  81.2464218  39.6233177   6.2588148  81.6835861  38.2166824   5.9106121
  10.5358219  49.6821823  83.6652985  11.0651550  50.3432159  84.1114731
  11.0698948  49.4118538  82.9183578  16.3654594  47.8459587  30.0562191
  15.5170116  47.5775414  29.7036304  16.8447533  47.0262680  30.1771126
  62.4258270  38.0699730  37.6054535  61.4790573  37.9451981  37.5399742
  62.7703209  37.1962929  37.7905083  33.4316940  15.3524723  11.6069736
  32.9601440  14.5219126  11.6705456  32.9230576  15.9585180  12.1457024
  56.5206375  39.1268158  20.5871983  56.0049362  38.3652382  20.3220882
  56.8800812  39.4693298  19.7688351  48.4821358  36.3479729  25.7824612
  48.9388313  36.0064354  26.5512352  48.9320335  37.1686211  25.5815620
  56.9278603   5.1769300  64.9704056  56.9091034   5.1988378  65.9271698
  56.0090637   5.2465420  64.7111816  29.7649975   4.5499516  21.5642719
  30.5254974   5.0910692  21.3519859  30.0899487   3.6508615  21.5165596
   2.7524157  49.4220619  15.2470064   2.8953018  48.4825478  15.1324253
   2.8741972  49.7912788  14.3723173  80.6006470  18.1935253   7.0620012
  80.5192795  17.3113384   6.6995697  80.6670380  18.0588951   8.0073576
  38.2968445  70.5430984  12.7219114  38.3716660  71.3848572  13.1714401
  38.0808868  69.9196167  13.4153519  77.9764023  59.8007736  34.8336296
  78.5401917  59.0479698  35.0115585  77.0889435  59.4773293  34.9886627
  74.0332718  10.4355087  17.3647175  74.3450241  10.8443193  16.5573044
  73.8601990   9.5260792  17.1213722  16.8649635  37.5299606  42.8787956
  16.9066219  37.5574913  43.8346901  16.1132660  36.9689484  42.6878738
  81.7511520  61.4286461  21.7845440  82.5001373  61.5099487  21.1940804
  81.5407104  62.3296089  22.0299339  73.5692520   5.6002626   9.6930914
  73.3545914   4.8382282   9.1550817  73.6541519   6.3192687   9.0669489
  39.6231995  35.3381233  21.9699230  38.8582802  35.1442871  21.4281120
  39.3225861  35.1975517  22.8677540  34.1619034   9.3762140  12.0173426
  34.4550209  10.1938505  11.6151171  33.6367645   9.6534014  12.7680941
  14.3626337   3.8250263   1.4256611  14.6694012   4.6854267   1.1395909
  15.1636724   3.3315907   1.6019865  86.7699432   8.1778622  57.4667053
  87.1584320   8.1022911  58.3382568  85.8805008   8.4929590  57.6274452
  13.1281042  58.5163383  72.8221893  12.5314684  58.6861954  73.5511703
  13.5241098  57.6698036  73.0290527  12.7711792  39.9217072  40.2271690
  13.1164589  39.0496674  40.4183693  12.0196161  39.7618752  39.6563454
  82.0116577   3.0234466  59.5132942  82.7679367   3.2965274  58.9939690
  81.8814621   2.1038792  59.2816124  62.6598778  65.5133896  16.2444687
  61.7354698  65.7386780  16.3490982  63.1111794  66.0418396  16.9027214
  19.7964172  59.6675339  39.4549255  19.7674465  60.3771744  38.8132095
  18.8847122  59.5475883  39.7207069  58.4827995  12.1347294  21.5314922
  58.2761459  12.9246788  21.0319843  59.1186180  11.6679382  20.9892101
  26.0005703  70.5848999  25.4647007  25.0817680  70.8532562  25.4599781
  26.0777435  69.9818039  24.7254124  68.2723618  53.6345978  59.1059418
  69.0158615  53.1320801  58.7728996  68.6031265  54.5295753  59.1823425
  30.4530582  29.4641228  18.6155396  31.3882618  29.4446735  18.8186398
  30.0306911  29.1087551  19.3975563  55.9180489  14.6914272  37.0693245
  55.2913246  14.7963629  36.3534775  56.7409630  15.0326309  36.7191429
  74.3563004  28.7891369  63.3014908  75.2782974  28.8751259  63.5439034
  73.8772125  29.1279564  64.0577316  83.1406631  41.5122833  16.4882584
  82.6094131  40.7538757  16.2457180  83.4835815  41.2969894  17.3556042
  50.5904388  10.4799690  81.3674622  50.3185959  10.9129772  80.5582428
  50.1584435  10.9772253  82.0619736  80.7908020  11.3327036  55.6627159
  80.6725616  11.8512869  56.4585304  79.9808350  11.4628220  55.1694984
  65.0318680  62.9056396  34.4866447  64.8091812  63.2782707  33.6335373
  65.9575195  62.6735115  34.4123688  67.1178131   7.7415290  73.2653198
  67.4211578   8.5570021  72.8662949  66.7989197   7.2189555  72.5294876
  60.7238159   0.1652893  71.9622269  61.0885277  -0.6093974  72.3900986
  61.4226494   0.4707724  71.3838272  28.7636356  14.5868883   1.2705307
  28.7661476  14.2067490   2.1490066  28.4485626  13.8816013   0.7052605
  46.8369293  32.3385696   7.3565741  46.2595329  31.6031780   7.1515326
  47.6768227  32.1003075   6.9640899  79.1666794  10.1049538  88.4596176
  79.7272263  10.6512880  89.0105515  78.5650406  10.7222729  88.0434570
  50.8089294  36.8142776  40.0816727  51.1280251  37.6995583  40.2568588
  49.8560562  36.9028282  40.0611305  64.8671036  65.1232834  77.2392426
  64.3168640  65.4919968  77.9302673  65.6807327  64.8839340  77.6830444
  28.5296478  42.1130562  15.0491648  29.2953892  41.9070511  14.5130358
  28.0771046  42.8037491  14.5650377  19.5604248  29.4410019  17.4548588
  20.0271645  29.7124519  18.2452393  19.8526154  30.0551682  16.7813187
  74.3870926  68.3265991  36.9173889  73.7649307  68.9321136  37.3205147
  74.7601318  68.8183517  36.1857796  43.0469398  69.3511658  14.2058659
  42.6359406  70.2083206  14.3180752  42.3495636  68.7947083  13.8590908
  22.6878891   9.1683702  74.2168808  21.7688408   8.9008732  74.2222290
  22.6655464  10.0976219  73.9883575  58.9609756  38.7234955  26.5678291
  58.9150620  39.6563950  26.3584938  58.7276039  38.6742744  27.4948387
  57.7587166  35.0926018  43.8983345  57.8999596  34.2126541  44.2475777
  58.5134087  35.2489891  43.3306923  83.0776291  20.4101467  26.7827339
  83.6915588  20.8112564  27.3979034  83.6263504  19.8681564  26.2158318
  48.9844742  41.6952896  65.1418762  48.0486717  41.6965027  65.3431244
  49.3634071  42.3193207  65.7609253  17.4535942  67.0689240  89.1753006
  18.1212215  67.0554428  88.4895020  16.6589680  66.7571716  88.7421570
  45.7502670  58.9363976   4.3485112  46.1340790  59.2366982   5.1723680
  46.4922104  58.5958900   3.8487017  84.0859833  66.2259750  82.6337662
  84.9983215  66.0415039  82.8570328  83.5779266  65.6627960  83.2176590
  27.6236477  49.1608696  60.8833847  27.5368118  48.4435272  61.5111656
  28.4843063  49.5372505  61.0673218   2.5166886  22.9788876  74.8787994
   3.2611763  22.9514351  74.2777863   1.8178352  22.5169926  74.4156723
  76.6167068  28.4726715  54.3837852  76.1003418  29.2141209  54.6997719
  76.0653763  27.7082615  54.5509529  26.0298252  52.0843582  72.0064774
  26.6138840  52.8406296  72.0626755  25.4914436  52.1383171  72.7960739
   6.5077724  51.6335297  73.7539978   6.5321012  51.2819138  72.8640518
   6.7635875  52.5507164  73.6562195  26.9393559  15.0712395  84.4986038
  26.8323860  15.9655018  84.8227692  27.7228794  15.1074762  83.9499588
  29.9743843  59.6652489  69.3508224  30.1513996  60.3071747  70.0384521
  30.7091045  59.0536346  69.3992462  77.1239853  23.2752628   7.3305025
  77.3272552  22.8104343   6.5188088  77.4933929  22.7245903   8.0208120
  52.0535431   2.8271880  63.3171997  52.3435249   3.4495490  63.9841385
  51.1501808   2.6217327  63.5579453  84.8127289   3.8743048  40.5934639
  84.7980728   3.7829533  41.5461807  85.3894272   4.6212969  40.4333191
  51.7095642  52.3213348  12.8990479  52.3715439  53.0027809  13.0158539
  52.1816788  51.5965347  12.4891634  66.0411606   4.7169023  89.0165634
  66.4432373   5.1462245  89.7717133  66.6014252   4.9565759  88.2783966
  85.9781113  36.3251801  24.2897205  86.4371490  36.5103874  25.1089973
  86.6667709  36.0427628  23.6878738  30.8374233  50.0661316  58.4569550
  31.0040398  49.1411018  58.2758675  30.6700726  50.0994453  59.3988228
  54.9745407  15.8326139   1.7698597  55.3981285  16.4285927   1.1521076
  54.0982399  15.6970901   1.4093630   6.2432528  67.5957947  77.4062347
   6.2382064  66.8548126  78.0121613   6.9726834  68.1411209  77.7008209
  49.9930115  68.1812057  80.6850815  49.8838196  68.4577103  81.5949402
  49.1000786  68.0537109  80.3646927  83.5461426  37.5586090   5.6914563
  84.0050354  37.4130783   6.5187850  84.1692123  38.0486984   5.1549602
  62.3936577  54.0478172  20.0605412  62.5947075  53.2520943  19.5679569
  63.1990433  54.5636253  20.0214424  14.3828745  35.9880905  43.0149422
  13.6329002  36.0664062  43.6045494  14.9755659  35.3826942  43.4604149
  74.7652740  71.1171951   4.7556195  74.5671768  70.6888885   3.9228284
  74.7368164  72.0529938   4.5563941  81.0182037  68.2979813  14.1194906
  80.2172623  68.7131500  13.7995605  80.9525070  68.3536530  15.0728092
  37.4479218  55.8656349  58.8305893  38.1166267  56.3273010  59.3364868
  37.8107109  55.8124504  57.9464035  37.2345695  -0.3093470  37.1869278
  37.8431664  -0.0103449  36.5113297  37.3029594   0.3483950  37.8789787
  68.5684814  22.5106258  11.1192017  68.1791458  23.3752804  11.2496748
  67.9618759  21.9075184  11.5487585  20.0989132   1.3647716  19.4893875
  20.6044006   0.6676682  19.0713444  20.6415062   1.6450977  20.2264366
   4.9454474  62.8262215  81.2389145   5.7766147  62.3958664  81.0384445
   4.5342622  62.9624214  80.3853302  70.9649963  23.1399689  53.0282822
  70.0268097  23.3137665  53.1046410  71.0728836  22.2527103  53.3708687
   7.3412504  49.5876350  25.4066124   7.7790761  48.8207397  25.0372791
   7.6842604  50.3253174  24.9022274  66.4924927  64.3263168  45.1098328
  66.0476608  63.5410080  44.7910156  65.7888412  64.8783340  45.4509888
  50.1479530  25.3916321  41.7673416  50.6662483  25.5367279  40.9757957
  49.5920715  26.1679134  41.8352890   9.4990120  54.2508240  15.7203350
   9.8556404  55.1383514  15.7569780   8.9016266  54.2634277  14.9725361
  40.5587616  19.5109119  77.4786911  40.4971046  18.6528797  77.0589142
  40.3544922  20.1339550  76.7813187  44.5709305  60.6267319  61.4660378
  44.2054405  60.3601265  62.3095856  44.6850853  61.5739708  61.5430946
  16.2096920  15.5302887  57.4180412  17.1496544  15.6435165  57.2770309
  15.8993530  15.0938005  56.6246910   2.5805094   9.9807386  74.1451416
   2.6566613   9.0493679  74.3524628   2.1541042  10.3627806  74.9122543
  49.0570335  49.1462212  20.1772900  48.9814072  48.8984604  21.0987720
  49.6867714  48.5242043  19.8129330  27.6129723  55.4747086  77.3681335
  28.4527225  55.0184326  77.4216537  27.1800594  55.2778587  78.1988373
  23.7799854  35.5352516  80.9608612  23.5602131  36.3909988  80.5925903
  24.7242241  35.5751839  81.1126938  34.0625076  31.7385483  79.0105743
  33.9795647  31.9095020  79.9487228  33.2122307  31.3798752  78.7563782
  68.8965988  59.1664047  23.5947533  68.6139755  58.7817688  22.7650471
  69.8296432  59.3414078  23.4721222  46.7193489   5.2656131  42.4052582
  47.6715622   5.3373585  42.3390999  46.5323524   4.3522072  42.1885757
  84.3452682  10.2447977  45.6069717  83.6142578   9.6445169  45.4602852
  84.3930740  10.3359604  46.5586205  54.1478119  50.0058670  55.7238274
  53.4270477  50.4904480  56.1262093  54.3195076  49.2850151  56.3297348
  59.9332581  30.0657806  54.4014130  59.6550026  29.6596394  53.5805283
  60.2996063  30.9101868  54.1387405  67.2473526  38.1952782  67.9037094
  66.3844070  38.3162880  67.5075912  67.5574722  37.3608208  67.5519562
  72.2547379  28.5380993  39.0545311  72.6378937  29.4127312  38.9879189
  72.2005539  28.2307949  38.1496201  41.4384193  19.6806679   2.2723336
  41.3701477  19.4664364   3.2027507  40.5741005  20.0206223   2.0407817
  85.4896927  21.1335049  57.2037468  85.6723709  21.6910915  57.9600258
  85.7319183  21.6683502  56.4477692  22.5737114  24.5418644  12.5337887
  22.3138142  24.4668674  11.6156044  21.8074627  24.9145241  12.9699297
   5.6109166  45.6011391  32.1086426   5.9672656  46.4592133  31.8785210
   4.7186265  45.6116409  31.7623196  56.6241493  64.7598572   3.6114156
  56.4888687  64.6801453   4.5556488  55.8095627  65.1413879   3.2841194
  70.5860596   3.3083353  29.2156448  70.8996277   2.5918801  28.6637402
  70.2570724   3.9607079  28.5972500  10.1933250  11.8675480  19.8062916
  10.6149998  11.0642471  20.1114616   9.7185898  12.1941147  20.5706291
  45.4841614  55.0515823  45.1286545  44.5780449  54.7465210  45.1747322
  46.0034409  54.3062897  45.4305191  72.2243195  44.0996246  69.6046906
  72.5665207  44.8714638  70.0556870  71.3114166  44.0425034  69.8868027
  47.1078300  65.5057983  85.1451874  46.8892441  65.1361847  86.0006714
  46.3879623  66.1066589  84.9528656   2.7050471  36.6097298   5.5597157
   2.1505065  36.4818535   4.7900634   3.2322133  37.3805809   5.3496871
  75.4223862  10.5369673  65.8257141  76.2095032  10.0608339  66.0902481
  74.7983704   9.8525743  65.5839615  75.0054626  61.2261925  63.8046913
  75.7059555  61.8779259  63.8325958  74.9224548  60.9249001  64.7094345
  21.7637177  47.2135162  50.6489601  21.7377892  47.9274292  51.2860527
  21.9815750  46.4383774  51.1665802  54.1303482  28.2426949  43.1666069
  54.5032501  27.8707523  42.3673363  53.3259125  28.6735287  42.8776398
  69.3566513  25.3166332  41.2406578  69.7992477  24.8335953  40.5427933
  70.0653992  25.7368889  41.7277832   6.0765939  36.5092087  76.8731079
   5.6689515  37.1704597  76.3138199   6.8183336  36.1867599  76.3611755
  63.7096901  24.1272373  60.2374840  63.4007149  23.4976044  59.5860786
  63.6031761  23.6767979  61.0753365  11.9245939  27.7160931  88.0972824
  11.4295301  27.5125484  88.8908310  11.7263060  28.6357021  87.9205551
  74.3488617  24.8493862  13.4434881  74.9176483  25.6107254  13.3291168
  74.4362259  24.6220551  14.3691883  79.7149429  25.3495846  84.3471756
  78.9230499  24.9716930  83.9646530  80.4144135  24.7474995  84.0932693
  68.2791824  42.2339058  83.6263046  67.9294739  41.3890343  83.9093781
  67.5185394  42.7071304  83.2891006  13.7391996  44.9349327  15.8386765
  14.6368303  44.6077614  15.8973951  13.6542282  45.2404518  14.9355326
  64.4225082  36.9030037  63.0085411  63.7524719  37.4982948  62.6725235
  65.1089478  36.9140091  62.3415260   1.2734629   9.7200975  87.3689423
   0.4906899   9.1693020  87.3800354   1.7194039   9.5191460  88.1917343
  20.1898537  17.3914356  30.9877853  20.3225727  16.4441605  31.0236435
  19.5754185  17.5200176  30.2651749  59.1269150  18.5368385   0.3591584
  59.9016457  19.0458775   0.5977065  58.3887978  19.0916367   0.6113771
  43.5754547  36.1236382  86.7153778  44.1327591  36.5861397  87.3412628
  43.6296692  35.2051964  86.9794922  15.1739120  67.7295685  59.7914772
  15.3801241  67.9904785  60.6890526  14.2387695  67.9112778  59.6980820
  73.7130356  50.7033043  65.3684006  73.2282410  51.2203026  64.7250290
  73.0996323  50.0195160  65.6374741  26.5647831  40.8475418   0.6123448
  26.7728672  41.1559715  -0.2695872  25.7815285  41.3391647   0.8594262
  78.5960922   0.5620148  83.8572235  78.6186142   0.0144548  83.0724258
  77.7073746   0.9170758  83.8761139  82.0472565  64.0478973  22.9232388
  82.6112442  63.8095703  23.6590042  81.3830414  64.6208420  23.3063679
   3.3444934  37.5934830  75.3532333   2.9228618  38.3735275  74.9926987
   3.0333581  37.5493011  76.2573776  80.4034805   0.8841779  72.2230530
  79.5160675   1.2350953  72.2977295  80.5079346   0.6933650  71.2908936
  64.3683472  14.6266880   1.7947248  65.2898941  14.6965513   2.0439441
  63.9569550  14.1650934   2.5254214  53.3029518  34.9231071  36.3308449
  53.8929024  34.2208595  36.0569153  53.7125320  35.7226067  36.0002747
  84.8108215  30.6276073  88.1043701  85.2666626  29.9349556  87.6261749
  85.4308090  31.3567486  88.1186600  24.4596272  44.8661957  16.0294456
  24.5800476  44.9276505  15.0818405  24.0246925  44.0237999  16.1614799
  32.8804436   1.5151846  43.3155670  33.8073158   1.6317198  43.5242767
  32.4451370   1.4843229  44.1674995  58.2722740   4.8112960  33.8209801
  58.5888176   5.5594821  34.3271866  58.1869698   4.1065397  34.4630661
  42.0151939   1.6357133  64.8804550  42.2889977   1.2176569  65.6968460
  41.8198013   0.9066327  64.2918167  63.7817574  63.0019035   2.6067755
  63.3383369  63.7184258   3.0608726  64.7030640  63.2611656   2.5924551
  25.0168934   2.9011002   9.0052567  25.1729774   3.5351777   9.7051249
  25.7904205   2.9671540   8.4453239  83.6651917  40.2694931   0.3496815
  83.9153137  40.9042969   1.0210217  83.4818726  40.8003273  -0.4254574
  57.1781502  55.8663445  71.4145126  58.0198593  56.2973633  71.5627670
  57.4077377  55.0111580  71.0509415  52.5119286  64.2172852  81.7786942
  52.5307732  64.9514313  81.1647644  53.2822342  64.3477097  82.3317337
  46.8227005  63.1389427  52.0407791  46.2433205  62.7723923  52.7087517
  47.7035751  62.9047699  52.3331070  86.7402191  20.6689873   7.7465539
  86.6083069  20.9198837   6.8322887  86.8351822  19.7168179   7.7223125
  24.1885185  44.2076569  22.6783314  23.5677261  44.7647781  22.2087975
  24.5558681  43.6367607  22.0035229  65.5643234  16.1082344  19.9225864
  64.8342743  15.5300379  19.7013454  65.9273911  15.7383890  20.7273388
  21.1669083  55.9023666  18.8067722  20.6834831  55.6590652  19.5962887
  21.3680153  55.0682373  18.3824844   1.3498863  15.1397066  63.6721954
   0.6125119  15.4039230  64.2223816   1.5308053  14.2363224  63.9318085
  34.5187912  37.4567909  75.8297272  34.2819099  36.8383904  76.5208893
  35.0241814  36.9361649  75.2054214  10.7082472  50.6513023   2.8567824
  10.6448545  51.6016846   2.9515924  11.4995871  50.4146004   3.3405025
  25.1133270  23.8037281  88.5392151  25.4826069  23.0062656  88.9185791
  24.1728058  23.6325798  88.4906387  11.1984425  60.2714386  14.4655027
  11.5294237  60.1445351  15.3546476  10.2611742  60.0882835  14.5304127
  13.4898453  55.9952011  21.8095531  14.0535440  56.5705147  21.2923603
  12.6111746  56.1433525  21.4599533   0.9229268   2.0020494  56.3826370
   1.6629467   2.3940499  56.8462486   0.3450398   1.6864620  57.0773888
  65.3446808  15.7788954  50.2711258  65.4325790  16.6063824  50.7441711
  65.6846542  15.9659405  49.3961067  66.4556427  66.2116928  66.6598740
  66.5990219  65.3164444  66.3529282  67.3336029  66.5446548  66.8457489
  49.0681419  29.2965260  34.5211143  48.8844337  29.8031483  33.7300301
  48.7475777  28.4168530  34.3220100  83.6725998  41.2890778  86.5728531
  84.4180222  40.7371864  86.3362274  83.2545700  41.4980202  85.7374954
  57.4363937  54.3861885  85.0191498  57.1446075  53.8312187  84.2958908
  56.6632118  54.4808159  85.5754471  57.1651115  17.7735252  41.8259163
  56.9946785  17.5694447  40.9063835  56.8766441  16.9945812  42.3015823
  68.9589767  61.0219269  56.8991547  68.1238708  60.6019936  57.1052780
  69.3097534  61.2875519  57.7492332  22.3901310  18.5380287  87.8291550
  21.5609474  18.6269321  88.2990265  22.6233826  19.4332733  87.5834656
  13.0805626  43.7694550   4.3415937  13.4772463  44.1921463   3.5798817
  12.9852200  44.4731560   4.9834228  25.9079704   3.1204171  65.1890106
  26.2485676   3.9939680  64.9963074  26.5408859   2.5232294  64.7902374
  10.0185614  29.3276005   5.1766858   9.9260178  28.3904247   5.0053062
  10.2647400  29.7025528   4.3310866   6.7174149  30.4860096  63.4044189
   5.9652243  29.9199963  63.2310066   6.9344535  30.3214874  64.3220596
  55.4747467  49.3570328  69.4873047  55.6350441  50.0697784  68.8688126
  56.2637711  48.8171577  69.4403229   5.1824431  14.1168127  83.5043106
   4.7949982  13.3759203  83.0382614   5.5010366  14.6954231  82.8115311
  66.6515503  57.9136963  29.2690163  66.3131027  57.0251923  29.3797112
  67.6020508  57.8055534  29.2360134  30.0277786  45.2910042  45.9776268
  30.1737404  44.8160896  46.7957802  29.6530914  46.1285210  46.2504082
  67.5991135  42.0698891  31.5850468  68.3876801  41.6349297  31.2606907
  67.8914413  42.9498863  31.8224983  65.5919647  42.2052422  34.9237213
  66.4438858  41.9385071  34.5783081  65.3634415  42.9866867  34.4203758
   4.5374708  34.4135437  19.8364792   5.0509486  34.2637825  19.0426636
   4.8095546  33.7160416  20.4328785   2.3369639  51.1542625  82.4260483
   1.8869830  51.3077621  81.5952682   3.1659110  51.6250877  82.3400116
  21.7553062  48.4489632  55.2178535  20.8380775  48.7226753  55.2205086
  21.7813358  47.6928978  55.8042984  41.2426376  63.2545891  75.7714005
  41.4617271  64.1821289  75.6824722  40.6297417  63.0836258  75.0563049
  28.4019089  66.8835754  63.1909561  29.3374214  67.0856476  63.2056046
  28.3589954  65.9676056  62.9163933  68.1167679  28.0330353  46.8928108
  67.7145996  27.2349243  47.2356110  67.8605118  28.7157421  47.5128746
  64.6098785  67.3014069  64.5076752  64.0093155  66.6272049  64.8254929
  65.4817810  66.9469070  64.6818924  53.4796791   4.6738920  84.4848251
  52.9174652   5.4054427  84.2299118  53.7722893   4.8935838  85.3693237
  37.3494644  59.5177422  70.9126892  37.4068336  58.5678520  71.0158844
  37.8455620  59.7024193  70.1151810   6.0520597  36.3669930  81.3981628
   6.3113213  35.4575768  81.2499237   6.0881457  36.7707253  80.5310211
  40.1984253  33.2860680  48.8369751  40.6009560  32.4894257  48.4912033
  39.2733078  33.2074699  48.6041298   8.3252697  51.7569427  23.8912029
   8.0841074  52.5596848  24.3534584   8.0556574  51.9116707  22.9858856
  62.4127960  32.4768600  12.6956177  61.6267776  32.7986526  12.2541943
  62.6312866  31.6665821  12.2352438  82.1543884  68.0727997  82.2770691
  82.0044327  68.5915985  81.4867554  82.8910599  67.5038223  82.0538788
   0.9531197  17.5442200  11.8505831   0.9919659  17.2419071  12.7579584
   1.3661983  18.4075260  11.8678656  55.3417969  67.4384537  40.6037712
  55.4897423  66.8768539  41.3646584  54.3897514  67.5206833  40.5482635
   2.8140159  24.9679604  78.2805176   3.3481352  25.4392338  77.6410980
   3.3880682  24.8596897  79.0387878  81.8804016  45.8761101  43.9657440
  82.4693680  46.4458771  43.4710579  82.0923767  44.9927483  43.6641350
  49.0234947  13.0008535  71.6467667  48.7907410  13.2830391  70.7622147
  49.4422874  12.1489344  71.5239792  38.1495361  59.9614182  81.9082260
  37.6620789  60.6171494  82.4068604  38.7223740  59.5469780  82.5534592
  52.7263794  20.5877552  83.2021103  52.3589668  20.5736656  82.3183517
  53.0050240  19.6857357  83.3600616   8.0584850  48.8589096  76.5431671
   8.3352242  47.9704857  76.7675552   7.7032580  49.2122955  77.3587494
  82.2408600   1.4965465  76.6795273  82.8126602   0.9039811  77.1675262
  82.6671295   2.3508785  76.7476501  53.1100960   9.6129417  81.4872437
  52.1546974   9.6677790  81.4664078  53.3009758   8.6913738  81.3125687
  63.8319740  10.3155708  72.7656555  63.2942505   9.5658512  73.0206146
  63.8882942  10.8502817  73.5575790  54.7835808  37.1737366  51.3154335
  54.1749382  37.5844460  51.9295235  54.4940109  37.4743614  50.4540367
  63.5067520  54.3200226  29.9913082  63.9234276  53.7668381  30.6520672
  62.6867294  53.8711395  29.7856522  13.7305632  55.4048805  24.5174141
  13.6346788  56.0608101  23.8269119  12.9681530  55.5370712  25.0808754
   7.5411839  40.4042015  79.3620529   6.9981508  40.9313278  78.7759781
   8.4381313  40.6741371  79.1649399  75.0575790  26.2701664  58.2894096
  75.8032761  26.5091743  58.8399086  74.3269501  26.7781162  58.6421127
  37.9156914  24.1688423  80.2022247  38.5504913  24.4264011  80.8707504
  37.7983475  23.2279358  80.3332138  60.2551384  56.3976822  27.6777439
  60.6880074  55.5483627  27.7644176  60.7790718  56.9897194  28.2173862
  70.1389008  32.6106186  86.1935654  70.1772842  32.9449539  85.2974777
  70.9264374  32.9576225  86.6126175  29.2731667   5.6515999   9.9425678
  29.8283978   4.9142280  10.1960115  29.3146038   6.2500844  10.6884441
   5.5695500  56.3612061  10.9542933   5.6840930  56.9590378  11.6930151
   4.9148030  56.7869873  10.4008942  61.2212563  62.0811081  33.6566010
  61.3986664  61.1536140  33.5000191  60.7053947  62.3574905  32.8991508
  20.6241226  25.2118874   3.4593661  19.8189697  25.2659321   3.9741869
  20.8112755  26.1173477   3.2116890  14.1398878  15.1185369  71.4556580
  13.7805357  14.7257652  70.6601562  13.5519524  15.8487558  71.6489029
  48.9753380  51.3308182  13.7958860  49.7878685  51.7047157  13.4549656
  48.4878082  51.0659294  13.0158997  35.3856659  57.7362480  75.6468582
  34.7936554  58.2810783  75.1282806  35.5111046  58.2256088  76.4598846
  18.3757534  24.8684368  81.7099380  18.0716381  24.7300282  82.6069260
  17.6042671  25.1880875  81.2421036  70.4491959   4.6150055  22.1999722
  71.1588364   5.2452059  22.0755157  69.7089386   5.1436386  22.4979496
  68.7679749  64.2006912   8.6115475  68.6349182  65.0250092   9.0795431
  68.2168808  63.5702896   9.0753574  66.1206207  23.7470894  87.1024017
  65.5188904  24.2094002  86.5189438  65.5660172  23.1272736  87.5761948
  46.1742401  65.5251465  77.8941040  46.9134483  64.9336166  78.0351639
  46.5531616  66.2780914  77.4405289  69.0077972  12.6351461  27.5379734
  69.0102844  13.0619259  28.3947620  68.0852432  12.4449587  27.3678093
  55.9112244  28.4135056  62.8998337  56.6054497  28.9766541  62.5575714
  55.3477402  28.2424145  62.1452141  43.6236801  29.5054607  62.1001129
  42.8254280  29.0205002  61.8907318  44.2982178  29.1046028  61.5518913
  43.3211708  66.6489105  67.7291946  43.7259445  65.9031219  67.2862625
  42.8079185  66.2578430  68.4362106  50.9854469  30.4158001   8.0404272
  51.6846313  30.9924145   7.7323799  51.4325905  29.6041660   8.2803106
  30.3359203  60.1045189  21.5174961  29.9857597  59.2188606  21.6135883
  29.9403210  60.5977554  22.2361393   7.7499828  57.7915115  42.0125885
   8.1845713  58.0774193  42.8160973   7.6026058  56.8544044  42.1404190
  38.9472504  44.7967758  74.8171310  38.9855843  43.9814491  75.3171387
  38.9333344  45.4851227  75.4821243   6.4687867  65.0892715  31.1438885
   5.5196133  65.0149231  31.0450306   6.8068051  65.0469589  30.2493572
  75.2130051  22.0681267  54.1660500  74.6953735  21.7938404  53.4090500
  74.6004257  22.0325012  54.9006958  62.7093887  39.9949646  89.3459244
  62.0879555  40.3694954  88.7215958  62.8275566  39.0912552  89.0533752
  78.1824646  63.6280136   5.3536048  78.7438202  62.9498062   5.7293077
  78.7551804  64.3895264   5.2623329  86.2166672  34.8642616  84.1063080
  85.8548889  34.8501205  83.2202225  87.1146698  35.1758461  83.9934235
  23.1516132  51.0255852  61.6786880  23.5519199  50.7893562  62.5154572
  23.4979725  51.8966293  61.4849091  75.3664932  71.1771317  60.5386543
  75.5181046  70.2966461  60.1951599  75.1805725  71.7077179  59.7639656
  84.0755920  53.4164886  79.4811325  83.8322678  53.6130600  78.5764847
  84.0468597  54.2633820  79.9263000  22.8021889  47.9238510  33.1583214
  22.0428677  48.1266708  33.7046967  23.4551163  47.5862198  33.7714500
  78.6023941  66.2621384  66.4992981  78.4841690  67.2112350  66.4609451
  77.7284393  65.9053116  66.3408432  26.6415634   1.7748728  22.8352413
  25.8449211   1.2503324  22.7549343  26.3554497   2.5805948  23.2655697
  77.1178894  21.5362587  82.9887619  76.7249298  22.0607338  82.2910995
  76.9339371  22.0268784  83.7898178  65.9349518   3.2202487  14.7516565
  66.1591263   4.0043168  15.2528706  66.3042221   3.3777442  13.8827105
   1.7810135  68.7403641   1.3895559   0.9682893  68.2927246   1.6247841
   1.6738358  69.6274643   1.7327679  52.4225388  58.6635933  24.6735535
  52.5577126  58.6319504  25.6206322  53.0681458  58.0523186  24.3189144
  22.0889645  68.2839050  13.2975521  22.8629322  68.0395279  13.8049822
  21.3757496  68.2887726  13.9359350  82.8061752  27.4713821  44.5684280
  82.0000000  27.6818085  45.0396347  83.4689407  27.3862858  45.2537956
   8.8136301  35.7816811  58.3711205   8.3137484  36.2522583  57.7041092
   8.5836172  36.2151031  59.1929932  69.6604996  39.5258789  24.6144619
  69.8922119  39.9062309  23.7671871  68.8120804  39.9145088  24.8274822
  38.7642021  68.0922699  14.3361692  39.5602531  67.8911285  13.8441544
  38.0513039  67.9028168  13.7261572  38.6264458  47.0154762  76.2633057
  39.5550117  47.2206268  76.1541901  38.4205551  47.3029671  77.1527939
   7.0844102  23.6982441   4.4272561   7.8560100  23.6256657   3.8654749
   7.4272928  24.0048828   5.2666821  28.1106529  60.8511009  52.1024475
  28.1225758  61.7810249  51.8759003  28.1972122  60.8356628  53.0556030
  50.9504471  43.3087082  21.2761230  50.7626572  42.4009171  21.5146275
  51.1685295  43.7340317  22.1054440  55.9029732  50.0677071   9.8142948
  55.5247383  49.2486801   9.4943504  56.8404694  49.9824066   9.6409206
  70.9872513  29.4897213  56.1040878  71.5345688  29.8408699  55.4016914
  70.0900955  29.6250935  55.7990837  49.7483749  46.6007080  37.8045502
  49.7283287  45.8251190  38.3651619  50.0063553  46.2682114  36.9448280
  59.5402756  21.2166119  75.0471268  60.2742462  20.6962204  74.7204514
  59.1188965  21.5579815  74.2583694  32.5997963  62.2835693  74.4775009
  31.8457184  62.1007080  73.9170074  32.2182274  62.5946999  75.2983780
  48.4680939  50.8649635  18.2141647  48.6059189  50.0912132  18.7605553
  49.3437004  51.1008186  17.9076996  79.2629852  63.3095436  14.8575926
  79.1254807  62.3622742  14.8586235  80.1859818  63.4173355  14.6280413
  35.3613129  29.1387634  77.3291092  36.1714058  28.9594612  76.8517838
  35.6401100  29.6440830  78.0927582  44.8860855   1.9109528  14.7106266
  44.6176033   1.9051117  15.6293840  45.8093910   1.6591836  14.7293043
  23.8384705  66.2036438  51.5612297  23.0821838  66.0630875  50.9915771
  24.5079250  66.5712051  50.9842072  80.1417542  70.7738113   3.0285332
  79.4747543  71.4027176   3.3038900  80.6746674  71.2524567   2.3936036
  35.9342117  38.0001373  15.8339930  35.2744560  38.6919365  15.7853413
  36.3333092  38.1100464  16.6970520  31.8821926  38.0164948  77.9440002
  31.2285271  37.8952866  77.2553329  31.4212952  38.5005722  78.6291809
  12.4830151  44.3624802  38.5903168  12.3256712  44.8734665  39.3842735
  11.6242647  44.2988853  38.1723061  52.7471237  52.3447418   9.5167246
  53.5062828  52.1806145  10.0761604  53.0676842  52.1935616   8.6275587
  65.5037537  58.9872551  41.0187187  65.3622513  59.8593025  41.3871498
  64.7507706  58.8444595  40.4452553  62.3592911  59.4584770  55.8185310
  61.5989838  59.5147629  56.3973198  62.6167450  60.3686981  55.6721001
  84.3464584  10.8103867  87.2320557  84.0823975  11.6581078  87.5896454
  83.6004639  10.5315552  86.7010422  75.9154434  61.0493660   1.3875277
  75.4384460  60.6300545   2.1036906  76.7983398  61.1815567   1.7328466
  19.1371059  20.4020672  29.5144138  18.7285442  20.3217640  28.6525211
  18.8779984  21.2705669  29.8223152   6.8183842  64.3119736  87.5822449
   6.3638897  63.8872490  86.8547287   6.4602261  63.8938065  88.3652420
  22.4917030  50.1777267  86.0549927  22.7518005  51.0834236  85.8867722
  23.0824890  49.6543541  85.5134354   8.7400274  58.9521675  35.1658974
   7.9292669  58.7854919  35.6466446   8.5443764  59.7166328  34.6240997
  61.0148201  33.9795952  45.0686073  61.2016144  34.0993004  44.1374741
  60.5575027  33.1399956  45.1151428  65.5998917  12.2745237  53.2697754
  65.5977859  13.1865511  53.5603447  64.6844101  12.0870972  53.0624123
  20.7882805  28.5621243  80.0892105  21.4397907  29.0427780  79.5785904
  21.1429615  28.5487843  80.9781723  11.1577578  65.2673569  85.4181366
  10.3283396  64.7920074  85.4665451  11.4652910  65.3052826  86.3237915
  39.3205833  36.5558167   1.5804291  40.2192802  36.6209869   1.2574269
  39.2263680  35.6402664   1.8433386   6.3853359  58.3293076  58.6680336
   7.0425730  58.5341568  58.0029716   6.4983768  59.0079765  59.3335075
  40.1357536  29.3777142  86.2818680  40.3999901  29.3147659  87.1997147
  39.1877441  29.2461510  86.2959824  63.1989517  65.4744034  26.1751671
  64.0389709  65.6411972  26.6027012  62.5625343  65.4723816  26.8901482
  30.7892170  15.9562178   9.5204754  31.6404133  15.7534657   9.1324148
  30.6503258  16.8824062   9.3226995  41.6840744  40.3029366  12.3017893
  42.2589874  39.9990883  11.5993786  41.4102135  41.1775780  12.0256748
  13.4514647  64.7299652   7.5025902  14.1985178  64.7291794   6.9041390
  13.6295710  65.4504700   8.1070642  81.8974304  56.4666557  54.9696503
  82.1389084  55.7766342  55.5875435  81.5650253  55.9973755  54.2044601
   9.5268602  46.4489746  34.5562401   8.9584284  47.2190437  34.5666962
  10.0792866  46.5695229  33.7838898  22.8890972  10.6094275   6.7542801
  22.8256149  10.6637506   7.7078261  22.7259655  11.5029049   6.4520888
  14.3901815  57.4684219  10.4569044  14.0236807  58.3518410  10.4953804
  13.6264811  56.8915100  10.4698219   8.2670832  70.4636002  49.8908653
   7.4903989  70.2580566  49.3705368   8.8752537  69.7478256  49.7064209
  75.9805908  70.1917114  47.0872803  75.1821136  70.6688080  46.8613701
  75.7065506  69.5731888  47.7644539  44.7334862   4.8210979  38.0050735
  44.1901169   5.1765018  37.3017464  44.3762398   3.9477096  38.1656990
  57.1730995   3.2192597  85.2191849  56.7426605   3.9548748  85.6548767
  57.9966888   3.5824039  84.8935165  72.2905884   3.8876719  64.6912613
  72.5101395   3.3825510  65.4741287  71.7610397   3.2912092  64.1620712
  40.5390625  48.4513435  26.2266006  41.0533257  47.9896202  26.8888512
  40.3635139  47.7909508  25.5563068  67.8831406  50.2288628  35.2428360
  68.5513000  49.5573654  35.1054039  68.0397644  50.8683319  34.5480118
   9.6210814   2.3566251   3.5577066   8.7529583   2.7493436   3.6491745
   9.6990461   1.7699691   4.3100281  74.4927902  23.4859123  49.6920738
  74.3896408  24.4176178  49.4983711  73.7023773  23.0786552  49.3376274
  68.6192474   5.7017822  81.9252701  68.8325806   5.2353067  82.7334366
  69.2444763   6.4259181  81.8945236  15.6940823  22.9617500  68.6062546
  14.7963982  22.6800327  68.4300995  16.2353382  22.2201633  68.3354721
  20.2608242  31.3219662  64.3348160  19.9354324  30.9577122  65.1580276
  19.4741879  31.6159973  63.8754921  52.6414604  66.4090271  21.3307381
  52.0603447  65.8882675  21.8851261  52.7535172  67.2315598  21.8073006
  22.8769550  49.3975029   2.7110188  21.9771080  49.5630989   2.4297979
  23.1465569  50.2088928   3.1413591  74.6423645  42.2926025  86.7826767
  75.4312210  41.8027077  86.5504303  73.9811630  41.9912682  86.1595840
  72.0060425  48.4857063  84.1288147  71.7359314  47.6753922  84.5608597
  71.6239548  49.1813202  84.6639481  77.3794403  46.6917915  66.4877319
  77.0867767  46.6923103  65.5763702  76.5810699  46.8358536  66.9957504
  59.3568878  22.8461323  37.5088081  59.9525681  22.5797958  36.8084755
  58.5477715  22.3668957  37.3302116  48.2479706  61.0883331   0.3027949
  49.1766548  61.1837730   0.5141450  47.8838654  61.9655380   0.4218360
  33.3497276   4.3944454  77.6211929  32.7923660   4.2677236  76.8533859
  33.3434906   3.5460265  78.0643387   1.2854805  11.2171259  15.4067926
   1.2036803  10.9896812  16.3329735   1.1214660  12.1596746  15.3762379
  85.1876831  21.7380810  47.4904060  84.3094864  22.0179920  47.2322426
  85.0532227  20.8932667  47.9198723  77.0890884  27.8120766  71.8936081
  77.2226105  26.8643417  71.9078522  76.1507874  27.9240780  72.0461884
   5.7286215  69.1466522  80.8155899   6.4689298  69.2703781  80.2215652
   5.0637846  69.7589874  80.5005188  34.6550903  59.7138367  50.6668777
  34.9558029  59.3969002  49.8152008  35.4290810  60.1182060  51.0588684
  70.3317566   5.2287416  35.3948784  69.8607941   4.8711977  36.1476021
  70.2662735   6.1778765  35.5001755  52.1795502  44.6647949  18.8821449
  52.4076996  44.5940475  19.8090630  52.0048409  43.7641602  18.6090736
  34.7194633  35.4171562  89.2191391  33.7845955  35.2148781  89.2557144
  35.0984077  34.7058258  88.7027664  58.4647141  40.9625893  61.2085686
  57.9832878  41.6558266  60.7570305  57.9191780  40.7454109  61.9645157
  21.1003628  27.4050274  65.8479614  20.1812153  27.4402142  65.5830765
  21.0928001  26.9247341  66.6759109  62.3074913  67.3518677  38.4611359
  62.4071732  68.1848602  38.9220352  62.2849693  66.6945419  39.1565819
   8.4499474  45.9710999  87.1620712   8.7413015  46.7062912  86.6227798
   8.2777929  46.3573837  88.0207748  78.1888580   0.4707830   0.1286143
  78.1566620  -0.4845954   0.0791426  79.1227722   0.6773836   0.1652341
  55.2141991   2.4947045  88.3806229  54.4329758   2.3714809  88.9198227
  55.3629837   3.4402487  88.3870926  55.4092331  17.3620377  74.4101105
  54.5311546  17.0847645  74.6715088  55.3423424  18.3122768  74.3162918
   9.6402979  20.8772678  16.1647224   9.2295151  21.7176247  16.3679161
  10.2749033  21.0807972  15.4776382  48.8662987  67.3281784  59.0309792
  49.2867813  68.0972977  58.6464310  49.5783463  66.8573151  59.4639969
  58.3705330  64.9994812  35.8275070  59.3234367  64.9445648  35.7554550
  58.1051788  64.1400833  36.1549950  69.4698792   9.0981588  86.6619644
  69.1927032   8.3968906  86.0723648  68.6566620   9.5378342  86.9101639
  26.5152779   4.7166090  16.1024914  25.8367825   5.0771036  15.5315990
  26.7166042   3.8606474  15.7242985  83.1128922  65.0419922  29.2585087
  82.6408691  65.0851746  28.4269085  83.7676697  65.7376404  29.1986618
  35.9136276  58.9907837  55.2013741  36.1439056  59.2910652  56.0805969
  36.5859032  58.3445969  54.9852333  84.5884705  69.3002930  15.3855076
  83.8070068  69.8472977  15.3059587  85.3177032  69.9001312  15.2285252
  52.9790001  62.9924965  36.6389046  52.1199455  63.4092331  36.7066154
  53.0335159  62.7026978  35.7282562  77.3369980  37.5198669  54.7883492
  76.8788528  38.1432266  54.2246513  77.0094147  37.7068672  55.6680946
   0.1429413  32.3236694   9.9023695   0.7580051  32.9521904  10.2803812
  -0.6996639  32.5449524  10.2989578  37.7220726   4.3497410  69.0133057
  38.2182503   3.5380771  69.1193314  37.2066078   4.4220185  69.8166199
  41.7785568  63.8096046  78.6494904  41.3938751  63.3820114  77.8843613
  41.3958817  64.6869812  78.6511993  10.0254555  67.0873489  18.3186111
   9.8556366  67.9714203  18.6438999   9.1572723  66.7296295  18.1328068
  67.0339661  66.8217773  76.1400833  66.7065582  67.6600189  76.4662476
  66.4629593  66.1681671  76.5437851  52.6892624   3.7349286  60.7344780
  52.5217705   3.2525051  61.5440750  53.4622421   3.3127503  60.3596458
  70.6323013  -0.2234280  35.1110535  69.8463821   0.0925477  34.6652794
  71.3545914   0.2201741  34.6663628  58.1894302  46.3174095  18.6281490
  59.0245094  46.0223961  18.9912453  57.5344086  46.0141144  19.2567902
  31.3360939  46.0117760  11.1595631  32.2453384  46.0880585  11.4488535
  31.0271034  46.9157639  11.0998659  47.8597984  63.5881805  61.7087746
  48.6077881  63.3036079  62.2339058  47.1035805  63.4648170  62.2824898
  61.0837021   1.4686198  74.3834305  61.4559059   0.9380890  75.0878677
  60.8785973   0.8390453  73.6921997  44.9597664  48.1214066  29.7417564
  45.5473518  48.1998329  30.4933033  44.5166817  48.9685783  29.6947193
   5.0636158  22.5183353  82.7876434   4.4581466  21.8235531  83.0463257
   5.8861895  22.0638218  82.6059265  53.2528763  33.4482193  26.8839359
  52.7693939  32.6355057  26.7356873  52.9248047  34.0477371  26.2137280
  45.9274826  23.8208714  76.6277161  46.7576637  23.3462944  76.6702194
  45.5691528  23.7564087  77.5129776  49.4356346  66.2354279  62.8513412
  49.8532219  65.7298660  62.1540184  49.8923492  67.0766068  62.8437538
  67.7071075  49.6944466  40.1813393  67.5367126  50.5845795  40.4893265
  67.0380173  49.5395012  39.5145950  57.9304390  69.4430695   5.2443347
  57.6120644  70.3378677   5.3635502  58.8836403  69.5284729   5.2258816
  21.2628746  22.1112843   9.1314745  21.4476452  22.3436756   8.2214813
  22.1196232  22.1150246   9.5583248  10.7634888   7.0529871  86.5013199
  11.2879963   6.4760075  85.9461441  10.5332708   6.5133266  87.2576218
  74.1231766  31.2676239  69.6784515  73.2266006  31.1300335  69.9841385
  74.0963745  31.0424824  68.7484970  37.8880119  45.0028305  86.4410782
  37.5626831  45.4406624  87.2276459  38.5811272  44.4239769  86.7584915
  42.7115250  24.7666817   2.7185376  42.6859741  24.3106880   1.8773181
  42.1817245  24.2231846   3.3017693  71.3841171  14.9416723  88.7093048
  72.2348251  14.5241756  88.5743179  71.1148453  14.6594906  89.5834351
  84.6529236  19.0806885  10.8451014  85.0300674  18.2496433  10.5563889
  84.5497894  19.5891991  10.0407305  84.5743408  33.4783707  85.8502808
  85.1807175  33.4343491  86.5896072  85.0724411  33.9121552  85.1574860
   2.9529409  43.3132210  76.4447479   3.5627770  43.9981880  76.7188873
   2.1147671  43.7646294  76.3451157  56.1638870  29.7768345  31.2218895
  55.5381660  29.0698032  31.3794155  56.6791077  29.4781609  30.4725075
   0.8581753  63.1406593  80.0733643   0.1300258  63.6585350  79.7300873
   0.4766222  62.6390152  80.7937775  14.3422661  50.2829056  76.3194504
  14.6449909  49.4393997  76.6557388  15.0559483  50.8894997  76.5167618
   1.6357876  24.4283772  67.0498962   2.3477421  23.8462620  67.3154068
   1.9803596  25.3096161  67.1945343  50.6799698  14.1092405  10.3086405
  51.3098526  13.5699987   9.8304205  51.1964531  14.8438988  10.6399298
   8.1311731   4.6496925  78.6020126   7.1803012   4.7453427  78.5479202
   8.2718887   3.7081723  78.7018661  58.7752571   7.4400668  72.1530762
  58.4140587   7.8032928  72.9616699  58.9180031   8.2017241  71.5911713
  20.5859528  67.9399261  54.2532272  21.1474171  68.5486374  54.7332878
  20.0978317  67.4766769  54.9339447  24.1159782   1.5109229  63.6103706
  23.8809357   2.1618359  62.9490852  24.7595844   1.9533449  64.1637878
  59.3548012  45.8018150  76.6769257  58.8631172  44.9948387  76.5243912
  60.0453606  45.5493126  77.2897949  32.4363899  49.0664406  36.2836266
  33.3456459  49.0339928  36.5810013  32.2356110  48.1660309  36.0283279
  33.0022774  60.4882545   0.1284212  32.1812744  60.9796791   0.1547075
  33.6655121  61.1142235   0.4191335   8.2791758  58.0927696  78.4492493
   8.1775093  57.5928535  79.2591782   7.5787435  57.7727470  77.8807297
  59.0618706  51.3663750  23.5014763  58.3765793  51.3454857  24.1694374
  59.7416496  51.9284477  23.8732433   5.8396444  60.1013069  63.6279373
   5.4865389  59.3107758  63.2197609   5.1062975  60.4613190  64.1267624
  52.0221901  55.4493065  69.7327042  51.1312943  55.1203575  69.6130066
  52.3868752  55.4804039  68.8482437   9.4333515  40.4567566  62.8869438
   9.6512756  40.7516022  63.7711411  10.1121941  40.8410339  62.3322029
  71.7525330  66.0046616  65.1824112  71.5918503  66.2092361  64.2612381
  72.4053726  66.6472473  65.4601212  57.2586288  21.4423370  36.4652710
  56.9980278  20.5219574  36.4303665  56.9400330  21.8128548  35.6422005
  19.5167465  52.1310310  67.5018387  19.3977566  52.7798195  68.1954880
  20.3443222  52.3735428  67.0864639  73.3943939  14.5396357  18.0746765
  72.9061203  13.7329311  17.9102211  73.6115646  14.8700857  17.2029705
   3.5011580  30.9756527  55.2808647   4.2138791  30.6853123  55.8500404
   3.6795998  30.5547218  54.4399071  37.1156693  37.0901184  18.3461971
  37.6048927  36.3436470  18.6921310  36.1983795  36.8734016  18.5130653
  66.3840179  53.0052719  49.5027008  67.3354416  52.9149399  49.4491386
  66.2298355  53.9486732  49.4531784  54.7618294  10.9450855  70.2309723
  55.6032715  10.5609360  70.4772110  54.3577805  10.2911997  69.6605225
  31.9988880   6.1943693  20.9995747  32.9177742   5.9636240  21.1360817
  32.0099487   6.7876477  20.2484894  47.0432854  52.5017815  63.2839127
  47.7759132  52.5141563  62.6680145  46.2823143  52.2818298  62.7465363
  19.2396336  69.9332428  10.9563522  19.2132988  69.8280334  10.0053167
  18.3823872  69.6294174  11.2547655  20.3569088  51.2859650  74.6458740
  21.0299416  51.1080589  75.3028412  19.5673561  51.4686737  75.1552429
  84.2332077  37.5874672  37.4361572  83.5426102  37.4710884  36.7836456
  84.6366653  36.7230110  37.5146751  54.2268829  49.0508957  78.7231369
  53.5369110  49.5944862  79.1035004  54.2225037  49.2747765  77.7924957
  64.1443100  12.4662838   3.6298311  63.4209518  12.5547180   4.2504444
  63.8657150  11.7701015   3.0348992  38.0753670  25.7536125  44.7043915
  37.7969589  25.1026535  45.3485756  38.9860229  25.9413319  44.9317665
  54.4148903  27.8556499  40.5430031  54.0406952  28.7062931  40.3136215
  54.7235641  27.4974937  39.7107315  13.7222662  44.4750328  54.5842781
  13.9824715  44.5922470  55.4979439  13.8423700  43.5398674  54.4191246
  19.8525257   4.6905417  85.7005234  20.2869549   4.5273314  84.8633499
  20.5582752   4.6604571  86.3464661  76.5780716  22.8496933  13.0161648
  77.0443954  23.5910015  12.6298513  76.3868942  22.2745857  12.2752638
  32.9013176  67.1269455  84.1110840  33.1186523  67.0700073  85.0415497
  32.2621727  67.8374786  84.0574646  70.7264786   9.9571342  40.6624680
  70.0613556  10.6279945  40.5082397  71.5003204  10.4467096  40.9412498
  38.9691429  69.8263092  47.8237572  39.4193497  69.8681259  46.9800720
  39.6696510  69.8933563  48.4726219  22.3292007  60.6709404  68.7469635
  21.6275578  60.1589661  69.1492233  21.9943104  60.8956184  67.8788605
  35.5904350  58.2785225  81.6803360  36.3210564  58.7342377  81.2623062
  34.8097191  58.6519661  81.2713699  16.1209755  53.5846138  23.7526169
  15.3769140  53.8731384  24.2811604  15.7871151  52.8368111  23.2570782
  52.2050934  12.5063105  73.3928680  52.1137848  12.6668158  72.4536514
  53.1289024  12.2843256  73.5092163  31.7953987  39.9680367  13.8568859
  31.7666073  39.9266968  14.8127584  32.5467110  39.4259682  13.6162271
  22.3663082  38.3235550  88.3892975  23.2898064  38.3020821  88.6401367
  22.0006256  37.5169983  88.7525787   5.0098128   3.2862604   7.8412576
   4.7663646   2.9866786   8.7171659   4.2333188   3.7450368   7.5206122
  28.1660748  19.7141266  14.7324772  27.5746498  20.0137577  15.4228897
  27.8980503  20.2069855  13.9569235   9.1610250  41.5650330   2.1477575
   9.0146465  42.3560295   1.6289823   9.5864506  41.8775940   2.9462240
   0.5965441  43.7901001  17.4058304   0.2514490  43.1291771  18.0060978
   1.2237252  44.2867928  17.9313526  16.5827522  53.3737488  54.9825020
  16.2151051  53.2440987  55.8567238  15.8259735  53.3418388  54.3972664
  72.0356598  64.2836151  21.2066078  71.7502823  65.1477585  20.9098701
  72.9693680  64.2549591  20.9978180   3.7335238  58.8788376  66.3976822
   2.9618282  59.4327888  66.2799759   4.4737649  59.4570084  66.2133026
  56.9490700   9.8596621  17.1126099  57.4175720   9.0821371  16.8089809
  56.8834877   9.7447987  18.0606270   5.1745067  10.3793154  75.6357651
   4.7037234   9.9279079  74.9351730   5.0701518   9.8113022  76.3991165
  84.0174408  22.3096180  16.7487888  83.5635834  21.6470146  16.2280197
  84.8627472  22.4189663  16.3132038   9.0496635   4.9783058  82.4618530
   8.1382303   5.0605488  82.1812210   9.0267525   5.1494660  83.4033508
   9.5222998  70.2090302  30.5378609   9.0408173  69.9008789  31.3056164
   9.2072830  71.1023712  30.4002552  55.7861137  15.1507006  61.4767761
  55.2893524  15.9494686  61.6540604  56.2775154  14.9904757  62.2824326
  84.9723053   4.5569220  71.5161667  84.1166840   4.9247613  71.7371597
  85.4874420   4.6504760  72.3174820  80.7166367  56.3107414  38.0027695
  80.1985626  57.0559387  38.3069191  80.6307602  56.3323936  37.0496750
  65.8909683  32.0257530  77.7570267  66.0189056  32.9056892  77.4026566
  66.0198898  32.1262817  78.7001572  45.0181961  35.9153671  37.1234512
  45.9607124  35.7563782  37.1745987  44.6519394  35.0867271  36.8145142
  81.1378098  10.3013344   1.4938160  80.6554413   9.5928450   1.9199585
  82.0239487   9.9561548   1.3849975  74.0383835  58.4446640  61.9039764
  74.3603592  57.7370682  61.3455200  74.7495422  58.6021194  62.5250130
  10.2290173  37.7565384  35.4001427   9.9101200  38.5302277  35.8648415
  10.5437984  38.0937233  34.5614204  27.9834595  46.4906044  17.6910610
  28.4886742  46.9052544  18.3903847  28.3106804  45.5916138  17.6598740
  83.0664825   5.6560664  52.6561699  83.2704468   6.4365807  53.1713676
  82.1849289   5.4085550  52.9351501  27.5073757  54.4396553  83.4354630
  27.7910748  54.2937317  84.3379364  27.5418358  53.5730400  83.0304642
  68.1136780  29.8026123  56.2727432  67.9064560  30.3419743  57.0358772
  67.2620697  29.5926380  55.8894730  63.6118584  40.2085800  13.0520954
  64.2283630  40.9345551  13.1475592  63.6120071  40.0159492  12.1144781
  46.1289253  42.2920532  15.5013275  46.1797867  41.8611031  16.3545151
  45.5570679  43.0456390  15.6473465  26.9163551  62.0580406  38.2581177
  25.9823170  62.0398216  38.4666252  27.3289928  62.4265251  39.0392609
  14.5832977  59.6179848  45.0954170  13.7748890  60.0830078  44.8798676
  14.2932472  58.8459663  45.5813103   1.3369719   2.9726989   3.2146382
   0.7293051   2.3075793   3.5380399   1.9574291   3.0995247   3.9323986
  47.8949051  33.8578529  39.6886826  48.5914268  33.2417603  39.4617119
  47.1702080  33.6243896  39.1085587  72.9363480  46.9410133  54.2972946
  73.3889313  46.4941292  53.5819626  72.9192810  47.8606834  54.0324440
  75.5534821  48.2800446  44.2425041  75.6990356  48.8436470  45.0023689
  76.1269760  48.6384583  43.5650978  51.2674255  70.0431824  54.8184929
  50.4717178  69.5144958  54.7586823  51.9762383  69.4029388  54.8810043
  55.4263573  11.1665678  52.8758469  55.5983009  10.2610188  53.1340141
  56.2833595  11.5916929  52.9082108  35.1854973  65.4453125  56.7374802
  35.6949005  66.1743927  56.3836823  34.3349190  65.8288345  56.9511566
  47.6468010  60.8380661  29.7821407  47.6843529  61.4713936  29.0654011
  47.1500130  61.2827644  30.4689255  58.1320610  40.6729507  29.0093117
  58.8555260  41.2876053  29.1319141  58.3500137  39.9309235  29.5733337
  59.8664894   3.5765569  53.8928986  59.6994972   3.6965642  54.8277512
  60.5568047   4.2078257  53.6899376  24.7128334  50.2146912  67.6592789
  24.9330730  49.3083305  67.4442596  23.7736607  50.1957932  67.8432083
   4.4921241  17.4207382  21.9478340   3.7102993  16.9398918  21.6762314
   5.1953106  16.7720795  21.9161606  20.7052994  14.0195360  44.2553482
  20.3391094  14.5571766  43.5531540  21.4630642  14.5150137  44.5660362
  56.7425003  30.2050762  37.4932823  55.8895569  30.0972614  37.0724525
  56.8507767  31.1525383  37.5758743  86.7695999   8.6242094   5.4616475
  85.9662247   8.1725826   5.7202163  87.1482468   8.9301500   6.2858191
   9.4567184  54.3024101  68.2901993   9.4877424  54.3623886  69.2450180
   9.1561146  53.4105110  68.1158829  15.1585827  69.1687622  74.5676727
  15.5804520  69.6067352  73.8284607  15.4049931  68.2486496  74.4732819
  70.6690292  49.5929680  40.4111137  70.5758362  50.2951126  39.7672691
  69.8685760  49.0761490  40.3194427  59.4635773  29.4551277  33.0928421
  59.1463852  29.2619629  33.9750633  58.9219627  28.9127674  32.5194931
  55.4099350  53.3628540  56.6231995  54.5209885  53.0114403  56.6733208
  55.4836540  53.7015038  55.7309456  47.1199493  52.4432755  30.5548534
  46.8250694  53.3505287  30.6333942  47.4978943  52.2393608  31.4103107
  64.4564743  69.6920395  50.1712189  65.2416458  69.5484695  49.6428947
  64.0897522  70.5108643  49.8376389  30.6223736  49.1022758  21.4510365
  31.1729546  49.4183311  20.7346573  30.1969719  48.3203354  21.0991364
   8.3505478  23.4191971  68.3075485   8.6204023  24.2316017  67.8792801
   8.6105585  23.5325565  69.2217560  65.6782913  50.9524879   8.1160040
  65.1403198  51.4156952   7.4739275  65.2966843  50.0757637   8.1603136
  65.4239044  19.9611511  33.4798889  65.9523468  19.5282669  32.8093796
  65.7474594  19.6044350  34.3071098  82.3972931  71.3655243  61.1199265
  81.5814362  70.8649368  61.1243095  83.0813675  70.7098007  61.2551956
  15.4566402  22.6751785  18.3671722  14.5706587  23.0213261  18.2601662
  15.3276777  21.7768173  18.6713867  66.8939133  23.4080772  46.8887520
  66.0636368  23.8432674  47.0823441  66.6945877  22.8278027  46.1540565
  50.1971664  11.5019169  27.6794357  50.4925880  12.0648537  28.3950195
  50.8336754  11.6497412  26.9799824   6.6494060  57.9759903  45.3321304
   6.2763715  58.8455276  45.4769821   7.3916025  57.9303322  45.9348679
  41.9314880  14.5915527  81.8505249  41.5686798  15.1234131  82.5588531
  42.7588577  14.2600756  82.1995392  54.8701973  27.6049633   6.0386853
  55.7929802  27.6042690   5.7843194  54.6205559  26.6808910   6.0368695
  65.7645798  66.2745743  36.5783730  66.5071487  66.8748474  36.6453896
  65.8727646  65.6762695  37.3176689  58.4324265  31.6450520  31.4835644
  59.2194290  31.1772060  31.7628098  57.7083244  31.1252728  31.8324738
  67.0971832  21.0719891  54.5851135  67.5029984  20.3017712  54.9829979
  67.6331635  21.2531891  53.8130188  -0.2918361  70.7303619  66.7457199
  -0.0416934  71.0734024  67.6036148   0.4065539  71.0203781  66.1588821
   6.8997054  13.1678152  85.5700531   6.7028103  13.3140450  84.6448135
   7.8519678  13.0756588  85.6006317  86.2204895  47.8789444  41.3031235
  85.9677582  48.7542114  41.0094070  86.8612442  47.5847778  40.6557198
  59.1627274  20.1709175  86.2409363  59.4262962  19.6660252  87.0102463
  58.9066505  19.5104275  85.5971909  32.5172195  69.1906662  82.3842697
  33.3431282  69.0324020  82.8414917  32.5072174  68.5452194  81.6774979
  71.1303482  65.3174744  14.3890228  71.4270554  65.3973694  15.2955618
  70.3452225  65.8632507  14.3450012  23.8715439  45.5497513  65.4424820
  23.5905457  44.6349792  65.4209900  24.3666897  45.6673164  64.6317749
  62.5970993  69.7049255  67.4220505  63.2878990  70.2636108  67.0658264
  62.0486298  70.2992325  67.9341202  38.4153442  21.0162792  22.0427399
  38.9110680  20.9868431  21.2244377  38.2146263  20.1001682  22.2342682
  32.0679436  48.3183823  81.9641647  32.0340881  47.3620720  81.9878616
  32.6723328  48.5190125  81.2495422  15.8327427  45.4346390  58.8683510
  15.4512272  45.2279968  58.0151367  15.1550274  45.9395370  59.3178101
  25.0940323  59.1707191  68.5468292  24.2291756  59.3160629  68.1632538
  25.5760956  58.6886330  67.8749390  72.4792252  57.8906555  38.6896782
  72.9660797  57.4944458  37.9670296  72.6076660  57.2892456  39.4231949
  74.2600632  28.0598526  83.7886276  73.8977661  28.6725025  84.4286499
  74.3633957  27.2407398  84.2729950  35.7773209  43.2734718  55.8605499
  36.1409073  44.1512108  55.9772263  36.3807182  42.8428268  55.2550049
  59.1887665  35.5442276  13.1659498  58.4263954  34.9767952  13.2801323
  59.3956947  35.8480835  14.0497398  68.9342270  42.5564423  10.9231453
  69.1893387  43.3532219  10.4580727  68.7705307  41.9166718  10.2302313
  34.6200066  53.4097290  27.3596497  35.3669243  53.9740639  27.5593109
  34.3492508  53.6730156  26.4801025  73.1527100   7.6914558  30.5984325
  73.7186279   7.1265402  30.0722771  73.5344620   7.6625996  31.4757404
   1.6967928  45.7560463  69.6227493   2.2975752  45.7872696  68.8782272
   1.6278239  44.8254585  69.8359985  70.1987457  12.5067034  15.9236546
  70.3715515  11.6853218  15.4635448  70.7439651  12.4605761  16.7090454
  71.6333237  18.7274933  78.1739426  71.5927429  18.0424938  77.5065918
  71.3917465  18.2841969  78.9871902  61.3698654  26.4068661  52.3612480
  61.2555847  26.5647964  53.2983856  61.6603470  25.4965153  52.3054466
  69.7634277   0.6351512  86.2504272  69.3072586   1.0181091  85.5011063
  70.4570160   1.2623955  86.4547119  50.0358047  43.5827789  85.4861908
  49.4309578  43.3966026  84.7680511  50.6088982  44.2692451  85.1447906
  38.7593346  42.2082901  22.4585228  37.8041840  42.2594910  22.4225101
  39.0587807  42.9111061  21.8817959  73.7868195  64.0802536  65.7508469
  73.7256622  63.1972198  66.1151886  72.9758301  64.5088882  66.0243454
  17.3336830  35.2325020  68.1556549  17.6485920  35.8877258  68.7783508
  17.9846916  35.2365990  67.4539413  35.9987450  69.8171082  78.9142990
  36.3531303  69.3686523  79.6821060  35.3911476  69.1864777  78.5278168
  58.6857834   9.1783094  19.5958080  59.2804756   9.8658113  19.8956642
  58.9483147   9.0126743  18.6903381  52.9956398  58.2772026  13.2273359
  52.8333626  57.3342400  13.2541723  53.8278084  58.3901901  13.6866426
  28.4994907  43.7196846  17.1160088  28.6098537  42.9909477  16.5052738
  27.6099682  43.6162529  17.4540672  61.7521896   9.0376501  20.9461441
  62.5282249   9.0813580  20.3874950  61.9089279   8.2841806  21.5153084
  30.8656044  25.3832188   0.9513142  30.1415691  26.0083466   0.9862086
  30.4684029  24.5435314   1.1823716  35.4783630   8.9089384   2.4695098
  36.2486000   9.1486282   1.9542228  35.5849304   9.3829842   3.2942255
  60.8033676  34.5110359  68.8838348  60.3326340  33.8899536  68.3280563
  61.5023804  33.9931221  69.2830582  82.0541534  48.3160324  75.1045532
  81.9082489  47.5810356  74.5089722  81.2575760  48.8422394  75.0352478
  72.5317688  65.7647629  72.4807816  73.0544205  65.0222931  72.7837753
  72.2360764  66.1931992  73.2840424  40.9615326  51.1156540  43.0716019
  40.5533371  50.2538300  43.1544724  40.3665123  51.6092224  42.5071754
  61.7816696  62.8165512  25.1362991  61.3901291  62.8397102  24.2631512
  62.4838753  63.4660950  25.1012077  23.0899925  57.1340714   8.6851101
  22.6888332  57.8628731   9.1585579  22.4272671  56.4436111   8.7021942
  33.2790337  66.7267456   7.2714577  33.2166901  67.5156403   6.7329545
  32.5932999  66.1509781   6.9330878   7.8054867  34.0064240  32.7958221
   8.2746439  33.1832428  32.9318123   6.8802967  33.7645454  32.8376579
   8.3540020  46.6029243   4.9752326   7.7266917  46.7526436   4.2679152
   8.7612953  47.4571419   5.1189523  57.9521217   7.4618649  27.0124607
  57.4263039   6.6866994  26.8153114  58.6069183   7.1540689  27.6391449
  62.3034973  27.8320103  26.5882835  62.6589546  27.8925896  27.4749680
  61.9772873  28.7120705  26.4003716  67.7572632   1.0350052  30.1645355
  67.8271408   0.2293618  29.6523952  66.9693832   1.4636934  29.8303204
  29.0236149  53.3730774  33.9311066  28.0970306  53.6122322  33.9092445
  29.1164989  52.8469238  34.7253151  49.2871552  31.2067547   2.9913208
  49.4831772  30.7723713   2.1611891  49.2895699  30.5006332   3.6375561
  28.8932056   7.9287767  87.6072617  29.3541069   7.6311736  86.8228989
  29.5865211   8.2423172  88.1879883  23.3084583  66.8198547  40.6833382
  23.3155918  67.6007843  41.2368088  22.7643623  67.0622940  39.9340591
  84.9275284  51.8513641  24.3468914  85.6886444  51.5356636  23.8597946
  85.2979736  52.3790512  25.0543861  68.0130844  21.4982262  89.1651764
  68.6032181  20.9485416  88.6495972  67.5091629  21.9855995  88.5134354
  65.0158768  32.7671356  88.9077148  64.1024857  32.6691589  89.1766968
  65.3737640  31.8802547  88.9476242  71.8749466  11.8663416  32.8728333
  72.7491226  12.1781740  32.6387405  71.5882797  12.4574089  33.5690308
  76.7696991  42.9012604  38.3592186  75.8969498  42.5234184  38.4677353
  76.9789810  43.2709694  39.2169762  72.0076370  55.3792953  65.2193756
  72.9205475  55.5580368  64.9938354  71.5012207  55.8329239  64.5455856
   6.6134620  62.6517563  19.1386719   7.0940766  63.2121239  19.7479553
   6.1796374  62.0070343  19.6975651   5.1040215  60.8447037  75.6230087
   4.5224257  61.2091103  74.9557877   5.9800596  61.1211166  75.3539658
  68.3081970  39.6683197  86.8873825  67.4260254  39.5662003  86.5301971
  68.2463455  39.3270683  87.7795486  56.9643631  48.1568222  88.6711197
  57.7622910  48.6125908  88.9391174  56.3848038  48.2221603  89.4301147
  83.3367767  50.9353447   3.8769207  83.5245590  50.0689354   3.5159507
  83.7065582  50.9123917   4.7595105  12.4637127  58.8313713  48.4128799
  12.4242668  57.9366570  48.7507553  11.9009905  59.3346443  49.0013466
  46.7498779  57.2653236  36.9019890  47.6535034  57.3096504  36.5893669
  46.6602516  56.3783455  37.2505035  56.5652275  65.8497772  62.2596321
  56.1761513  65.0125275  62.5123444  56.3332329  66.4462509  62.9714088
  47.3991356  57.7536430  72.3325043  48.1520119  57.6741982  72.9182510
  47.0010033  58.5920601  72.5665588  49.7168846  40.9711037  74.2780457
  50.0419617  40.2737770  74.8475189  50.2539597  40.9054222  73.4884491
   4.1725016  63.4076347  61.3832321   4.8956814  62.8904991  61.0285339
   3.8382170  63.8984184  60.6324883  49.2347641  56.5386887  31.4307041
  48.5999870  55.9287338  31.0548801  49.6128387  56.9871597  30.6742878
  35.5237122   7.6710277   7.8987799  36.1752052   7.1099930   8.3195286
  34.8034286   7.7148871   8.5276690  12.2680950  17.9933224  71.9076462
  11.7331295  18.1785145  71.1358032  11.7282372  17.4074860  72.4382858
  43.2599487  28.9319324  10.7416763  43.9543114  29.5862103  10.8191996
  43.2816391  28.6674824   9.8219881   4.4601588  17.2893848  31.7020264
   5.1178246  17.7547398  31.1851578   4.6229806  17.5676556  32.6032944
  38.2701530   1.5220954  38.9735184  38.3501549   1.7459629  39.9007263
  38.0580902   2.3510306  38.5444145  19.7344093  65.2889633  55.4589348
  18.8231411  65.3880844  55.7346115  19.7241879  64.5401459  54.8627815
   3.6179047  65.3456345  46.7100334   3.4684987  66.0186844  46.0460167
   3.1003816  65.6324463  47.4624557  76.8170853  62.9881554  36.4172287
  76.1321030  62.9814110  35.7486534  77.6358109  62.9865837  35.9213371
  12.7284126  54.4189682   6.9088068  13.1359529  54.4192886   6.0426989
  12.5363302  55.3402863   7.0834665  56.9431267   6.3005953  58.8229980
  56.2292290   5.7397299  58.5196571  57.2516670   5.8819966  59.6266212
  39.6859589  33.6350174   8.7898169  38.8872528  33.1261292   8.6507683
  39.7045403  33.7987251   9.7327299  65.3619919  34.2345963  29.2210064
  64.9924545  33.3530960  29.2723503  66.2967148  34.1125069  29.3871918
  26.8041134  47.2705612  72.9885025  27.2410431  47.8062820  72.3264465
  26.1781311  46.7417641  72.4937820  76.1134796  64.1151352   7.6433210
  75.8089371  64.9675064   7.3319545  76.7649841  63.8428726   6.9970722
  37.8913460  51.7290039  85.9590988  38.0736961  51.1531181  85.2165833
  38.7455101  52.0883293  86.1989441  61.5849342  65.2036285  28.3122044
  61.7102013  64.2547989  28.3285275  61.9265480  65.5048370  29.1541100
  76.2155075  57.4319725  78.3797989  76.4170074  56.6876907  78.9469604
  76.7906799  58.1316528  78.6894150  58.6802788  52.7887039   1.0539764
  58.1741066  53.3933907   0.5114128  59.5914230  53.0462151   0.9134932
  83.0593262  40.7364655  61.5361977  82.4323883  40.9355049  60.8408089
  82.8308105  41.3386650  62.2442703  37.2923241  48.1216011  12.0591850
  37.0089417  47.7332382  11.2314787  38.2416611  48.2067413  11.9711943
  83.3976669   3.7851682  67.1195526  83.2376862   3.9725275  66.1946030
  83.6607437   4.6266170  67.4923553  56.6851463  18.1698704  80.9892273
  56.3897362  18.4975624  81.8386841  56.9737892  17.2743473  81.1651764
  42.6226006  39.4244576  75.0805359  43.3009033  39.8424072  74.5500107
  42.0137329  39.0534248  74.4419022   5.9438744  55.8759727  25.7325802
   5.0996718  56.1072464  25.3451958   6.1226063  56.5804443  26.3554802
  69.9112167   5.6938043  65.4917068  69.7721024   6.2703466  64.7403870
  70.5126877   6.1782236  66.0572128   7.7763505  31.1201725   1.7971832
   7.2422781  31.7276516   2.3090107   8.4959888  30.8827438   2.3819733
  11.6812611  49.2437973  46.3528481  11.8299055  49.4459763  45.4291267
  10.7471151  49.4047012  46.4859390  71.5869446  13.9312897  47.5277748
  71.2589722  13.7102556  48.3994446  72.5396271  13.9161863  47.6193848
  45.7560120  22.3661728   3.0096126  46.5686150  21.9450779   2.7292778
  45.6065636  23.0540390   2.3609705  18.3546925  28.1072483  70.7279663
  18.1074657  27.5897312  69.9616241  19.2974148  27.9675407  70.8173447
  73.9743423  44.9523277  85.1869812  74.2253494  45.6289940  85.8157501
  73.1222687  44.6434746  85.4948959  54.1164436  20.0570641  30.9359779
  54.5148964  19.2094269  30.7385464  54.1878204  20.1395893  31.8869381
  21.9875355  34.3797569   5.9701552  21.3120060  33.8248367   5.5803447
  22.5559444  33.7702446   6.4409375  82.4673691  23.6453381  13.0317659
  82.4960785  24.5498428  13.3436584  81.5903397  23.3398056  13.2634954
  62.3025856  45.6285477  15.0871992  62.3224411  45.1544952  15.9185295
  63.0490303  45.2838707  14.5970478  71.1796722  66.9672241  50.8983002
  71.7412643  66.3410339  51.3551788  71.1799469  66.6697769  49.9884911
  71.8914032  60.5071526  17.8929634  72.0250168  60.1912613  16.9993248
  72.7634201  60.7709160  18.1866531  73.3243561  31.0668144   4.1801629
  73.6280289  30.2953568   4.6585631  72.3742828  31.0622501   4.2966561
  56.6662865  34.2965202  60.5222778  56.7229805  33.3442459  60.6009598
  55.8004990  34.5142555  60.8675842  69.3771362  55.0123863  27.4393883
  69.0798035  55.7803879  26.9515438  69.1064911  55.1822357  28.3416824
  10.9366312   5.8401222  27.7181110  11.0059013   5.8491144  28.6727581
  11.0848246   4.9260306  27.4758167  51.7603874  62.7120743  67.9741211
  52.6532288  62.6732101  67.6312485  51.8569374  63.0800133  68.8524857
   5.8840394  19.5289860   0.3146425   6.6189876  19.8343506   0.8464659
   6.2080030  19.5658607  -0.5853128  33.8038521  54.9687958  16.6186314
  33.8364754  55.7408905  16.0537949  33.1000595  55.1560287  17.2398033
  78.8201523  57.3926506  81.8705444  78.2656097  57.2193718  82.6312561
  78.3658676  58.0893021  81.3966904   4.4197550  57.8507805  21.5045071
   4.4892397  58.6027565  22.0926704   5.3234463  57.5621452  21.3769817
  49.2861290  69.4438248  25.7460823  48.5811348  68.8200989  25.5723782
  49.5952759  69.7036514  24.8782387  35.6505737  64.3600540  50.3392754
  34.8218689  64.8356705  50.3964539  35.7221680  64.1136322  49.4171143
  65.5382767  42.6233673  63.3026581  65.2319717  42.9316902  64.1555023
  64.7627182  42.2385712  62.8944054  81.8074493  45.7858963  20.8779373
  82.2735672  46.4774323  21.3477688  82.1045837  44.9744225  21.2895737
  53.7047005  15.7522697  13.2526045  54.1153336  14.8985376  13.1156559
  53.4669304  16.0474396  12.3736448  71.2674484  41.6073723  44.2201195
  71.8671188  42.3015747  44.4934578  70.4017487  42.0150032  44.2453499
  14.9552021   8.4215622  68.3151321  14.0494900   8.1181450  68.3772278
  15.0534668   9.0331821  69.0448532  71.2330856  66.4745941  43.8936424
  71.1288681  67.3523407  43.5263252  70.4028397  66.3003540  44.3369942
  51.9248047  69.7687988  60.1810799  51.7427216  69.2916260  60.9906349
  51.5619392  69.2149658  59.4898262  45.5666008  58.2257690  60.5512047
  45.6126366  58.7115059  59.7276917  45.2872849  58.8748817  61.1968575
   0.6324249  38.3540382  65.7692795   0.0142781  38.7831383  65.1776733
   0.5482460  37.4218941  65.5686646  30.4935913  64.3634720  85.0797119
  29.8284245  64.3234024  84.3925629  30.4453182  65.2614288  85.4077225
  81.4863052  33.6809654  70.1280670  82.2484360  33.4859695  70.6733856
  81.4678726  34.6365242  70.0751114  65.6541443   5.5915365  40.0788956
  64.7236176   5.8028383  40.0034447  66.0798111   6.1482778  39.4269142
  55.9546776  34.6401482   5.7304721  55.0425758  34.4815331   5.9736695
  56.4462204  33.9561501   6.1851873  80.8768005   7.5973206   4.8379302
  81.7072601   7.6774487   4.3687229  80.6184921   8.5001268   5.0235310
   4.6111765  27.2336407  10.8804188   4.5843425  26.4541054  10.3255882
   4.1612625  27.9067020  10.3697357  66.2780380  34.4341431  76.5421829
  65.6663742  35.1704178  76.5439911  66.2232437  34.0794296  75.6548233
  38.4829483  24.0774384  46.7609940  39.2496605  23.9310284  46.2069702
  38.4457855  23.3064880  47.3271103  44.3352623  53.0189247  66.7753830
  44.6399841  52.1413536  67.0061340  43.5386505  53.1394539  67.2922058
  15.2751617  37.6899109  34.1282539  14.4670639  37.3660278  33.7303734
  15.7495108  38.1015930  33.4059372  82.1798782  15.8398228  66.1344604
  81.9494629  15.1251411  65.5408554  82.8352966  15.4621429  66.7209854
  47.0677452  47.2066383  49.2774010  46.5058136  47.1486320  50.0501251
  47.8043137  46.6274223  49.4728661  19.5741272  59.2502365  67.6582413
  18.8083153  59.7422523  67.3621216  19.7341747  59.5681534  68.5467987
  27.7145882  57.9756889  76.2075653  28.1551838  57.7597923  75.3856812
  27.6231537  57.1360779  76.6580429  58.3647575   1.0541521  11.8583345
  57.9123383   0.9088826  11.0274029  57.7517929   1.5753336  12.3768663
  55.7890625  46.7066383  26.5971546  56.7328682  46.5626335  26.5283871
  55.7040215  47.4660034  27.1736660  10.5581856  40.6846008  34.3831520
   9.7606621  41.1921997  34.5332565  10.3394823  40.1051407  33.6533432
  67.9125824  67.8586502  53.7608871  67.6350327  68.7721100  53.6917152
  68.7262268  67.8929825  54.2639084  83.1805496   7.1536336  50.3906784
  83.3573837   6.5476270  49.6711502  83.1901779   6.6041961  51.1744232
  60.3850098  63.2584229  77.2778854  61.0103416  63.6536598  76.6704483
  59.7546692  63.9553986  77.4598999  82.8063126  61.4597054  67.3799515
  82.2986984  61.6441269  66.5896683  83.7169037  61.4586258  67.0848999
  23.7587185  28.0349846  12.2635965  23.8809471  28.8534756  12.7445974
  24.0875778  27.3581295  12.8551636  64.2695312  42.8288231  -0.2766290
  64.5829010  42.2791977   0.4416637  63.3369637  42.9486923  -0.0972344
  65.6790848  27.1767311  42.3738785  66.4318161  27.4660835  41.8582230
  65.2782211  27.9871731  42.6880798  63.6008110  10.6255140  82.4497833
  63.9438286  10.0881948  83.1638336  63.7456017  11.5269089  82.7374573
  66.9430237  28.8385448  30.7178230  66.6378250  29.6124706  31.1912460
  66.6120148  28.0995426  31.2282543  71.4978104  62.9346733  82.3575897
  71.1287079  62.4328575  83.0843506  71.4592133  63.8449554  82.6510620
  68.9234390  36.4082375  44.8788834  68.7363739  37.3175163  44.6455307
  68.0696945  35.9757805  44.8606262  86.7467041  45.8076210  62.1747246
  86.4073563  46.7011642  62.1232529  86.3298798  45.3506622  61.4441948
  17.5980358  58.5866394  40.4064445  17.9825916  57.7207489  40.5427551
  16.8532810  58.6152039  41.0070724  81.9487381  38.0186729  40.4490013
  81.7426910  38.9416885  40.3012810  81.6516113  37.8469696  41.3425713
   9.0975676  64.2941513  36.1623764   8.4182310  64.7933502  35.7090149
   9.8448629  64.3087921  35.5644073  73.9500427  12.5993576  23.5138741
  73.8770752  11.8255920  24.0726166  73.9586945  13.3360834  24.1249313
  86.7351479  71.5651186  89.0944900  90.0000000  90.0000000  90.0000000
