QMMM reactant CHA#2 frame 33320
 55680
  33.3160362  46.1335373  49.0436211  32.6161232  46.5487099  49.6418381
  33.6523094  45.4227715  49.6775284  34.0162201  46.8444023  48.8870621
  32.6430969  45.5885925  47.8375130  32.3170319  46.4689140  47.2836037
  33.6565666  44.7681160  46.9749336  33.9963837  43.9534683  47.6144447
  33.0229721  44.3925095  46.1714478  34.8861732  45.5184898  46.5364723
  34.5423393  46.5064774  46.2302780  35.5076485  45.6471214  47.4226570
  35.8076439  44.6986389  45.2207603  36.7281189  43.5914879  46.1616249
  36.1146736  42.7287254  46.4212875  37.6993942  43.3069038  45.7569923
  37.0205269  44.0110550  47.1242104  31.4686260  44.6924667  48.1803665
  31.4378681  44.2048340  49.3296967  30.5383148  44.5004501  47.2773438
  30.4206276  45.2164116  46.5747414  29.6591988  43.3170052  47.3863297
  29.0455208  43.3537445  48.2864113  28.5792370  43.2999229  46.2625237
  29.0206757  43.4065628  45.2716331  28.0339756  42.3596115  46.3437881
  27.6130733  44.4852257  46.4962502  28.2831783  45.3433113  46.4437981
  27.2618694  44.3624611  47.5207939  26.3957920  44.8712807  45.1996956
  25.2318878  43.5562744  45.3918495  25.0014038  43.3314705  46.4332123
  25.6887817  42.6426201  45.0116043  24.3546124  43.7291565  44.7684669
  30.3961849  41.9568329  47.3009949  31.5420647  41.9212608  46.8798637
  29.7674046  40.8585129  47.7245598  28.8635044  40.9503098  48.1657372
  30.2990608  39.4694366  47.5159073  31.3560162  39.5521851  47.2627258
  30.2769356  38.7090034  48.8687439  29.2398529  38.4642677  49.0982323
  30.8800983  37.3271828  48.5944176  31.0915070  36.7556381  49.4981499
  30.2867832  36.8288193  47.8277931  31.8964005  37.3640366  48.2021484
  30.8056870  39.4489822  50.1230431  30.2978306  40.3998184  50.2845840
  30.6612492  38.8868561  51.0456848  32.3161697  39.7764626  50.2255821
  32.6002731  40.5432281  49.5048523  32.6747589  39.9399834  51.2418365
  32.9368820  38.9506149  49.8780327  29.4494400  38.7450981  46.4026260
  28.2187881  38.8400574  46.5003586  29.9900379  38.0112381  45.4708557
  30.9967155  37.9334106  45.4962883  29.3596935  37.3597336  44.2327538
  28.2902565  37.2061424  44.3770180  29.3950367  38.2935028  43.0054932
  30.3880920  38.7337685  42.9154510  29.2625427  37.6408958  42.1425629
  28.2672443  39.3814659  42.9569588  27.2215385  39.0782928  42.9051552
  28.4067459  40.0064507  43.8390236  28.5228367  40.2851486  41.7663612
  29.5993347  40.4469719  41.7109947  28.1585693  39.8636856  40.8294601
  27.6698437  41.4716644  42.0079079  26.6616154  41.4139481  42.0235481
  28.1159267  42.6470337  42.4088898  29.3053322  43.0334206  42.7348328
  29.4552212  44.0295258  42.8083878  30.0678368  42.3742523  42.6701431
  27.2074089  43.5912666  42.4681320  26.2506142  43.3867302  42.2175140
  27.4916878  44.5191879  42.7478600  30.0877304  35.9924622  44.0647697
  30.7945938  35.4304771  44.9809875  29.9663525  35.3597374  42.9348450
  29.4104671  35.7728195  42.1996880  30.4338417  33.9094429  42.7329330
  31.1265564  33.6241875  43.5246887  29.6152744  33.2287254  42.9667625
  30.9021988  33.4839096  41.3455238  30.4812183  33.9892578  40.3294792
  31.7613850  32.4749832  41.2320061  31.7980862  31.9081974  42.0671730
  32.1943359  31.8508301  39.9297295  31.7034569  32.3758163  39.1102638
  33.7323532  32.1065865  39.6091805  34.3386192  31.6574192  40.3958130
  34.0553932  31.3215637  38.3185654  34.0939369  30.2352066  38.3988190
  33.3894615  31.7096767  37.5478554  35.0678749  31.5814228  38.0096092
  34.1605339  33.5841713  39.5359383  33.8002815  33.9636459  38.5797386
  33.6058426  34.1479454  40.2859917  35.6598854  33.8460426  39.7127571
  35.9731865  33.3570328  40.6351547  36.1805496  33.4464684  38.8424988
  35.8011856  34.9153404  39.8700333  31.7375126  30.3649082  39.9333916
  32.1100845  29.5732613  40.7884102  30.8905182  29.9598045  39.0189285
  30.4632492  30.6604137  38.4301262  30.8640194  28.5411873  38.5820122
  31.1271515  27.8759689  39.4044228  29.4543018  28.2820778  38.0914001
  29.1593151  29.1096478  37.4462585  29.5077019  27.3892193  37.4684601
  28.3802242  27.9737911  39.1784821  28.2938538  28.8120022  39.8698883
  27.3658638  27.8102436  38.8145828  28.7768173  26.8463345  40.1699753
  29.5976562  27.1837006  40.8028297  27.9988651  26.6931095  40.9179153
  29.1000576  25.5503407  39.6200867  30.0890942  25.3821774  39.7368202
  28.4772854  24.8564072  38.6685066  27.2099495  25.0099678  38.4865341
  26.7315559  25.7336178  39.0038185  26.6574478  24.4572468  37.8467369
  29.1722775  23.9645424  37.9222488  28.7000294  23.4875946  37.1675301
  30.1525097  23.8083935  38.1089668  31.8798561  28.2615166  37.5245743
  32.1413574  29.1082878  36.6937675  32.4274292  27.0935802  37.4318047
  32.2269440  26.4178562  38.1552048  32.9352074  26.5177555  36.1166420
  32.3321609  26.9174938  35.3013840  33.9452705  26.8305588  35.8519974
  32.9645233  24.9753971  36.0571136  32.6404800  24.3276844  37.0194321
  33.3028259  24.3509216  34.9082184  33.5972404  24.9030209  34.1153717
  33.2868347  22.9034023  34.7353096  33.7683067  22.3815937  35.5623512
  31.8624668  22.4017353  34.5654526  31.8222752  21.4447479  34.0452042
  31.3666687  22.2660503  35.5266342  31.2896767  23.0804062  33.9334526
  34.1746140  22.5178986  33.4643059  34.4527740  23.2935658  32.5520630
  34.6521606  21.2378998  33.4638176  34.3201408  20.5740414  34.1487694
  35.5373154  20.5953312  32.4144478  35.3562889  21.0396328  31.4357090
  37.0315819  20.9458313  32.7424660  37.0837059  22.0300922  32.8412590
  37.5166702  20.3639393  34.0764542  37.8681984  19.3615952  33.8318481
  38.2542877  20.9470615  34.6278000  36.7050438  20.3070927  34.8018074
  37.8648682  20.5076237  31.7385883  38.6187515  21.1007214  31.6999569
  35.3662148  19.0670319  32.3059692  34.7298813  18.5296402  33.1780891
  35.8656998  18.3378792  31.3224812  36.3455048  18.8194427  30.5754986
  35.8646164  16.8533211  31.2882309  35.5468941  16.4652767  32.2559967
  34.9248543  16.2732716  30.2339382  35.1080399  15.2120771  30.0653896
  33.4469070  16.4530106  30.3742256  33.1206093  17.3849373  29.9125652
  33.0393219  15.6615658  29.7452641  33.0546150  16.3269730  31.3833466
  35.1583862  16.9464226  29.0337410  35.9720612  16.5613232  28.7002277
  37.2388649  16.2066994  31.0510025  38.2120094  16.8885555  30.6302986
  37.3688354  14.8895206  31.5093975  36.5954132  14.3945570  31.9300270
  38.5729599  14.0451612  31.2535934  39.2587471  14.5841026  30.5998764
  39.4329338  13.8980827  32.4677811  40.2081223  13.1832018  32.1918602
  40.1753578  15.1883917  32.9963493  40.7172852  15.0270433  33.9282227
  40.9151192  15.5914440  32.3046875  39.4403572  15.9912291  33.0541000
  38.6135902  13.2068214  33.5577049  39.3515778  12.9669371  34.3231659
  37.8528938  13.8535976  33.9948730  38.1088982  12.2814922  33.2799416
  38.2425499  12.7793512  30.5500126  37.1593361  12.1545439  30.7415543
  39.1496582  12.3107519  29.7175293  40.0274582  12.8039360  29.6379204
  38.9625969  11.1749058  28.8515873  37.9102745  11.0535154  28.5947018
  39.8381348  11.2487431  27.6085758  40.8747025  11.3457794  27.9313946
  39.5537376  10.3990393  26.9879131  39.5535736  12.5349560  26.8111515
  39.5429802  13.4647808  27.3798485  40.3775864  12.6971512  26.1163177
  38.2586746  12.5333776  25.9514103  37.1377296  12.6710472  26.4406586
  38.4207382  12.3822002  24.7138481  39.1245041   9.8789711  29.6303425
  38.8072205   8.8187428  29.0938454  39.6711082   9.9035826  30.8660030
  39.9056358  10.7579699  31.3508930  39.9243584   8.7169600  31.6919212
  39.0821342   8.0301371  31.6080456  41.1265259   7.9182529  31.2147636
  41.2538071   7.0558109  31.8690548  40.9398537   7.5545840  30.2043190
  42.4568748   8.6579695  31.2419815  42.2676315   9.7236338  31.3710079
  43.0156288   8.2124319  32.0650177  43.2723274   8.4469452  29.9353905
  43.7570839   7.4761004  30.0382290  42.5004501   8.3578281  29.1709518
  44.3229446   9.5271502  29.7436733  44.0668564  10.3383636  29.1991997
  45.5776634   9.5227728  30.1746559  45.9934120   8.5430479  30.9061890
  46.8866844   8.6422262  31.3669815  45.4075012   7.8065186  31.2727089
  46.3629303  10.5215683  29.9859428  47.3490486  10.4379349  30.1876488
  46.0800781  11.3879347  29.5506229  39.9239731   9.0638113  33.2054977
  40.1691628  10.2327099  33.5133247  39.7021523   8.1084051  33.9980507
  39.3919754   7.2094278  33.6578560  39.9375000   8.2210999  35.4839592
  39.6412048   9.2276354  35.7792625  38.9278374   7.2767868  36.2327614
  37.9286308   7.4732757  35.8440704  39.0829964   6.2512097  35.8977623
  38.9332161   7.4803910  37.7431602  39.2417908   8.6222858  38.2294846
  38.7472839   6.4631953  38.4886360  41.3857231   8.0352907  35.9109268
  41.8435173   6.9227986  35.8586082  42.1120605   9.1135502  36.1880150
  41.5894890   9.9773006  36.2189636  43.5124702   9.2177334  36.6635971
  43.7656975   8.4898071  37.4343758  44.4120369   8.9317732  35.5163193
  44.1471291   7.9207711  35.2067986  44.2740936   9.8094540  34.2002296
  44.4062729  10.8773909  34.3738518  45.0130768   9.4526911  33.4827843
  43.2351608   9.7767973  33.8721199  45.7440948   8.8400726  35.9686699
  46.2763557   8.2364216  35.4453087  43.9039993  10.5779953  37.2997169
  43.3577118  11.6358395  36.8856125  44.8653793  10.6082630  38.2004509
  45.2098160   9.7486238  38.6035423  45.4244308  11.8739414  38.6593399
  44.6493797  12.5792027  38.9593544  46.3785286  11.5912924  39.8540421
  45.8683701  11.1541567  40.7123871  47.1120834  10.8331823  39.5796928
  47.0928307  12.8806229  40.3922081  47.7719727  13.2719316  39.6347504
  46.2400322  13.5537310  40.4803047  47.5606270  12.7353048  41.8431664
  48.7170258  13.1265898  42.1960068  46.8301277  12.1606817  42.6917915
  46.0608826  12.6168003  37.4225922  46.1643791  13.8097219  37.3881302
  46.5227509  11.9443588  36.3746758  46.2674751  10.9678535  36.3376236
  47.3557777  12.4661531  35.2621841  48.1730728  13.0747499  35.6491508
  47.9678535  11.2619257  34.3853302  48.6356201  10.6803799  35.0209351
  47.1105537  10.6496630  34.1055679  48.7115326  11.5092659  33.1111870
  48.1502457  12.1273537  32.4104538  49.6976547  11.9441538  33.2740822
  49.1062660  10.2169895  32.3483086  48.2874451   9.2758341  32.2212906
  50.2224960  10.1964798  31.7322559  46.5784149  13.3534651  34.2933960
  47.1971245  14.1142979  33.5029793  45.2617416  13.3190985  34.4491425
  44.8960342  12.6348038  35.0957451  44.2878952  14.1635122  33.6747780
  44.8176231  14.8185635  32.9831161  43.4022827  13.2412987  32.8495827
  42.8487854  12.4587688  33.3686104  42.5853653  13.8397131  32.4462891
  44.1785240  12.5037947  31.6553402  44.9881325  11.9009323  32.0666656
  43.4721985  11.7530594  31.3009205  44.6058426  13.4227848  30.5523987
  45.5242157  13.0934486  29.7576294  43.9881897  14.5313444  30.3799095
  43.5362053  14.9801683  34.7134743  43.5326653  16.1904011  34.5762253
  42.8274422  14.3360529  35.6858177  42.7655830  13.3305826  35.6130028
  41.8689651  15.0764523  36.4817886  41.0089378  15.4450016  35.9226646
  41.3565331  14.1319256  37.5891609  42.2000351  13.7393303  38.1570282
  40.2639351  14.8801031  38.4305267  39.6285515  14.3096199  39.1079750
  40.8026772  15.5836849  39.0652122  39.6368065  15.5128899  37.8025208
  40.5556450  13.0058441  36.8501205  39.5706177  13.3459215  36.5304871
  41.1862259  12.5789738  36.0702171  40.2294312  11.8225613  37.8270340
  41.0157356  11.5255156  38.5209999  39.2896118  11.9569550  38.3625488
  40.0615807  10.9680338  37.1715126  42.5699081  16.3153820  37.1622505
  42.1185799  17.4566631  36.9409828  43.7153664  16.0876770  37.8463402
  44.0666275  15.1410627  37.8716469  44.4320679  17.2357464  38.5650826
  43.7412682  17.7157612  39.2582512  45.6294136  16.5559464  39.3465004
  45.1757431  15.6715679  39.7938805  46.3701248  16.2285061  38.6169586
  46.4294167  17.2740192  40.4695587  45.6753311  17.6805382  41.1435013
  47.2376785  16.2377491  41.2182617  47.8940926  16.7778797  41.9005241
  46.7004814  15.4096003  41.6805267  47.8040276  15.6685467  40.4811325
  47.3271217  18.4431953  40.0973816  46.6311188  19.1537037  39.6514397
  47.7767868  18.8409729  41.0071449  48.0414581  18.1006889  39.3487053
  44.8609352  18.2697449  37.5681877  44.6156998  19.4523010  37.6551666
  45.4085236  17.8767700  36.3828087  45.5294342  16.8784447  36.2888489
  45.9895401  18.8082504  35.4401627  46.6950455  19.4702206  35.9423141
  46.6775703  17.9662380  34.3547401  45.9503784  17.3044147  33.8843346
  47.1766281  18.6992741  33.7209396  47.7428436  17.0817966  34.9756622
  47.3078232  16.2537670  35.5353241  48.2059479  16.6387596  34.0939865
  48.8029594  17.8358688  35.8515244  49.0136871  19.0515957  35.7788277
  49.5600853  17.0845299  36.6919403  49.5002098  16.1007557  36.9126358
  50.1679268  17.6710339  37.2456970  44.9025269  19.6873112  34.8420258
  45.0188370  20.8918591  34.7645035  43.8604813  19.0733070  34.2440643
  43.8157158  18.0643044  34.2407761  42.6557732  19.6902714  33.5618973
  43.1570435  20.4166336  32.9221764  41.9246788  18.6777992  32.7631149
  41.6068954  17.9115105  33.4701653  41.0047455  19.1868782  32.4756126
  42.5585709  17.8739796  31.5733547  43.4207916  17.3316250  31.9613323
  41.7822495  17.2022114  31.2070866  43.1207619  18.7127857  30.4128189
  42.3329353  19.2560120  29.8909626  43.8066826  19.5033321  30.7172050
  43.6818657  17.7090988  29.3428593  44.4526138  17.0576496  29.7547607
  42.8506775  17.1331024  28.9360981  44.3579712  18.4171543  28.2251968
  45.1553001  18.9469471  28.5472050  44.6218033  17.7727222  27.4936199
  43.6822510  19.0056725  27.7592068  41.7853012  20.4358177  34.6472282
  41.4248962  21.5853329  34.2922630  41.6360168  20.0651779  35.9154243
  41.9731827  19.1646252  36.2243347  41.1873741  20.9379959  36.9629593
  40.2285843  21.3877735  36.7050323  40.9933434  20.0755043  38.2733345
  41.9648972  19.6643028  38.5473747  40.4824295  20.9823532  39.4333572
  41.2488365  21.7074223  39.7072144  39.5318222  21.3928585  39.0928726
  40.3133545  20.3666592  40.3167801  40.0610008  19.0188255  38.0181732
  40.4736900  18.4079628  37.4032440  42.0908051  22.1438961  37.2242966
  41.5721512  23.2332668  37.3535156  43.3867722  21.9805298  37.3237190
  43.7189827  21.0412064  37.1581688  44.3644066  23.0605564  37.4871521
  44.1750679  23.4474735  38.4884224  45.7747498  22.4899597  37.4477768
  45.7669334  21.6752586  38.1718636  46.0609665  21.8529339  36.6108818
  46.8995934  23.5460320  37.8339958  46.8968353  24.4358006  37.2043915
  46.7255936  23.8019962  38.8791313  48.3145218  22.9848938  37.7051353
  48.4327621  22.2082253  38.4607162  48.2847214  22.5591488  36.7021637
  49.4443016  24.0081291  37.8939819  49.2962112  24.8175812  37.1791687
  49.3538475  24.4519634  38.8854103  50.7479401  23.3855000  37.5602226
  51.5020828  24.0501022  37.6585808  50.9709663  22.6328106  38.1956902
  50.6981621  22.9213696  36.6645622  44.1354523  24.0690746  36.3683090
  43.9394989  25.2207565  36.6077194  44.0821075  23.5417500  35.1444931
  44.2646599  22.5545826  35.0337029  43.9702225  24.3421822  33.9267693
  44.7345352  25.1150551  34.0079536  43.9839287  23.5939941  32.6493263
  43.3651581  22.7033119  32.7584534  43.5942497  24.2386703  31.8615150
  45.4373207  23.1745892  32.4357452  45.9968224  23.9935913  31.9837570
  45.8721275  22.9079781  33.3990555  45.5070877  22.0445824  31.4084492
  44.9544258  22.0739346  30.3289108  46.1926117  21.0088806  31.7413349
  46.0379601  20.1909199  31.1693840  46.5788002  20.9862957  32.6743126
  42.6807747  25.0476341  33.9372025  42.7196770  26.2228298  33.4671936
  41.5494804  24.5229721  34.3712997  41.6212883  23.7085705  34.9643364
  40.2528038  25.1694984  34.5333519  40.0902786  25.6403160  33.5638084
  39.1806297  24.1620140  34.8372650  39.1147881  23.4552231  34.0101013
  39.4893608  23.5967045  35.7165909  37.7783203  24.6898155  35.1697960
  37.8795204  25.4843311  35.9091301  37.0735626  25.0683212  33.8161392
  37.0560799  24.1882668  33.1732559  36.0430489  25.3666077  34.0089264
  37.5841637  25.8184204  33.2122078  36.8791122  23.6209850  35.8245621
  35.9286957  24.0638790  36.1223183  36.7273483  22.7328625  35.2111244
  37.2680168  23.3007336  36.7911453  40.3679771  26.3511486  35.4997940
  39.7311325  27.3825016  35.1896210  41.0683289  26.1806831  36.6368408
  41.6161804  25.3499680  36.8096771  41.2035103  27.3123360  37.5856895
  40.2415352  27.7832947  37.7879410  41.6244202  26.7487316  38.9041176
  42.5148964  26.1318016  38.7834778  42.0098381  27.5901241  39.4799767
  40.4997864  26.0502205  39.6425323  39.9838104  25.3330669  39.0041237
  41.1535530  25.2163868  40.6967888  41.6956024  25.8111458  41.4320068
  40.4837265  24.5950985  41.2912941  41.9544373  24.6915417  40.1759987
  39.5457764  27.0099564  40.3429718  39.0149841  27.5994129  39.5953712
  38.7318878  26.5502434  40.9036369  40.0814629  27.6932602  41.0019379
  42.1758308  28.4003811  37.1226807  41.8345642  29.5610065  37.3492737
  43.2435570  28.0431328  36.4247131  43.4747581  27.0628414  36.3493538
  43.9907379  29.0176678  35.5676880  44.3793030  29.7312069  36.2943077
  45.1777649  28.2697468  34.8296432  44.7477303  27.5029716  34.1852646
  45.6250763  28.9567909  34.1113243  46.3169365  27.7279034  35.7323494
  46.1733437  28.3469028  36.6179695  46.0397072  26.7409782  36.1027832
  47.6666565  27.7497730  35.1094627  48.4184036  28.7396069  35.3969116
  47.9930649  26.7564468  34.3799820  43.1791573  29.8000240  34.5418320
  43.5458984  30.9406261  34.2990265  42.2956963  29.1953468  33.7638321
  42.1309853  28.2094517  33.9086800  41.3671913  29.9490891  32.8162613
  41.8639946  30.5341358  32.0423012  40.5785408  28.8780823  32.1112404
  41.1435966  28.0813484  31.6274738  39.8169823  28.3612709  32.6952171
  39.8067894  29.5286961  30.9442787  39.3431206  28.6802807  30.4409885
  39.0772438  30.2326393  31.3446865  40.4404068  30.3952541  29.8659554
  41.0079384  31.2297726  30.2777653  41.0653648  29.7576046  29.2407093
  39.2702904  30.8815765  28.9966698  38.6833115  30.0284405  28.6565037
  38.5955925  31.4734459  29.6151981  39.7824745  31.7994328  27.9256821
  40.3171806  31.1923256  27.3210258  39.0555840  32.2273064  27.3701115
  40.4506760  32.4940109  28.2276173  40.3942566  30.8491688  33.5905037
  40.0900650  31.9333687  33.1567497  39.9915695  30.5335503  34.8384018
  40.0835953  29.5640163  35.1060486  39.2358780  31.3738575  35.7691383
  38.3847122  31.7055969  35.1745186  38.6755028  30.5734596  37.0178642
  39.4807129  29.8648319  37.2117233  38.4944801  31.5273075  38.2803574
  39.4069481  32.0593987  38.5494003  37.7248955  32.2673264  38.0607796
  38.1736221  30.8766594  39.0938721  37.3571968  29.8612652  36.5943451
  36.5371742  30.5702744  36.7082253  37.4960098  29.5433083  35.5610352
  36.9399910  28.6050377  37.3299179  36.9737015  28.7577324  38.4086418
  35.9387321  28.3307171  36.9977646  37.6418152  27.8071194  37.0872803
  40.1244926  32.5792236  36.2192497  39.6816521  33.7233353  36.2378349
  41.4381332  32.3463936  36.5312157  41.7031059  31.3897953  36.3446465
  42.4233627  33.3887482  36.8967285  42.0114784  33.9185448  37.7556648
  43.7735405  32.7424774  37.3649368  43.9912109  31.9040546  36.7032967
  44.8418922  33.8042641  37.3137817  45.6915398  33.6420288  37.9770241
  45.2056351  33.8646164  36.2880363  44.3066673  34.7073059  37.6072845
  43.6901970  32.2240715  38.7722473  43.8070793  33.0334282  39.4929352
  42.6849136  31.8074913  38.8352661  44.6669159  31.0886002  39.0114059
  45.7443047  31.2535343  39.0224686  44.3795738  30.6418972  39.9632416
  44.4455338  30.2737293  38.3221512  42.6729584  34.2985611  35.7062263
  42.8912125  35.4906120  35.8853798  42.7246552  33.8592262  34.4766388
  42.6821251  32.8619308  34.3227310  42.6566010  34.6892776  33.2568970
  43.3863220  35.4944305  33.3425560  42.9244995  33.8388786  31.9505291
  43.8377419  33.2480087  32.0209732  42.1674461  33.0616112  31.8464909
  43.1288795  34.7746086  30.7550488  43.2812424  34.2604218  29.8061028
  42.2373238  35.3614426  30.5340195  44.1443405  35.8829460  30.8520336
  43.9418640  36.9407387  30.1640949  45.1086426  35.8392029  31.6535053
  41.3272934  35.4296341  33.0178337  41.3330879  36.5930405  32.8292122
  40.1653099  34.7636566  33.1421242  40.1608086  33.7594643  33.2501984
  38.8629036  35.3480301  33.0247726  38.8878403  35.8180771  32.0416451
  37.8631096  34.2010269  33.0788765  38.2305946  33.4770203  33.8061066
  36.8569412  34.5103416  33.3618126  37.7251701  33.4404869  31.7667408
  38.7106018  33.3870468  31.3039627  37.4684753  32.3988266  31.9594898
  36.7737999  34.0544243  30.6803036  37.1666603  35.1174240  30.1108608
  35.7117958  33.4466553  30.4083729  38.5680389  36.5280190  33.9414406
  38.0193558  37.5957680  33.5773087  38.9440193  36.3052292  35.1826782
  39.4095802  35.4356461  35.3998756  38.5160904  37.0891800  36.3670425
  37.8517685  37.8707924  35.9984474  37.6115608  36.3063087  37.3165436
  38.1822433  35.5687561  37.8808479  37.1196709  36.9996147  37.9988022
  36.4668617  35.6198349  36.6440201  35.4100037  36.0960999  36.3249741
  36.6662254  34.3704720  36.3145599  35.9453697  33.8664818  35.8181114
  37.5320282  33.9256821  36.5840874  39.6718597  37.8910065  37.0950813
  39.4641991  38.8336143  37.9044342  40.9004173  37.5782089  36.6518669
  41.0938034  36.9869423  35.8561935  42.0856171  38.1591072  37.2451401
  42.9480209  37.6085396  36.8693161  42.2807007  39.6646194  36.7523956
  41.5750809  40.3235512  37.2583656  43.2442322  40.0977020  37.0209923
  42.0821152  39.8569641  35.2836342  42.5908127  39.0724373  34.2699623
  43.3789330  38.4448357  34.3412132  42.0955658  39.6190758  33.1352577
  42.4726105  39.2389069  32.1973305  41.2220230  40.6101227  33.3773994
  40.6964417  41.1653900  32.7174492  41.2589569  40.8039780  34.7278404
  40.7451248  41.6093636  35.2315559  42.2139359  38.1414642  38.8109970
  42.6399879  39.0690689  39.4995308  41.8437538  37.0627098  39.4014626
  41.4115906  36.2955933  38.9066238  41.6137733  36.9702759  40.8858681
  41.0649223  37.8582420  41.1995201  40.7772636  35.6824722  41.3238716
  41.2813988  34.7668610  41.0146713  40.3901863  35.5976219  42.7679825
  40.3658981  36.5772896  43.2452393  39.3638840  35.2304802  42.7645988
  41.0362053  34.9550476  43.3661995  39.6607246  35.8274879  40.4782867
  39.0960274  36.5399971  40.7865906  42.9635925  37.0425224  41.6775627
  43.9342499  36.4410934  41.2477455  42.9261856  37.6686707  42.8061905
  42.0515404  38.1149521  43.0426903  43.9208794  37.4223099  43.8948860
  44.7158241  36.9196434  43.3439865  44.4727020  38.6939659  44.4963036
  45.1674728  38.4596748  45.3028374  44.9962463  39.1013908  43.6314316
  43.5771446  39.9059792  44.7161369  43.0889473  40.2963371  43.8231735
  42.8210678  39.5765305  45.4288139  44.3947182  41.0465965  45.3778877
  45.0353622  40.6972618  46.1876030  44.9659958  41.4832344  44.5586815
  43.4765663  42.1829376  45.8780136  44.1322517  42.9585266  46.2737885
  42.8283958  42.5717087  45.0926247  42.5837631  41.8239212  47.0443726
  42.0549278  42.6178436  47.3762207  41.8278351  41.1600037  46.9555550
  43.1393051  41.5776634  47.8511162  43.3043785  36.4198341  44.9311905
  42.2841492  36.7937241  45.5276260  43.9057655  35.2393799  45.2502174
  45.1464081  34.6968346  44.7153664  45.8694687  35.5097427  44.7821808
  45.0096436  34.4577942  43.6607285  45.4687195  33.4994507  45.5736732
  46.0062294  33.7469139  46.4890671  45.9641151  32.7494583  44.9570808
  44.0540276  32.9750977  45.9880905  44.1277275  32.6650696  47.0304680
  43.6995277  32.2422409  45.2632751  43.1726341  34.1970558  45.9854736
  42.2928734  34.0021057  45.3721886  42.7417183  34.5786018  47.4630280
  41.6952629  34.1647263  47.8726006  43.4070206  35.5596428  48.0130081
  44.2321434  35.8530045  47.5098076  42.9903717  36.3185501  49.2152481
  43.0615082  35.5760117  50.0100288  43.9452705  37.4825745  49.5153694
  43.5391884  37.9780960  50.3972206  44.8991013  37.0309029  49.7879562
  44.1092224  38.5625916  48.4148941  44.7507324  38.1035500  47.6626625
  43.1393929  38.7508659  47.9543724  44.6169510  39.8565254  49.0314713
  45.8075218  39.9192696  49.3773918  43.8114815  40.7820930  49.1483383
  41.4854317  36.7302589  49.2295074  40.8961868  36.8231812  50.3024406
  40.9308357  37.0540619  48.0620461  41.5818825  36.9912338  47.2924385
  39.5167122  37.5788727  47.9562073  39.3514824  38.2136002  48.8267899
  39.4265671  38.4293251  46.6731033  39.8867989  37.7828712  45.9258537
  38.3637085  38.5947914  46.4968834  40.0855713  39.7946510  46.7147865
  40.2277184  40.3903046  47.7844810  40.4592590  40.3251038  45.6915894
  38.4688568  36.5205154  47.9419098  37.3181877  36.8629036  48.0154266
  38.8934517  35.2734642  47.7329865  39.8697205  35.0562935  47.5921440
  37.9501038  34.1370430  47.6478958  37.2291679  34.3496475  46.8584976
  38.6972008  32.9752960  46.9690742  39.4779968  32.6283073  47.6458817
  37.8342628  31.7803364  46.5975380  38.3811684  31.0451565  46.0071983
  37.4401970  31.3128223  47.4998932  36.9478340  32.0900917  46.0440102
  39.2530098  33.5014687  45.5969124  39.7427063  32.6804161  45.0732956
  38.4413681  34.0145607  45.0810890  39.9900665  34.2872887  45.7622299
  37.3697243  33.8129044  48.9909019  38.1556625  33.6253242  49.9337311
  36.1178360  33.6213226  49.1786995  35.5061264  33.5529289  48.3779259
  35.5995865  33.3933220  50.5273438  36.2037239  33.9533539  51.2411270
  34.1119652  33.7991829  50.6110306  33.5860672  33.2221260  49.8504143
  33.4487801  33.4356499  51.9126511  33.7123489  32.4383011  52.2646904
  33.8646927  34.0868454  52.6814575  32.3737602  33.6065178  51.8558159
  33.8923531  35.2821579  50.2114334  32.8729630  35.5185738  50.5164795
  34.6319809  35.9680481  50.6244774  33.9720230  35.3978271  49.1305237
  35.7153168  31.8989544  50.8500252  36.1717377  31.4953194  51.9014053
  35.3035660  31.0392685  49.8675194  34.9173241  31.3844051  49.0004578
  35.3915062  29.5364609  50.0293312  36.2731705  29.2215900  50.5875626
  34.3173981  28.9358101  51.0118446  34.3756981  27.8522339  50.9090576
  34.6029625  29.3130741  51.9937973  32.8586082  29.4291344  50.7724762
  32.3234444  29.0166073  51.6277657  32.8955994  30.5119534  50.8917885
  32.0805435  29.1381016  49.5128479  31.8414650  30.0192699  48.6386604
  31.7069626  27.9243393  49.2438431  31.4399300  27.8157616  48.2758522
  32.1145744  27.1976662  49.8147240  35.2410698  28.9312649  48.6435394
  34.7081909  29.5784874  47.7421837  35.6672020  27.7334137  48.4540215
  36.2603836  27.2430134  49.1080399  35.4415245  27.0513973  47.1894875
  34.8310280  27.6703129  46.5319633  36.7497368  26.9148712  46.4524117
  37.3108597  27.8477345  46.3975410  37.2730255  26.1646729  47.0452614
  36.6492004  26.3939018  45.0284996  35.9079704  25.5959702  44.9839249
  36.2038956  27.0757027  44.3039665  38.2169647  25.8334198  44.3031273
  39.2902260  27.3421764  44.3195038  39.2275734  27.8154507  43.3396072
  39.0525093  28.0609913  45.1036530  40.3085251  27.0097275  44.5211182
  34.7811165  25.6949062  47.4062233  34.8445015  25.2381783  48.4998817
  34.1719246  25.0241337  46.4558678  34.0682259  25.5422897  45.5951347
  33.7240982  23.6626358  46.3960342  34.2488060  23.0336990  47.1152153
  32.2238541  23.5280590  46.7539978  31.6800537  24.1912384  46.0812645
  31.9341049  22.4919834  46.5787811  31.6626892  23.8796101  48.0796738
  31.8001575  24.9391479  48.2955093  30.1219101  23.8554916  48.1039124
  29.8072834  22.8771591  47.7406158  29.7237835  24.0354843  49.1025124
  29.8195019  24.7483044  47.5566177  32.0702515  22.9734325  49.2849617
  31.7121239  21.9491978  49.1810913  33.1503906  23.1189518  49.2997971
  31.6164494  23.4161892  50.1716042  33.8462105  23.0516548  44.9804955
  33.4161530  23.6645947  44.0022507  34.3772240  21.8212452  44.9329338
  34.6226196  21.3180866  45.7735939  34.4233742  21.0597725  43.6548958
  33.9825516  21.6608982  42.8596458  35.8580666  20.8114986  43.1897392
  36.3766708  20.0291328  43.7438622  35.7694702  20.3247604  42.2184830
  36.8148079  22.0146008  43.0224190  36.2237053  22.9082565  42.8222198
  37.7567177  22.2780895  44.2333908  38.3960953  23.1543789  44.1265526
  37.1375847  22.3747711  45.1252594  38.2722549  21.3718758  44.5513535
  37.7302513  21.8880348  41.8211517  38.3281898  20.9937401  41.9966507
  37.1502266  21.8213367  40.9007034  38.4081345  22.7409515  41.7877922
  33.6393967  19.7286587  43.7695198  33.5126534  19.0902576  44.7849350
  33.3622894  19.1381817  42.5721550  33.5479584  19.6955547  41.7505951
  32.6753578  17.8134422  42.4884453  32.9678154  17.2863426  43.3965950
  31.1581688  18.0957928  42.5637894  30.7270832  17.1196594  42.7861099
  31.1047134  18.7517967  43.4326439  30.5978279  18.6415234  41.3820801
  29.8221169  18.1103706  41.1877861  33.1350098  17.0763798  41.2290154
  33.8022308  17.6244087  40.3759651  32.7878761  15.7867727  41.0454063
  32.0303497  15.4511824  41.6230202  33.0135002  15.0146694  39.8131447
  33.0067291  15.6278372  38.9119835  34.3943748  14.3444290  39.8379326
  34.8144608  14.0875416  38.8654938  35.1628990  14.9933453  40.2578964
  34.3275719  13.4593468  40.4705963  31.8576164  13.9399223  39.6146927
  31.3477993  13.4792290  40.6084137  31.6364231  13.5024929  38.3573418
  32.1452713  13.7994509  37.5369835  30.7143078  12.4396410  38.1304588
  29.8072701  12.8398848  38.5834427  30.2925816  12.3110886  36.6472130
  29.7707748  11.3886337  36.3924713  29.4248619  13.5051212  36.2741585
  29.6639366  13.7523270  35.2398338  28.3567200  13.3023653  36.3520241
  29.6292934  14.4430323  36.7905197  31.4122257  12.3512678  35.8451729
  31.9107533  11.5327110  35.9002762  31.1575050  11.0727015  38.7250977
  32.3525314  10.9016933  38.8145027  30.1886349  10.2191038  39.1304092
  28.7666359  10.6204681  39.3524971  28.2945595  10.4134989  38.3920746
  28.7237911  11.5987196  39.8313370  28.1465511   9.6342211  40.2393684
  27.0684414   9.5307045  40.1166344  28.4974728   9.8435984  41.2498741
  28.9067307   8.3743753  39.8425179  28.4463825   7.9470115  38.9517097
  28.8857841   7.5653105  40.5726395  30.3248520   8.9032421  39.6722527
  30.7450161   9.0469007  40.6677055  31.2188416   7.9005642  38.9665527
  31.1429710   6.7183318  39.2182693  32.1046028   8.2776384  38.0967903
  32.1648865   9.2619314  37.8785400  32.9496765   7.4713621  37.1924057
  32.8464127   6.4540749  37.5699806  32.5179482   7.4815855  35.7311859
  33.3287849   6.9630213  35.2195854  31.5436459   7.0096550  35.6042290
  32.2908325   8.8909760  35.2694702  31.7062187   9.0721235  34.1685562
  32.6890564   9.7948370  35.9703484  34.3956108   7.9013801  37.2927895
  35.3511543   7.2330103  36.8433151  34.6583595   8.9820595  38.0482788
  33.8235893   9.5220556  38.2262192  35.9486771   9.4433270  38.3992424
  36.6804047   8.8780069  37.8221054  35.9321747  10.9861345  38.0251846
  35.0831566  11.4102268  38.5612907  36.8130264  11.4592514  38.4591866
  35.8100510  11.3288155  36.5011253  34.8185196  11.0999441  36.1105042
  35.9507065  12.8335867  36.3336868  35.9126968  13.0809393  35.2728004
  35.0146675  13.2276974  36.7294197  36.8125992  13.2953100  36.8154068
  36.8071327  10.5581932  35.5903015  36.8137512  11.0288067  34.6071510
  37.7546997  10.5188446  36.1275787  36.3284874   9.5865736  35.4680214
  36.2021179   9.2865505  39.9188805  35.3069878   9.6828070  40.7122879
  37.3405457   8.6411505  40.2769012  38.0847664   8.5365267  39.6021500
  37.6481209   7.9953446  41.5650940  37.2311134   8.5220680  42.4234428
  37.1920891   6.5467763  41.4736061  37.5335732   6.0479631  40.5665932
  37.6287308   5.9953880  42.3063240  35.6456909   6.4908462  41.4920502
  34.9749374   6.7348204  42.6956177  35.3174171   6.5134473  43.6196327
  33.6758575   6.5828629  42.4030685  32.8496819   6.4915748  43.0926399
  33.4295158   6.4022522  41.0793190  32.5450287   6.2914805  40.6044350
  34.7166100   6.3985219  40.4805183  34.8912811   6.2064400  39.4321899
  39.1521416   8.0519371  41.9366341  39.5036354   8.0134354  43.0851021
  40.0569038   8.2518387  41.0416183  39.7276344   8.2627306  40.0868568
  41.4887390   8.1947107  41.2223930  41.7047195   7.2433362  41.7085419
  42.0388527   8.2898121  39.8029518  43.1244240   8.1924648  39.8157845
  41.6954346   7.4351645  39.2200813  41.8422585   9.2819090  39.3965149
  42.2172318   9.3475637  42.0876541  43.3642883   9.2226000  42.4579620
  41.5784416  10.4854536  42.1905708  40.8588066  10.7052488  41.5168419
  42.0175438  11.6359186  42.9862404  42.3466530  11.2259550  43.9410782
  43.1425171  12.3914576  42.2136955  43.8881493  11.6326370  41.9763641
  42.6415672  12.8860149  40.7684479  42.5646286  11.9783678  40.1698112
  41.6096725  13.2367659  40.7847786  43.2883377  13.6523266  40.3411789
  43.7154884  13.5802908  43.0773392  44.4170303  14.2042456  42.5236015
  42.9508095  14.3099527  43.3437157  44.1514168  13.2400150  44.0166359
  40.9020653  12.5920353  43.5088577  39.8377113  12.6242428  42.7963905
  41.0564346  13.2678709  44.6638794  41.8899002  13.1435528  45.2206459
  40.2227859  14.4440870  45.0788689  39.1742172  14.1656752  44.9735146
  40.5350151  14.8013620  46.5809364  41.6083488  14.9891548  46.6089973
  39.9685478  15.7014189  46.8199196  40.1851578  13.7622576  47.5522156
  38.9015923  13.6880312  48.0378113  38.1950989  14.4801226  47.8381767
  38.5335541  12.6804991  48.9388123  37.5516472  12.6548309  49.3878098
  39.5096474  11.7071819  49.3479958  39.2020340  10.9383488  50.0413094
  40.7481194  11.7468214  48.7220497  41.4388428  10.9508610  48.9581566
  41.1352425  12.8119001  47.9146461  42.1369057  12.8481312  47.5124474
  40.5547142  15.6327095  44.1115074  41.7198296  16.0839901  44.0893555
  39.5755730  16.1911564  43.3726349  38.2222443  15.7439995  43.0104904
  37.6970749  15.4202728  43.9090958  38.3131485  14.9200182  42.3027534
  37.5752373  16.8403549  42.2686081  37.0368690  17.4794903  42.9684410
  36.8249168  16.5476704  41.5341301  38.7235222  17.6205864  41.6861191
  38.3768845  18.6528015  41.6363449  38.9177094  17.3283024  40.6541481
  39.9829674  17.3078728  42.4872208  40.7351570  16.8878059  41.8194885
  40.5481491  18.5443573  43.2317581  41.4331779  19.2597809  42.7585373
  40.1606331  18.6145611  44.5218582  39.6890411  17.8822536  45.0331573
  40.6075096  19.7464676  45.3854294  40.2520294  20.6262512  44.8490410
  39.9478760  19.6413479  46.7806854  40.1599655  18.6738892  47.2358208
  40.3319397  20.4293480  47.4284935  38.8635254  19.7443886  46.7398834
  42.1542244  19.7662754  45.5873642  42.7560921  20.7913704  45.9179916
  42.7810402  18.6232319  45.2410431  42.1819992  17.9274464  44.8201675
  44.2355843  18.3976059  45.2203102  44.4346542  18.5923634  46.2741318
  44.5972824  16.9340668  44.9027634  43.9946594  16.5002785  45.7007484
  44.3261681  16.5309525  43.9270096  46.0552063  16.6072216  45.1474037
  46.6679077  17.0506763  44.3625183  46.3777847  16.9697495  46.1234283
  46.2493439  15.0724049  45.0396538  45.4852753  14.6094809  45.6641579
  46.0839081  14.7797794  44.0027847  47.6913490  14.7554388  45.4234810
  48.4732018  15.3572941  44.9602547  47.7865868  15.1193886  46.4464989
  48.0508080  13.3627224  45.2956123  47.8885422  13.0235586  44.3581963
  49.0443993  13.2410698  45.4300728  47.6024323  12.7045097  45.9167519
  45.0038490  19.4067554  44.2774620  46.1367607  19.7386036  44.5956459
  44.3590584  19.9637089  43.3574791  43.3858414  19.6957550  43.3235092
  44.8718224  20.8967476  42.3854790  45.8481064  20.5179138  42.0830536
  43.9225044  20.8762493  41.1971359  42.9364662  21.2650089  41.4515038
  44.4599800  21.5076866  40.4896698  43.9149132  19.8416653  40.8540955
  45.1236992  22.2993755  43.0133171  45.9639702  22.9898090  42.4970970
  44.4117126  22.7156200  44.0907211  43.8612976  22.0319328  44.5904350
  44.3957787  24.2222862  44.4256401  44.2033424  24.7531586  43.4933090
  43.2512321  24.4743118  45.4284554  43.5200806  24.0248528  46.3843880
  43.0657616  25.9366665  45.6552315  42.7363205  26.4496975  44.7517014
  42.3164520  26.0450916  46.4393692  44.0379639  26.3292866  45.9531975
  41.8478851  23.9670105  45.0082855  41.0173073  24.3066387  45.6270714
  41.6995659  24.4705582  44.0530167  41.7961388  22.8798733  44.9487267
  45.7866707  24.6730156  44.9155121  46.3199768  25.6923122  44.4712105
  46.5474396  23.7695312  45.6075096  46.0611839  23.0387135  46.1070709
  47.9205894  24.0204411  46.0020905  48.1020699  25.0930634  46.0702553
  48.2284622  23.2337284  47.3025818  49.2865448  23.3868580  47.5149841
  47.6229935  23.6244946  48.1203918  47.9564247  21.7392845  47.1249123
  46.9480782  21.5975361  46.7360039  48.6185532  21.4003525  46.3281631
  48.3365669  21.0098400  48.3641510  49.3892365  20.8934441  48.6219063
  47.7251053  21.4991570  49.1222954  47.7756462  19.6259575  48.3603210
  48.3653984  18.8603535  48.0668182  46.5310173  19.3149986  48.3706703
  45.5782204  20.1862049  48.3753166  44.6164970  19.8785782  48.3988342
  45.8678665  21.1482029  48.4790688  46.2279472  18.0595131  48.5443535
  45.2481194  17.8146744  48.5540314  46.9574814  17.3630524  48.4912033
  48.9898109  23.8201389  44.8908463  50.1310501  23.4486942  45.1587524
  48.6101913  24.1557770  43.6114349  47.6117744  24.1082077  43.4665298
  49.4569931  24.3068314  42.4566193  50.5136757  24.2826347  42.7229576
  49.2664108  23.1562290  41.3999786  48.2592850  23.2375908  40.9911041
  49.9954033  23.2683887  40.5974274  49.4004173  21.5904198  41.8156700
  48.5750656  21.3475533  42.4849319  49.3733444  20.9468288  40.9363747
  50.6989021  21.3334999  42.5468445  51.8196869  21.8232117  42.1422501
  50.6882896  20.6247978  43.5698814  49.2176018  25.6547012  41.7065239
  49.8712845  25.9438648  40.7057495  48.3272514  26.4737206  42.2009506
  47.7496758  26.1329403  42.9561844  47.9885559  27.7737484  41.7145233
  48.4364090  27.9095898  40.7301064  46.4772377  27.8956566  41.4636726
  45.9468079  27.8293858  42.4135971  46.2706146  28.7782822  40.8583832
  45.8353958  26.6759834  40.6492958  46.2044411  25.6770649  40.8818130
  44.4237099  26.6889439  41.0338287  43.9102173  25.9249954  40.4500465
  44.2860527  26.3487606  42.0601921  43.9637337  27.6576881  40.8387337
  46.1672935  26.8887024  39.1235085  47.2158089  26.9424362  38.8305359
  45.6325340  26.1415157  38.5371246  45.7188339  27.8466835  38.8603516
  48.5250168  28.8886261  42.6707840  48.2626266  28.7806873  43.8743248
  49.1492500  29.9192181  42.2045555  49.1082764  30.0528851  41.2042809
  50.0136757  30.8296757  42.9414482  50.8397636  30.2011356  43.2740440
  50.8457375  31.8124733  42.1223946  51.3293877  31.3022938  41.2893906
  50.2889786  32.6934738  41.8030853  51.8919296  32.2326393  43.0049210
  51.7432060  33.0568123  43.4742012  49.2930641  31.5119019  44.1637917
  48.4295425  32.3553123  43.9147224  49.6182518  31.0227928  45.3474884
  50.3214340  30.3003654  45.2864151  49.0855179  31.4227448  46.6977119
  49.6323700  30.8037148  47.4089470  49.2456093  32.4881935  46.8628960
  47.6522598  31.1088581  47.0340385  47.1710968  31.3888111  48.1430969
  46.9798813  30.3416958  46.1568756  47.4405022  29.9421597  45.3517036
  45.6857948  29.6962147  46.4159813  45.0042419  30.5017262  46.6893616
  45.1267967  29.0451012  45.1519279  45.8808060  28.3660641  44.7538338
  44.2631912  28.4789219  45.5008163  44.5976486  29.8960228  44.0257912
  45.3865166  30.6863308  43.2585487  46.4534302  30.8225098  43.3562775
  44.6210403  31.5542946  42.5317650  44.9265442  32.2806816  41.9000015
  43.2631607  31.3491039  42.7634354  42.0866776  31.9322758  42.2142868
  42.1857529  32.6739845  41.4355316  40.8221550  31.5145493  42.7129745
  39.9522209  31.9163857  42.2148361  40.7873764  30.5440121  43.7051697
  39.7892609  30.2786102  44.0209732  41.9467888  29.8105583  44.1218681
  42.0095100  29.0759335  44.9110413  43.2236443  30.2398853  43.6541748
  45.6829147  28.6428604  47.5036888  44.6167984  28.2618008  48.0643005
  46.8684692  28.2468872  48.0322037  47.6975632  28.5322742  47.5309486
  47.0361862  27.2713318  49.0427666  46.6735687  26.2706833  48.8075829
  48.5000191  27.0414543  49.3109322  48.4900284  26.2176781  50.0246506
  48.9164696  26.6423512  48.3860588  49.3948326  28.1210270  49.8442650
  49.4910507  28.8387527  49.0295792  48.8463860  28.6995373  50.5876579
  50.7316780  27.6247463  50.3320084  50.8375435  26.8530674  51.2904663
  51.8780403  27.9799824  49.8167496  52.7142754  27.6089764  50.2447357
  51.9261742  28.7607994  49.1779175  46.2799301  27.5135059  50.3498230
  46.2282448  26.6816273  51.2219658  45.6324730  28.6406040  50.6079254
  45.6310463  29.2719860  49.8195953  44.8960419  29.0220528  51.8416023
  44.9638634  28.3024197  52.6574631  45.4485970  30.3844414  52.3384323
  45.1923523  31.1613998  51.6181717  44.9131088  30.6166515  53.2589989
  46.9097748  30.3024216  52.6141891  47.3626137  29.7230988  53.8446007
  46.6446877  29.2076683  54.4653397  48.7132530  29.9571533  54.2391853
  48.9743423  29.6080856  55.2273064  49.6427383  30.6200428  53.3608017
  50.9589920  30.7597408  53.7139397  51.2399025  30.5935555  54.6167526
  49.1654892  31.0125103  52.0647507  49.8396149  31.5018482  51.3773613
  47.8349953  30.9228058  51.7187080  47.6617737  31.4934120  50.8182640
  43.3298950  29.1245308  51.6050301  42.5668793  29.2400513  52.5840988
  42.8008690  29.0816002  50.3544426  43.4385872  28.9118919  49.5898399
  41.3574371  29.1534271  50.0316200  40.8786926  30.0239601  50.4800377
  41.1534386  29.1494675  48.4842720  41.6483421  28.2359447  48.1546555
  39.6869583  29.3838539  48.3160019  39.0400848  28.6606236  48.8125763
  39.4252663  30.3839970  48.6614494  39.3715134  29.3351688  47.2737808
  41.9325256  30.3157692  47.9579124  41.7502213  30.4256058  46.8888969
  41.6942024  31.2949505  48.3732529  43.0071297  30.2372627  48.1227264
  40.6156273  27.8909969  50.6070175  41.0110245  26.8000698  50.1562309
  39.7069855  27.8771954  51.6142616  38.9663429  28.9647465  52.2154274
  37.9885902  29.1587696  51.7744560  39.6197243  29.8371296  52.2036133
  38.6194267  28.3741665  53.5646133  37.7692299  28.9312096  53.9582787
  39.4083366  28.3705997  54.3167496  38.3665466  26.9459934  53.4116478
  37.2997856  26.7686615  53.2749939  38.8117332  26.3209839  54.1857796
  39.1223679  26.6361732  52.1390953  39.9056664  25.9129124  52.3658981
  38.2110291  25.9980030  51.1069679  37.4460220  26.6415119  50.4258270
  38.2960510  24.6656113  50.9989243  38.9333191  24.1236134  51.5648117
  37.6466942  23.8119030  50.0306892  36.6784515  24.2983913  49.9126472
  38.3982353  23.7813454  48.7024117  38.4532242  24.8313732  48.4151535
  39.7788391  23.1859341  48.8882675  40.3447685  23.0796509  47.9627800
  40.4339333  23.7700481  49.5346184  39.5530624  22.1695576  49.2109261
  37.7101822  23.1484718  47.5212059  36.6689377  23.4583645  47.4324455
  38.2914429  23.3731461  46.6269150  37.7264366  22.0638905  47.6285248
  37.2764015  22.4488907  50.5280685  37.8376961  21.9976273  51.4847527
  36.2763824  21.8084183  49.9136429  35.8115845  22.1688786  49.0925865
  35.9809151  20.4145184  50.0580750  36.9035225  19.8342400  50.0447693
  35.2729912  20.0031338  51.4525948  35.5008469  20.8038025  52.1562347
  33.7914696  19.8699703  51.4652557  33.6198578  19.0240269  50.7996521
  33.4411545  19.6715431  52.4781761  33.2394447  20.7324219  51.0916824
  35.8051949  18.7707806  51.9122353  35.2065086  18.1167870  51.5441742
  35.2051315  19.8409214  48.8105507  34.8593025  20.6172733  47.9185562
  35.0388260  18.5091190  48.6121712  35.5525284  17.9691486  49.2938194
  34.6557045  17.8076763  47.4079056  34.6268730  18.4709816  46.5434418
  35.6186562  16.6933041  47.0963821  35.8135109  16.0732822  47.9714317
  35.2837105  16.0360775  46.2939110  37.2122803  17.4297581  46.5434570
  37.8156090  17.5459766  47.7297897  33.2087936  17.2585793  47.6321220
  33.0179024  16.0112858  47.8429985  32.1651192  18.0665207  47.5313950
  32.3446808  19.0143471  47.2322540  30.7666912  17.7329197  47.4487648
  30.3616695  17.3859940  48.3993950  29.9297810  18.9793530  47.1115532
  28.8908119  18.7312031  47.3285103  30.3367367  19.7825871  47.7258034
  29.9576206  19.5369015  45.6948128  31.0032387  19.7365456  45.4604530
  29.6442223  18.7318935  45.0300980  29.0429878  21.0357075  45.1769295
  30.0933514  21.6252384  43.8431664  31.0045013  22.0256996  44.2876167
  30.3378639  20.8403664  43.1274223  29.6102524  22.4423485  43.3073959
  30.6006203  16.5601368  46.4328995  31.1775856  16.5705109  45.3521118
  29.8620396  15.4902277  46.7674484  29.4939384  15.4505758  47.7071419
  29.4246445  14.4353075  45.8523636  30.2665291  14.0991802  45.2470970
  28.9028645  13.3217258  46.7081337  29.6682606  12.9144621  47.3687401
  28.0429573  13.7133150  47.2515717  28.3330288  12.0861931  46.0023499
  28.0817204  11.2638330  46.6721764  27.3887405  12.3135576  45.5076523
  29.2349606  11.4424686  45.0248413  30.2540646  10.8623018  45.3904839
  29.0007935  11.5248623  43.7231827  28.1320724  11.9528694  43.4364166
  29.6779118  11.1915503  43.0519791  28.3219814  14.9311581  44.8704453
  27.2727623  15.4136953  45.2704964  28.5777283  14.6810179  43.5307579
  29.4740734  14.3512878  43.2022057  27.5896187  14.8855133  42.4676666
  27.2159615  15.9087124  42.4283562  28.2821522  14.5553360  41.0824738
  29.2696381  15.0141249  41.0325966  28.4077110  13.4741983  41.0235176
  27.4784718  15.2049561  39.9366150  27.8946285  14.8582640  38.9907150
  26.4585323  14.8205328  39.9301376  27.4575748  16.7179775  39.9182472
  28.5185127  17.2951126  40.3743744  26.4682140  17.3577118  39.5896950
  26.3711166  13.9275866  42.5910606  26.5505047  12.7020674  42.8267059
  25.1540890  14.4812202  42.4688263  25.0638962  15.4331665  42.1436157
  23.9991798  13.5723839  42.4013100  24.1013641  12.8637409  43.2231865
  22.6524487  14.3052874  42.5772133  21.8823910  13.5670547  42.8010941
  22.6851864  14.8391275  43.5269699  22.2007389  15.2708187  41.5107956
  23.0610142  15.8485479  41.1727753  21.8402214  14.7109432  40.6478539
  20.9822063  16.4178867  42.1006393  19.4885807  15.4978695  41.6246071
  19.5426083  14.5751657  42.2023735  18.5597134  16.0421524  41.7950897
  19.6083488  15.3158216  40.5566139  24.0617580  12.7467279  41.1042061
  24.3700027  13.3160267  40.0547295  23.7365093  11.4567585  41.1219749
  23.6043625  10.9984207  42.0122375  23.7470016  10.6323299  39.9291382
  24.5996323  10.9683990  39.3390656  23.8241215   9.1594124  40.2707443
  24.7464542   9.0009270  40.8295708  22.8749371   8.8973188  40.7381363
  23.8933964   8.3133326  39.0178566  23.6963615   7.0674348  39.2012634
  24.2393589   8.8329611  37.8739738  22.4800358  10.9833498  39.1363678
  21.4245281  11.0586042  39.7658806  22.6139679  11.3324213  37.8919334
  23.5196934  11.3038158  37.4459038  21.5205402  11.8252554  37.0637131
  20.6105156  11.4996014  37.5676003  21.5583420  13.4021578  36.9849167
  22.5119553  13.8686237  36.7376671  20.6699581  13.8856049  35.8347321
  19.6751747  13.4409075  35.8072777  20.5415916  14.9645710  35.9210739
  21.0816383  13.7582130  34.8335342  20.9067326  14.0033216  38.2050171
  21.0413589  15.0836535  38.2584801  19.8515358  13.7413988  38.2828636
  21.4478626  13.6449375  39.0807114  21.5185680  11.2336702  35.6369896
  22.5156403  11.2054071  34.9804192  20.3090572  10.7357769  35.2641869
  19.5607071  10.7668419  35.9417610  20.2389641  10.0398178  33.9622498
  21.0425358   9.3038940  33.9341583  18.9437885   9.2795372  33.9219894
  18.8786850   8.6282206  34.7935677  17.6061535  10.0052414  33.8065605
  16.8712788   9.4665880  33.2082977  17.1345882  10.1435432  34.7794914
  17.7746258  10.9890137  33.3684845  19.0916519   8.5280399  32.8171501
  19.3811474   7.6545143  33.0905457  20.4154911  10.9910736  32.7614517
  19.8944664  12.0867138  32.7213135  21.1136303  10.4774103  31.7895603
  21.4400635   9.5318985  31.9293823  21.4254589  11.1369019  30.5571976
  21.8501167  10.3738327  29.9048996  20.5548725  11.5294189  30.0317345
  22.4666252  12.2904530  30.5891361  22.8225136  12.8035812  29.5457020
  23.0140114  12.5928593  31.7380276  22.6475658  11.9977369  32.4671707
  24.0682850  13.5506353  31.9795036  23.6745892  14.5001450  31.6168213
  24.3192272  13.3828611  33.0268707  25.4077168  13.2869205  31.3025856
  25.6796761  12.1908121  30.7977619  26.2586994  14.3007107  31.2076015
  25.9733257  15.1671753  31.6410885  27.6026669  14.1409788  30.5958061
  27.5487366  13.4903555  29.7229462  28.1369457  15.5619535  30.2399654
  27.3026581  16.0648899  29.7509651  28.1946259  16.1328888  31.1666832
  29.5827637  15.6917839  29.5940628  30.3585014  15.1978264  30.1791649
  29.5278969  15.3197851  28.1333942  30.4674835  15.6463509  27.6877117
  29.5552483  14.2312307  28.0843754  28.5830269  15.6754684  27.7225304
  29.7840900  17.1862583  29.5718517  30.6956997  17.4662952  29.0439777
  28.9333630  17.6258202  29.0511246  29.8544922  17.6233826  30.5678768
  28.5862160  13.3473988  31.4346447  28.7927856  13.5735178  32.6048355
  29.3275661  12.4457350  30.7928715  29.2152977  12.3357973  29.7951679
  30.3574600  11.5331278  31.4222584  29.8968124  11.0995913  32.3099251
  30.7129402  10.3161316  30.5556641  30.8430138  10.6889257  29.5396881
  31.5960369   9.7776403  30.8995667  29.5760860   9.1874390  30.5841637
  29.5942822   8.8323526  31.6145458  28.6151237   9.6112337  30.2925339
  30.1530724   7.9928865  29.6905575  30.0377941   8.2047787  28.6275845
  31.2188206   7.7702155  29.7424927  29.3678818   6.7218971  29.8802967
  29.7935219   6.0018396  29.1814060  29.5252934   6.3233290  30.8825264
  27.8863678   6.9225206  29.5480843  27.3564644   7.2882586  30.3262482
  27.8047485   7.4802513  28.7100048  27.4215889   6.0635209  29.2907906
  31.6485882  12.2249508  31.7998867  32.0037994  13.2162113  31.1637325
  32.3263588  11.5829649  32.7598076  31.9112034  10.7562075  33.1650429
  33.7002411  11.9654436  33.2356529  33.7660599  11.5015287  34.2198029
  34.7740936  11.3589649  32.3632202  34.6228256  11.6849632  31.3341694
  35.7188988  11.6915913  32.7931099  34.8281250   9.8141203  32.3586006
  34.8943367   9.2932281  33.3137894  33.9030228   9.5578260  31.8422680
  35.9390564   9.3167343  31.4984627  35.7711716   9.5735788  30.4525452
  36.8941154   9.7803230  31.7455368  35.9872093   7.8407431  31.3984699
  36.8329086   7.5236192  30.7882843  36.1467743   7.3974195  32.3813820
  34.7707520   7.2984896  30.7132511  34.6959343   7.6816573  29.7817554
  34.8394737   6.2908869  30.7240753  33.9137688   7.6005945  31.1541767
  33.8705025  13.4783421  33.5057678  34.8779640  14.0779209  33.1685753
  32.8381157  14.1565943  33.9794617  32.1065788  13.6338835  34.4396057
  32.8416977  15.5855055  34.0896072  33.5232315  16.0712814  33.3913002
  31.4636116  16.1545677  33.7415085  30.9376144  15.5785084  32.9802055
  30.8849201  16.0445232  34.6586304  31.5104942  17.8745251  33.1653137
  32.3433647  17.7209244  32.1320457  33.3196259  15.9349775  35.5439224
  33.0995865  15.2380304  36.5064774  33.9229889  17.1082726  35.6415749
  33.9535866  17.7527695  34.8645363  34.3805161  17.8075085  36.8329697
  33.9758415  17.2827606  37.6984062  35.9286041  17.6493359  36.9423294
  36.4111099  18.4689255  36.4098244  36.3325310  17.9021053  38.4249268
  36.0139999  18.8523674  38.8534584  35.8536072  17.1631508  39.0673256
  37.4204903  17.8481846  38.4641876  36.6318703  16.3590851  36.4324570
  36.8692627  15.7428493  37.2996368  35.9606018  15.7680473  35.8094215
  37.8054581  16.6162853  35.5774574  37.5310097  16.9273968  34.5695000
  38.4253502  17.3235664  36.1284447  38.3327522  15.6780453  35.4049187
  33.9268646  19.2649384  36.8678474  33.8982468  19.9445801  35.8575935
  33.5597420  19.7535019  38.0570183  33.7641869  19.1748734  38.8591995
  33.0144882  21.1553211  38.3228226  33.0981865  21.7498798  37.4131012
  31.5501461  20.9281006  38.6204643  31.5165806  20.4617519  39.6050911
  31.1053333  21.9186230  38.7159004  30.7598267  20.0240669  37.7029419
  30.9055882  20.4576454  36.7135658  31.1283569  19.0108814  37.8633766
  29.2412128  20.0170288  37.7928162  28.8225594  20.9793091  37.4981194
  28.8985043  19.2258358  37.1259842  28.7519627  19.6739388  39.0959282
  28.9748974  18.7712097  39.4902382  27.9054947  20.2581043  39.8406677
  27.3213940  21.3924255  39.5345306  26.5974712  21.7466831  40.1432533
  27.2602825  21.7151699  38.5794373  27.5209675  19.7880840  41.0494385
  26.8365250  20.3169632  41.5709076  27.7295094  18.8237476  41.2654610
  33.8149147  21.9477139  39.3752403  34.5871162  21.3995953  40.1589584
  33.4376984  23.2570248  39.4837189  32.8542442  23.5200024  38.7023582
  33.8917694  24.2714844  40.4645195  34.0770798  23.6215706  41.3197250
  35.0173264  25.1299095  39.8783836  34.6731720  25.5186481  38.9199791
  35.4089699  26.2924156  40.8697281  35.5055962  25.8702240  41.8699875
  36.3745270  26.6335773  40.4963417  34.6382713  27.0596409  40.9438210
  36.3458862  24.2891960  39.7531319  36.2657394  23.3821373  39.1540337
  37.0320053  24.9481201  39.2210045  36.7363815  24.0031090  40.7297401
  32.7387543  25.1543007  40.8251114  32.0129967  25.5801601  39.9667435
  32.6727371  25.5087185  42.0951004  33.1204033  24.9671764  42.8206558
  31.9006596  26.5595455  42.6469841  31.5984993  27.2177792  41.8324089
  30.6391277  25.9576778  43.3610458  30.1204338  25.3911419  42.5876808
  30.9265404  25.1320724  44.0121078  29.7326660  26.9276638  44.1632385
  29.1484909  26.1972847  44.7230453  30.4308968  27.4779644  44.7939148
  28.7094402  28.0713768  43.1914940  28.9197216  29.6635170  44.2064781
  29.9426079  30.0292721  44.1169434  28.1779842  30.3433552  43.7872581
  28.7002544  29.5770550  45.2706490  32.6847610  27.3637276  43.6937065
  33.3692665  26.8305111  44.5319176  32.5857658  28.6711826  43.5966263
  32.2856636  29.0420189  42.7063904  33.2015495  29.6185188  44.5812531
  33.1108551  29.1797256  45.5748978  34.7474632  29.8931980  44.3339996
  35.0468826  30.5333729  45.1638336  35.2572784  28.9325886  44.2603912
  35.0868378  30.7363186  43.1440277  34.5848541  30.3238010  42.2688484
  34.6487579  31.7026119  43.3939590  36.8814201  31.1226139  42.9519196
  37.4186478  29.6756554  42.1082573  37.1392784  29.7862492  41.0604897
  38.4877510  29.5218029  42.2547188  36.9152184  28.8463917  42.6052208
  32.4607048  30.9470406  44.7545624  31.8740807  31.4468670  43.8136902
  32.6053467  31.5764809  45.9244995  33.1176071  31.0708923  46.6330681
  32.2225685  32.9415550  46.1879578  31.7432919  33.3089180  45.2805214
  31.1113510  33.0731659  47.2520256  30.9305134  34.1359215  47.4131050
  29.8789692  32.3594093  46.9691353  29.4441566  32.7506561  46.0493774
  30.1381931  31.3185196  46.7756119  29.1065865  32.4860382  47.7277451
  31.4556274  32.6147690  48.5859299  31.8677826  31.7656136  48.4108200
  33.4488525  33.7774315  46.4227829  34.4661140  33.2941322  46.8785133
  33.4507790  35.1075020  46.0386086  32.6605377  35.4644394  45.5207100
  34.5516090  36.0420952  45.9511108  35.3459396  35.6911087  46.6098633
  35.1324883  36.0410919  44.4971962  35.4021988  35.0095329  44.2708092
  34.1447906  36.3194542  43.3426819  34.6396294  36.3546600  42.3721199
  33.4179192  35.5072136  43.3475571  33.5426216  37.1950874  43.5850945
  36.3827896  36.9239006  44.3590126  37.0322380  36.7390060  45.2146606
  37.0611877  36.7520943  43.5233307  36.1967468  37.9961624  44.4202538
  34.0432129  37.4845428  46.2647705  32.9341698  37.9405365  45.8003159
  34.8582573  38.3692398  46.9315872  35.8331108  38.1167259  47.0090599
  34.4853592  39.8423653  46.9653015  33.4282379  39.9167786  47.2203674
  35.0865898  40.5838356  48.1724663  34.7492180  41.6203117  48.1747551
  34.7865524  40.1345520  49.1191559  36.6041908  40.6855469  48.2500916
  37.0112381  39.7577286  48.6520386  36.9455452  40.9189682  47.2415810
  36.9941902  41.7676239  49.2118225  36.2186203  42.3147964  50.0349617
  38.2425041  42.1193810  49.1162643  38.6166840  42.9781075  49.4939842
  38.8575630  41.6467056  48.4694405  34.7129288  40.5053520  45.6069260
  35.8574867  40.3926468  45.1865234  33.7381706  41.0580254  44.8922043
  32.8308754  41.1680107  45.3221092  33.9043159  41.8047943  43.6378136
  34.9042244  42.2373886  43.6040497  33.8624763  40.7935028  42.4449501
  34.6846542  40.0780144  42.4306717  32.5287399  40.0371017  42.4265976
  32.5335732  39.3153763  41.6097717  32.4822807  39.4129944  43.3190269
  31.6938629  40.7234344  42.2850838  33.8923721  41.4827080  41.1959915
  34.6648369  42.0487938  41.1292839  32.9515800  42.9261780  43.4907227
  31.8013229  42.8821983  43.8537064  33.3426781  43.9718285  42.7819405
  34.2321053  43.8892937  42.3105507  32.6240463  45.2366943  42.4641190
  31.8929176  45.3354950  43.2664909  33.5908928  46.3274231  42.4700241
  33.0662498  47.2282143  42.1515541  33.9436722  46.4972878  43.4872742
  34.6657372  46.3366890  41.4306984  34.8433800  45.3483925  40.6441231
  35.4913216  47.2929268  41.3908844  31.9513550  45.1033325  41.1049385
  31.4968147  46.1004143  40.6221237  31.8589554  43.9533920  40.5116577
  32.1756554  43.1517487  41.0381241  31.4186039  43.7597771  39.1264648
  31.4246559  44.6957169  38.5678215  32.4141579  42.8217773  38.3833160
  32.3548126  41.9343605  39.0134506  31.8909683  42.4250793  36.9252205
  30.8851643  42.0113487  36.9979820  31.9413414  43.3113098  36.2926407
  32.6091385  41.7166405  36.5123634  33.8684578  43.3670464  38.2907028
  34.2321968  43.4613075  39.3138885  34.5335541  42.7612915  37.6752319
  33.9079819  44.3727646  37.8722878  29.9728413  43.3148346  39.0954514
  29.7243195  42.2789154  39.7453041  29.0313702  43.9790306  38.4294052
  29.2132435  45.3435364  37.8486862  29.9302921  45.4375458  37.0331459
  29.5993099  45.9290352  38.6830978  27.8091927  45.7772293  37.4568443
  27.7900257  46.4244919  36.5800438  27.3550854  46.3418846  38.2711296
  26.9696217  44.5183983  37.4011269  26.8834267  44.1164780  36.3916092
  25.9424438  44.7368851  37.6931343  27.5872936  43.5896759  38.3365631
  27.1845722  43.7188950  39.3411598  27.3286686  42.1926613  37.9553680
  28.0697918  41.5442543  37.2267799  26.2638016  41.6239090  38.4695816
  25.6283379  42.1505890  39.0517235  25.8600063  40.2276459  38.3973885
  26.4684315  39.6947937  39.1281357  24.4574184  40.1173439  39.0786018
  24.3009167  39.0543900  39.2622986  24.5627480  40.6714706  40.0113144
  23.3112736  40.7593040  38.2148399  23.6801262  41.6703491  37.7436218
  23.0291195  40.1653061  37.3455582  22.0277386  40.8988037  39.0060692
  21.4803925  39.9112167  39.5448303  21.4412575  42.0093994  38.9081764
  22.0393734  42.7428818  38.5555153  20.5098362  42.1932945  39.2527618
  25.8800011  39.5944977  36.9829254  26.0239868  38.3680115  36.9416656
  25.6180401  40.3204536  35.9619865  25.6735344  41.3251877  36.0487671
  25.5243683  39.8236847  34.6334496  25.0082970  38.8638573  34.6557884
  24.6439800  40.7739258  33.7479591  24.8113689  40.4274902  32.7281227
  23.6329231  40.5915146  34.1120872  24.9312916  42.2731247  33.8211327
  24.4370689  42.8611488  32.8584442  25.6089725  42.7869682  34.7248039
  26.8841934  39.7246513  33.8450394  27.1115608  39.0013313  32.8808250
  27.8512230  40.5247231  34.3313713  27.5263119  41.0675278  35.1187057
  29.2521591  40.6204224  33.8412437  29.2174053  40.4572983  32.7640800
  29.6552219  42.0522003  34.1483231  29.6695023  42.2209816  35.2250824
  30.6954021  42.2199745  33.8690834  28.7717972  43.0902519  33.3612022
  29.1227169  43.1034470  32.3293190  27.7495747  42.7143669  33.4045105
  28.8358650  44.4848404  34.0116119  29.8372021  44.7528152  34.6509285
  27.8643532  45.3436928  33.7838554  27.1453190  45.0797615  33.1254959
  27.7301388  46.2238617  34.2607079  30.2457314  39.6402397  34.3488426
  31.2922134  39.4654999  33.7845268  29.9222050  38.8408241  35.3520966
  29.0174427  38.9497795  35.7875671  30.7402077  37.6397591  35.8530464
  31.6645546  38.0976944  36.2051468  30.1087608  37.0163574  37.0689278
  29.1605091  36.5531120  36.7962990  31.0162964  35.9211159  37.6334839
  30.6604080  35.6793556  38.6349831  30.9833965  35.0460854  36.9843788
  32.0507927  36.2644577  37.6271477  29.6056671  38.0326767  38.1282043
  29.0219555  38.7298012  37.5270348  28.9139233  37.5787621  38.8378181
  30.7343864  38.7104225  38.8124771  31.3644962  39.2869606  38.1352272
  30.2932968  39.4044914  39.5278854  31.4284573  37.9917374  39.2482033
  31.0422249  36.5814171  34.8262024  30.1144409  36.0868530  34.1399040
  32.2963142  36.1818695  34.6629715  33.0880241  36.5440216  35.1749649
  32.7736206  35.0995102  33.7045212  32.0973473  34.8729439  32.8802490
  34.2220383  35.5183105  33.2671852  34.9041061  35.4818230  34.1166306
  34.6427078  34.7609138  32.6057549  34.0635567  36.8832016  32.5162849
  33.1530914  36.8355331  31.9188805  34.0818672  37.6339226  33.3063393
  35.3479385  37.0650978  31.6483021  36.1748924  36.9705582  32.3520851
  35.2696686  36.3149109  30.8614120  35.4387817  38.3990173  30.9366932
  34.9212608  39.1335258  31.3979645  36.2233353  38.7230835  29.9545307
  37.0542679  37.8564606  29.5168152  37.4401245  37.9941025  28.5936317
  36.9868813  36.9163170  29.8797092  36.0705376  39.9150963  29.4423389
  35.3514709  40.5179634  29.8159695  36.6967850  40.2806854  28.7393055
  32.8464890  33.7657547  34.4219437  33.8508339  33.3481407  34.9993248
  31.7531948  33.0242424  34.2406349  31.0519276  33.4575806  33.6570740
  31.6075859  31.6131001  34.5717316  32.1417580  31.4020386  35.4981270
  30.1609287  31.1423054  34.7923660  29.6052113  30.9833412  33.8682404
  30.1879749  30.1320457  35.2007103  29.3901653  32.0131187  35.7518539
  29.5644512  32.0766220  37.1484375  28.8803806  33.1546364  37.5937767
  28.8195515  33.5617828  38.5922394  28.4555035  33.7895660  36.4816437
  27.8582554  34.6035461  36.5105247  28.6532650  33.0847931  35.3715553
  28.3637772  33.3701706  34.3709793  32.3392487  30.8404655  33.5015755
  32.0996857  31.1406040  32.3087883  33.0294800  29.7738266  33.7873459
  33.0943146  29.4812889  34.7518768  34.0673599  29.2728367  32.8294067
  33.9908104  29.8304329  31.8959579  35.4967842  29.5640945  33.3972778
  35.6700821  28.9683456  34.2934647  36.6356392  29.2520695  32.3983650
  36.4642982  29.8685150  31.5159035  37.6171341  29.5006447  32.8020706
  36.6621475  28.2348614  32.0076180  35.6715012  31.0102654  33.7518768
  35.0247269  31.6116142  33.1129990  35.2491417  31.0587120  34.7555542
  36.7067223  31.3513374  33.7602615  33.8772354  27.7768822  32.5042648
  33.6385078  26.8854465  33.3500443  34.0950546  27.4351463  31.2675438
  34.6288986  28.1516933  30.7967243  33.7847977  26.1793003  30.5863876
  33.7876244  25.4372234  31.3847694  32.4260864  26.2928143  29.8957634
  32.3665428  27.1527615  29.2286434  32.2102852  25.3828354  29.3358822
  31.4118214  26.4399223  31.0159473  30.9237366  25.3207531  31.7661514
  31.2825165  24.3219852  31.5658016  30.1467361  25.5558205  32.8767281
  30.0382652  24.7105598  33.5401840  29.7689686  26.8942356  33.1268845
  29.0357075  27.0621815  34.2145538  28.5109615  26.2790165  34.3959236
  30.1917019  28.0292702  32.4459114  29.7871704  28.9978676  32.7000542
  31.0342426  27.8098335  31.3330746  31.2788162  28.5870934  30.6242390
  34.8242645  25.6354122  29.5732307  35.2258339  26.4600163  28.6888866
  35.3076820  24.3940334  29.7291107  34.9601555  23.8518009  30.5071278
  36.3054276  23.7581882  28.9460754  36.5192223  24.3658791  28.0668087
  37.6285553  23.6729126  29.7652569  37.5389328  23.1430492  30.7135735
  38.3349342  23.0208721  29.2514744  38.2302017  25.0711231  30.0825176
  37.4867516  25.5936203  30.6844959  39.4769821  25.0472260  30.9564323
  39.2554665  24.4816837  31.8615265  40.1774712  24.3984680  30.4305706
  39.8466148  26.0557327  31.1418591  38.6025009  25.9592247  28.8511810
  39.0169220  26.9019260  29.2084846  39.1546211  25.3496418  28.1358681
  37.6710892  26.1303883  28.3114777  35.8532753  22.3625870  28.4830399
  34.8106422  21.8333912  28.9257011  36.6347427  21.7399349  27.5720882
  37.4320068  22.2565117  27.2291355  36.4763451  20.4166527  27.0319195
  37.0132179  20.5274868  26.0898018  37.1939774  19.3475151  27.9352150
  36.6933250  19.4191608  28.9007797  36.9939117  18.3428898  27.5626431
  38.6775513  19.6814423  28.1775341  38.8884201  20.7154980  28.4502335
  38.9133682  19.0965748  29.0665894  39.5398140  19.0512562  27.0534897
  39.9853821  19.9127064  26.2427158  39.7538490  17.8291054  26.8966904
  35.0729942  20.1798553  26.5701752  34.5533562  20.8598785  25.7031631
  34.4134712  19.1732750  27.0880775  34.9178543  18.5777435  27.7292042
  33.0265656  18.8334751  26.7024345  32.6990891  19.2002182  25.7296238
  32.9909248  17.2891445  26.5543385  33.0037727  16.8239155  27.5399818
  32.0024338  16.9631996  26.2306957  34.1000900  16.7150764  25.6698914
  34.0135765  17.2521152  24.7253246  35.1059990  16.8569946  26.0649948
  33.9417343  15.1598692  25.4134102  33.9412041  14.6891823  26.3965454
  32.9137650  15.0108109  25.0830078  35.1089287  14.7337036  24.5473881
  34.9905472  15.2216225  23.5799065  36.0584412  15.0858965  24.9504814
  35.0499191  13.2565460  24.3291779  35.2555275  12.8024416  25.2075958
  34.2450485  12.8384342  23.8848057  35.7988739  12.9308014  23.7349930
  31.9366035  19.3610535  27.5391121  30.8202057  19.5376396  27.0527134
  32.2963409  19.7477684  28.7631474  33.2975693  19.8448601  28.8538456
  31.4961014  20.5103722  29.7083149  30.5216694  20.0765057  29.9326859
  32.2681847  20.6423912  31.0214939  32.5709648  19.6570473  31.3757801
  33.0722961  21.3672218  30.8945065  31.6186676  20.9305992  31.8480301
  31.1325874  21.8749752  29.2039146  30.3550491  22.5340996  29.9216843
  31.5573101  22.3718357  28.0289402  32.2836418  21.9163303  27.4950294
  31.0040722  23.5253296  27.3600464  31.2239246  24.4018154  27.9695835
  31.6821194  23.9027481  26.0267429  31.1934128  24.8076439  25.6655903
  33.1897545  24.1522732  26.1883793  33.7349854  23.2389145  26.4262772
  33.5310402  24.6554680  25.2837143  33.3599548  24.8513660  27.0071640
  31.4424248  22.8657608  24.8893013  30.3894577  22.6022892  24.7895813
  31.8238773  23.1862736  23.9198322  31.9175739  21.8992119  25.0570183
  29.4224300  23.4954910  27.1570911  28.7226105  24.5323200  27.0694332
  28.8405724  22.2434521  26.9875546  29.3617210  21.3787422  26.9596405
  27.3745594  22.1439476  27.0341949  27.0074310  22.9317360  26.3763924
  26.9178352  20.7233620  26.4590893  25.8314590  20.8120708  26.4631901
  27.3439484  20.5707493  25.0311680  26.9401779  19.6738300  24.5614853
  26.9814243  21.3187504  24.3260632  28.4244213  20.5994854  24.8902721
  27.2120972  19.5274124  27.3354816  28.2921753  19.5141983  27.4816151
  26.6791840  19.5912323  28.2841816  26.9600220  18.6149845  26.7950821
  26.7278194  22.4403324  28.4359341  25.5392818  22.6531906  28.5560455
  27.5129662  22.3848572  29.5269527  28.4942665  22.1831264  29.3986759
  27.0823402  22.6029339  30.9089489  26.0603275  22.2249069  30.9351330
  27.8849258  21.7958622  31.9545040  28.8808575  22.2073612  32.1184807
  27.3184128  21.9297161  32.8760490  27.9149761  20.3183384  31.6962585
  28.5975456  20.1160221  30.8708649  28.3983536  19.4918671  32.9007416
  29.4340553  19.8049240  33.0327225  27.7729530  19.6147556  33.7849770
  28.3108387  18.4452171  32.6092529  26.5339260  19.6664028  31.1918564
  26.8408546  18.6292801  31.0566921  25.7479534  19.5776215  31.9418335
  26.0620594  20.0408878  30.2834454  26.9672546  24.0739384  31.2795238
  26.8154392  24.3153210  32.5093384  26.8402596  24.9985695  30.3452454
  27.0159836  24.8639107  29.3598080  26.6500320  26.4455166  30.6654701
  27.2729473  26.5907173  31.5480804  27.3590412  27.3082561  29.5969505
  27.2423801  28.3670864  29.8279648  28.4156761  27.1063538  29.4212856
  26.7657433  27.2360306  28.2158298  26.6423969  26.2466297  27.7754078
  25.8055973  27.7520027  28.2162285  27.6560555  28.0562458  27.1923256
  27.7180805  29.0603333  27.6119308  28.6472855  27.6175404  27.0778770
  26.9623070  28.0919151  25.8683872  26.5893040  28.9808750  25.5671921
  26.9155102  27.1439915  24.9258823  27.4190464  25.9852409  25.1365528
  27.9256821  25.7491722  25.9778004  27.5290318  25.2861156  24.4159775
  26.3387222  27.2758617  23.8150272  25.9461689  28.1632462  23.5347519
  26.3568611  26.5448036  23.1183758  25.2543335  26.8860226  31.0817928
  24.2786427  26.3052883  30.5722427  25.0342789  28.0005016  31.8299427
  25.9565506  28.8355923  32.5987663  26.3412075  29.5369225  31.8583126
  26.7903519  28.3228397  33.0783195  25.1419678  29.5554676  33.6405029
  25.6407566  30.5004368  33.8557892  24.8839970  28.8471718  34.4278221
  23.8317089  29.7690639  32.8697739  23.9596596  30.5811005  32.1540070
  22.9475765  29.9701729  33.4747238  23.6320877  28.4977856  32.1523590
  23.0858688  27.7013454  32.6577568  22.8674030  28.8362789  30.8253479
  21.6640053  29.0282860  30.8458900  23.5668545  29.0015507  29.6485367
  24.5754223  28.9478111  29.6506138  23.0174046  29.3882389  28.3637981
  23.7560730  29.6214676  27.5969391  22.2661896  28.2166996  27.7375507
  22.6738014  27.2091389  27.8198586  21.3045311  28.2106419  28.2506580
  22.0732479  28.3497162  26.1893253  22.5641670  29.4313984  25.6851082
  21.5972900  27.4530201  25.4904213  22.2276287  30.7151527  28.5122185
  21.0011425  30.7862186  28.3718433  22.9416714  31.7583199  28.9362373
  23.9384041  31.5951805  28.9333553  22.4398613  33.0937958  29.2931423
  21.6345711  32.9916115  30.0205784  23.5052872  34.0163879  29.8721066
  24.1015205  34.5035591  29.1005707  22.9308662  34.8396797  30.2967606
  24.2652531  33.4427223  31.0532379  24.5415497  32.4097328  30.8418312
  25.5923977  34.1699715  31.0981522  25.4859734  35.2470016  31.2276936
  26.2091389  33.7894325  31.9123497  26.1281891  34.0105095  30.1624222
  23.3796959  33.4051628  32.3219261  22.7233849  32.5416679  32.2135963
  22.8059044  34.3170815  32.4870491  23.9588165  33.2721024  33.2357178
  21.6369667  33.7164841  28.0848522  22.1802006  33.7646828  26.9689178
  20.4896107  34.3355751  28.3711872  20.1539402  34.2806587  29.3221931
  19.8493767  35.2421951  27.4107513  20.5339451  35.5776482  26.6316872
  18.7575340  34.4463081  26.7102451  19.2033768  33.6927719  26.0610104
  18.1530762  33.9458961  27.4667625  17.8173714  35.3277664  26.0260868
  18.2456665  35.6829681  25.2437840  19.3363743  36.5230560  28.0729103
  18.8059769  36.4897346  29.2235355  19.3516598  37.7119598  27.3868999
  19.8438225  37.7723427  26.5069962  19.0192890  38.9802322  28.0126419
  19.5594349  39.0574493  28.9562416  19.6184940  40.0650749  27.0811329
  20.5693283  39.6847496  26.7078133  19.0170174  40.1904755  26.1807995
  19.8733826  41.5135345  27.6838303  19.0054531  41.9548798  28.1737461
  20.8685703  41.4753494  28.8228245  21.0378323  42.4966202  29.1641006
  21.7769318  40.9979515  28.4553013  20.5692234  40.8165321  29.6379623
  20.3123722  42.4127235  26.6041946  21.2927227  42.0539436  26.2906895
  19.6351089  42.3326797  25.7538967  20.4296951  43.4612617  26.8778782
  17.5655403  39.1533966  28.1642475  17.1184902  39.7030525  29.1788063
  16.7796288  38.4660835  27.3329887  17.2583599  38.0304108  26.5576801
  15.2809105  38.2114487  27.5339546  14.6402407  39.0473137  27.2529297
  14.8213177  37.0471382  26.6051865  13.7326622  37.0021820  26.6353245
  15.0291281  37.1444817  25.0400677  16.0353107  37.5495262  24.9322033
  15.1544695  36.1246605  24.6762505  14.2322416  37.7211418  24.5704536
  15.2076130  35.7495613  27.0102940  16.0840263  35.4712067  26.7345753
  14.8536911  37.7276039  28.9200306  13.6952772  37.8180428  29.2823753
  15.7722492  37.2548027  29.8487358  16.6959248  37.1483955  29.4542713
  15.4315529  36.5702782  31.1879845  14.3666754  36.3377342  31.1804276
  16.1493225  35.1638832  31.2426300  17.2268715  35.3093109  31.3190536
  15.7889843  34.6769257  32.1487923  15.8118782  34.1416626  30.1294308
  14.7509480  33.9129066  30.2304287  16.1052780  34.5847549  29.1777554
  16.5861130  32.8210602  30.3584499  16.1988087  32.1669273  29.5772953
  17.6494942  32.9856224  30.1845493  16.4001255  32.1812477  31.7220192
  16.9300385  32.8007927  32.4455261  15.3366280  32.0647278  31.9305725
  17.0044174  30.8014431  31.6772976  18.0030785  30.8146801  31.8276253
  16.5857468  30.2720165  32.4286461  16.6607265  30.3303928  30.8526211
  15.7984028  37.4064751  32.4267807  15.8048630  36.8818016  33.5628777
  16.1730804  38.6906166  32.2573128  16.1706467  39.0895500  31.3294392
  16.4793358  39.6807442  33.4151878  17.1709538  39.2223740  34.1220551
  17.0828514  40.9706993  32.8426476  16.3491402  41.4371033  32.1852074
  17.3787498  41.6297226  33.6588783  18.3528519  40.8288460  31.9511337
  18.8742008  39.7330780  31.7334270  18.9870777  41.9077530  31.4956436
  18.5324020  42.8070869  31.5632477  19.7853374  41.7303238  30.9028511
  15.2507820  39.9482918  34.2614136  14.1680288  39.5316849  33.7989922
  15.2922421  40.6124916  35.4521255  16.2143745  40.9133987  35.7335930
  14.1487131  40.8383255  36.3963623  13.8251562  39.8723297  36.7839966
  14.6776543  41.5770302  37.6486778  15.3838577  40.9976845  38.2434349
  15.3975554  42.9094810  37.3375854  14.6374531  43.5285339  36.8610191
  15.6108036  43.3703537  38.3020630  16.3002148  42.8530998  36.7291985
  13.6233616  41.8529015  38.5434723  13.1667871  41.0482101  38.7996254
  12.9649343  41.5396500  35.7458687  13.1220570  42.6418343  35.1278381
  11.7747583  40.9185524  35.9078369  11.8451767  40.0291939  36.3813095
  10.4605598  41.3134499  35.3591194  10.5034218  41.7432175  34.3583374
   9.6167078  40.0722923  35.1922417  10.2600622  39.3915291  34.6347809
   9.5404387  39.6375237  36.1888657   8.1328192  40.1052017  34.7581787
   7.8694882  39.0712318  34.5353241   7.5320969  40.5286789  35.5631027
   7.8566551  40.9423256  33.5017052   6.8447752  41.6932564  33.3873024
   8.6702433  41.0087509  32.5643311   9.6784506  42.4383392  36.0989532
   9.1217375  43.3557320  35.4130440   9.5141983  42.3069000  37.4478874
   9.9488211  41.5092583  37.8894386   8.6361523  43.1721268  38.2305336
   7.7403073  43.2934341  37.6215630   8.1235113  42.3396645  39.4991417
   8.9528265  42.0292397  40.1347313   7.4337077  42.8973656  40.1325760
   7.3907771  41.0157661  39.0537872   7.9327464  40.5202332  38.2482910
   7.3400607  40.1731720  40.3225594   6.6920671  39.3166885  40.1364403
   8.2479830  39.6796989  40.6693420   6.8720965  40.7977486  41.0834923
   5.9597859  41.2189331  38.6086998   5.6401672  40.1878128  38.4578857
   5.3712082  41.6412926  39.4231262   5.9568958  41.8959312  37.7544365
   9.2211361  44.5408592  38.5977058  10.4492693  44.6904793  38.4066925
   8.4743547  45.4847069  38.9853935  33.1317596  44.7115250  55.9407768
  32.1900330  44.3661842  56.0590630  33.1342049  45.5606956  56.4875984
  33.2367287  44.9197388  54.9580612  34.0102921  43.6113205  56.4436569
  35.0545845  43.8659096  56.2627182  33.8221054  43.3997154  57.9128761
  33.6645737  44.3709335  58.3819427  32.9691772  42.7686310  58.1625671
  35.1403046  42.7911491  58.5414772  35.1848640  41.7830696  58.1292953
  36.0938759  43.3102570  58.4449120  34.9837952  42.5983086  60.3278656
  35.1303329  44.3651314  60.8879204  34.1088409  44.7435684  60.8499031
  35.4190369  44.3684196  61.9389877  35.7488480  45.0153618  60.2692642
  33.6825142  42.3779259  55.5959969  32.5127602  42.1032219  55.2563248
  34.7885284  41.6624374  55.3523674  35.6725426  42.1129799  55.5411301
  34.9321213  40.4167595  54.6303635  34.4679184  40.7353706  53.6970329
  36.3851280  40.2904778  54.2440758  36.6718483  41.2556686  53.8265877
  36.9793472  40.0241776  55.1181984  36.7705994  39.2406464  53.1764526
  37.8412285  39.3329201  52.9938698  36.5992279  38.2387238  53.5700073
  35.7572136  39.5598030  51.7097397  36.4438210  38.2296982  50.6485596
  37.5175667  38.3400497  50.4969444  36.3301926  37.2490005  51.1105347
  35.8943214  38.2547607  49.7075386  34.2384682  39.2119255  55.3577957
  34.0920334  39.1370811  56.5862389  33.9002113  38.2376328  54.5656090
  33.9329605  38.4453125  53.5777321  33.5111923  36.8505249  54.9539413
  33.6580734  36.8443909  56.0339813  32.0624657  36.6083183  54.6104507
  31.7684383  35.5912323  54.8696518  31.1071396  37.4789658  55.4170952
  31.3562069  38.5305443  55.2748299  30.0484333  37.2577324  55.2818184
  31.3855820  37.3786163  56.4661407  31.7691212  36.7061005  53.0688744
  31.8678455  37.7533226  52.7830811  32.4904289  36.0099258  52.6409035
  30.3420506  36.1880379  52.6526375  30.3557110  36.0501022  51.5714798
  30.0806122  35.2647781  53.1696892  29.5641556  36.9086723  52.9049492
  34.5327034  35.8076401  54.4290924  35.0683823  36.0163841  53.3565025
  34.7756271  34.6447296  55.0912094  34.3679047  34.4362183  55.9914246
  35.7434273  33.5209808  54.7969284  35.8849983  33.5495338  53.7165375
  37.0280228  33.8748970  55.5150909  36.9115105  33.8493156  56.5985451
  37.7035561  33.0352478  55.3515663  37.7232399  35.1641159  54.9947243
  37.6428223  35.1925049  53.9080658  37.1593552  35.9973221  55.4141388
  39.1908913  35.3711243  55.3296738  39.4102592  35.4691887  56.3928604
  39.6872063  34.4672203  54.9765015  39.7010651  36.5327835  54.6378517
  39.8741875  37.2923584  55.2806358  39.8113480  36.7481766  53.3382339
  39.3820419  35.9131432  52.3596611  39.0817223  34.9949722  52.6544113
  39.6562233  36.0511703  51.3974380  40.4804344  37.8000259  52.8863907
  40.7674217  37.8976212  51.9229546  41.1860924  38.1220779  53.5332565
  35.2149467  32.2501068  55.2760086  34.2980270  32.1571198  56.0455704
  35.6744652  31.1695385  54.6465797  36.4529037  31.3661652  54.0338173
  35.5096588  29.8298836  55.2323303  34.4864349  29.6996975  55.5847054
  35.5896568  29.1309261  54.3997688  36.4741287  29.4671001  56.3845215
  37.6397896  29.8945065  56.4934883  36.1296844  28.4830952  57.1827583
  35.1871452  28.1224079  57.1424217  36.9630241  27.8155212  58.1454010
  38.0199471  28.0124531  57.9658394  36.7842369  28.3324261  59.5880280
  35.7725906  28.0934677  59.9160080  37.7529030  27.6291256  60.5884056
  37.8185158  26.5603123  60.3848610  38.7502365  28.0451584  60.4457703
  37.5018349  27.7811432  61.6381454  36.8579178  29.8693905  59.6693687
  37.7588882  30.1974850  59.1509972  36.0839233  30.4398537  59.1559410
  37.0403519  30.5244026  60.9922218  36.2621193  30.3324604  61.7308807
  37.9625702  30.1396179  61.4276085  37.1347122  31.5675430  60.6904678
  36.5928268  26.3390579  58.1498070  35.4227829  25.9472656  58.2931480
  37.5594559  25.4081993  58.0621452  38.4321327  25.8883629  58.2294159
  37.5736351  24.0370712  57.7077484  36.5510330  23.6599808  57.6937065
  38.2126694  23.7453194  56.2913246  38.9542351  24.5090923  56.0571632
  38.7243996  22.7841530  56.2424431  37.1612206  23.8329792  55.2201576
  36.1844521  23.9234257  55.6953850  37.2848358  24.7380543  54.6254654
  37.1746483  22.5814285  54.2963905  36.3007889  22.7185268  53.6594658
  38.0772133  22.7019062  53.6972542  37.0743370  21.3198109  55.0119896
  36.5157623  21.4691944  55.8401108  37.8239555  20.2857685  54.7581367
  38.6280060  20.1584511  53.7253189  39.1826820  19.3281250  53.5736809
  38.6148796  20.7942371  52.9406509  37.8776474  19.3017330  55.5589752
  38.3224106  18.4753723  55.1855888  37.2865219  19.2420998  56.3757477
  38.2211151  23.1930199  58.7655983  38.8838158  23.6274757  59.6700706
  37.9356766  21.8921452  58.6487999  37.4055290  21.5171947  57.8751984
  38.4714279  20.8355350  59.5136604  39.5606422  20.8047085  59.5412750
  38.2072372  21.0044537  60.5575829  37.9030800  19.4870968  59.1740189
  37.1201401  19.4223976  58.2565422  38.4117546  18.4507923  59.8592072
  38.9462357  18.7477837  60.6630898  37.9471817  17.0808353  59.7445374
  36.8933868  17.0631123  59.4665070  38.5519638  16.4757099  58.5276642
  38.5270004  17.1725464  57.6898689  39.6230888  16.4069614  58.7175751
  38.0585556  15.5051355  58.4763336  38.1920929  16.2265110  61.0473518
  38.8849487  16.6719418  61.9275208  37.7103729  14.9852104  61.1057510
  37.1993866  14.6506815  60.3013382  37.6383972  14.0442982  62.2650909
  38.5887871  14.1822453  62.7806740  36.6954269  14.5365915  63.3825188
  37.0667839  15.5334558  63.6201210  35.2329216  14.5578918  63.0320091
  35.0133934  15.3609552  62.3284454  35.0271263  13.6036758  62.5470161
  34.6821785  14.7342281  63.9559631  36.9113426  13.7101316  64.5195312
  36.7318993  14.2912779  65.2622757  37.2814980  12.6584759  61.7161865
  36.7826691  12.5394192  60.6370697  37.4896164  11.5901175  62.4761276
  37.6323509  11.7359447  63.4653015  37.3648911  10.1386986  62.0227242
  36.6659546  10.0233154  61.1943092  38.8149681   9.5068579  61.6349716
  38.6218376   8.4564123  61.4173164  39.3520241  10.0861683  60.3150253
  40.3342361   9.6292515  60.1942482  38.7189636   9.7966175  59.4762802
  39.3365936  11.1690836  60.4381332  39.8213844   9.6405993  62.6079559
  39.5590668   8.9171877  63.1819496  36.7546234   9.3245049  63.1247482
  36.7088203   9.8086395  64.2437286  36.2285652   8.1653318  62.7928543
  36.2465935   7.8495183  61.8336716  35.5497589   7.2850747  63.7611732
  35.8781891   7.4368219  64.7893753  34.0513382   7.3799548  63.6110840
  33.5322723   6.8264241  64.3935623  33.5944557   8.8052883  63.8161964
  32.5260735   9.0165052  63.7709846  33.9588737   9.2727137  64.7309723
  33.8417358   9.4738674  62.9916000  33.4486732   6.8133640  62.3251953
  33.6458626   7.4793859  61.4851799  33.6173172   5.7405748  62.2314796
  32.3664284   6.8744860  62.4397240  36.0128860   5.8705392  63.4802322
  36.3239899   5.4654412  62.3130760  35.9844894   4.9150891  64.3746338
  35.6681328   5.1254468  65.3104630  36.0793037   3.4677618  64.1016541
  36.5910301   3.3129678  63.1517639  36.8403358   2.8039570  65.2591934
  36.1429596   2.6109166  66.0743637  37.2972221   1.9029901  64.8497849
  38.0163460   3.6373451  65.8255386  37.6446419   4.5411158  66.3083801
  38.5112953   3.0985167  66.6334915  39.1257324   4.0228605  64.7995987
  39.7521858   5.0803285  64.9665070  39.3001289   3.3393619  63.7714539
  34.6803131   2.7434452  63.9396095  34.5793953   1.6717091  63.3583183
  33.6656075   3.3457122  64.4821091  33.7713318   4.2198472  64.9768906
  32.2922859   2.7716320  64.6005554  32.2711639   1.8177654  64.0734940
  31.9016228   2.4555893  66.0777740  32.0923424   3.3276827  66.7032166
  30.8770924   2.1128490  66.2225571  32.8090515   1.4070319  66.5373306
  32.7423172   0.5746982  65.8367081  33.8390350   1.7534683  66.4523392
  32.6549950   0.8134161  67.9571533  31.6705914   0.4213901  68.2128143
  33.4196243   0.0520210  68.1111984  32.9592781   1.7819202  68.9778061
  33.9126091   1.8883895  69.2939148  32.0659485   2.4915376  69.6387100
  30.7726631   2.2893956  69.5697174  30.3985672   1.6949255  68.8439407
  30.1254425   2.6202388  70.2709656  32.5004501   3.4060252  70.4976273
  33.4340553   3.3921978  70.8827133  31.8538876   3.9888806  71.0098114
  31.2676010   3.6914692  63.9047661  31.3557682   4.9205484  64.0828247
  30.3334980   3.1420264  63.1559753  30.3043346   2.1324997  63.1662292
  29.3034706   3.9754059  62.5796127  29.6623211   4.9663057  62.3013191
  28.6889839   3.2329681  61.3415184  29.5219097   3.0140803  60.6733704
  28.2491646   2.2743402  61.6166496  27.5840321   3.9522171  60.5380211
  27.3077621   5.1545997  60.7285309  26.9920120   3.3715718  59.6056824
  28.1832352   4.2134004  63.6014595  27.2014446   3.4801888  63.6491661
  28.2305622   5.2660341  64.4979401  29.0015221   5.9171710  64.4561081
  27.2490044   5.3503265  65.5784683  26.2774982   5.2569442  65.0931244
  27.4461079   4.2984867  66.7086029  27.3852482   3.3509240  66.1733322
  28.7978210   4.3644552  67.4853897  29.5801315   4.4924135  66.7372437
  28.7094440   5.2545085  68.1083603  28.9451580   3.4633791  68.0807495
  26.4241295   4.4117823  67.6307373  26.4150829   3.5425391  68.0380936
  27.1676731   6.7640085  66.1621552  28.1935005   7.3597236  66.2696686
  25.9837856   7.2015023  66.5484848  25.2698536   6.4888892  66.5993271
  25.7183666   8.5602884  67.1279068  25.9636650   9.3346357  66.4010468
  24.2351665   8.4951572  67.5243683  24.1786766   7.7782888  68.3435211
  23.9576225   9.5034571  67.8316193  23.3246002   8.0903969  66.3700943
  22.5402832   8.8397837  66.2634811  23.8276730   8.1266909  65.4038086
  22.7344475   6.7403708  66.7431946  21.4814281   6.6681490  66.8838654
  23.5314579   5.8268232  66.9911880  26.5778999   8.7071142  68.3987885
  27.0153103   9.7845907  68.7101517  26.8782806   7.6461048  69.1024399
  26.4222660   6.7798553  68.8539200  27.7413235   7.6541038  70.3329544
  27.4619942   8.3517361  71.1225052  27.7284527   6.2474608  71.0076523
  26.7439289   6.0546584  71.4338455  27.8086319   5.4877849  70.2301102
  28.7201538   5.9723535  72.1177979  29.1758423   6.9169035  72.4149094
  28.1248837   5.6921582  72.9868469  29.7579880   4.9033599  71.9234314
  30.9476833   5.1911368  72.2134247  29.3583889   3.7860265  71.5659332
  29.2194862   8.0111856  69.9462280  29.9566307   8.6484776  70.7198257
  29.5833492   7.8290935  68.6515503  28.9038811   7.4051852  68.0361481
  30.9591084   8.3286133  68.1781540  31.5210018   8.7049208  69.0330048
  31.6696587   7.0960460  67.5994720  31.0171165   6.4258132  67.0399399
  32.4743462   7.3513470  66.9099731  32.3264198   6.1657095  68.7070770
  31.6728420   6.1346650  69.5788422  32.4019241   5.1571598  68.3005981
  33.7256241   6.6031609  69.2294464  34.4936943   7.0789580  68.3464966
  34.0872078   6.4458551  70.4036331  30.8140869   9.5115032  67.2149734
  31.4479408  10.4897747  67.4489441  29.9270744   9.5353756  66.1798019
  29.3359146   8.7263641  66.0527954  29.7833843  10.4748869  65.0731812
  30.6660767  10.5259371  64.4357224  28.5515423  10.1444025  64.1447525
  27.6837006   9.8941393  64.7549362  28.1825428  11.3351946  63.2826805
  29.0515690  11.5246496  62.6526031  27.4874229  11.0578613  62.4902191
  27.8646278  12.2348690  63.8095779  29.1484070   8.9747400  63.2547531
  30.0428162   9.3127356  62.7314072  29.3922367   8.1591663  63.9355583
  28.1244431   8.3463516  62.3296242  28.5811119   7.4121838  62.0026932
  27.2127705   8.1989212  62.9086075  28.0846825   9.0349426  61.4856110
  29.6309509  11.8456039  65.6810532  30.3741913  12.7880526  65.3444443
  28.5432110  12.0339088  66.4938431  27.9741840  11.2540340  66.7906647
  28.2323742  13.3507071  66.9338684  28.4636154  13.9774485  66.0725784
  26.7147121  13.3500748  67.2950211  26.4563522  12.5541811  67.9935226
  26.3904686  14.3148651  67.6850815  25.8561802  13.1188259  66.0055618
  26.1494598  12.1634073  65.5705185  24.4480991  12.8928213  66.4759674
  23.7437553  12.6219864  65.6894226  24.4708385  12.1317244  67.2559128
  24.0735035  13.8123293  66.9257202  25.9693604  14.2495337  64.9970398
  25.2404385  14.0281134  64.2174530  25.7270164  15.1888447  65.4940948
  26.8959293  14.1917963  64.4258728  29.0902233  13.8323526  68.0465240
  29.2414112  15.0396137  68.0766449  29.5681190  12.9591074  68.9386597
  29.4138699  11.9658155  68.8402710  30.6124897  13.4052563  69.8861389
  30.2741032  14.3068962  70.3966675  30.8107605  12.2178202  70.8519363
  31.0847893  11.3906183  70.1971512  31.6525154  12.4702902  71.4967728
  29.6668453  11.8181276  71.7370377  28.8783054  11.5412731  71.0372849
  29.9213543  10.9996996  72.4104614  29.1280994  12.9574795  72.6491852
  29.9759312  13.7249279  73.1156769  27.9514084  12.8210278  73.2475281
  27.3262539  12.0533533  73.0476379  27.7385960  13.5093603  73.9553452
  31.9760017  13.7395372  69.2517090  32.5766258  14.7035322  69.6638641
  32.4198265  13.0039215  68.1419678  31.9520683  12.1306820  67.9451141
  33.5698128  13.4301491  67.3393936  34.4285431  13.7692757  67.9187622
  34.1273003  12.3342485  66.3663712  33.3521843  11.6234074  66.0800171
  34.4459076  12.8428316  65.4564590  35.3118362  11.5679474  66.9461365
  35.7369347  10.9148407  66.1840057  35.9414482  12.4173307  67.2111664
  34.9167595  10.6909456  68.1589355  34.5818672  11.3447323  68.9642334
  34.1236725  10.0164528  67.8361664  36.1035156   9.7432861  68.5082245
  36.9578934  10.3957376  68.6883621  36.0127525   9.2259760  69.4633408
  36.4930000   8.7605219  67.4082336  35.8903465   7.9501944  67.4249878
  36.4893646   9.2543144  66.5271759  37.3654594   8.3571653  67.7184219
  33.3141403  14.7526875  66.5674133  34.3071175  15.5394239  66.4691391
  32.0418816  15.0235052  66.1248550  31.3792515  14.3069811  66.3849030
  31.6430569  16.3303528  65.5348358  32.3999481  16.5537949  64.7829819
  30.2382755  16.1873531  64.9271469  29.5445404  15.9897070  65.7443161
  29.8238449  17.5479794  64.3283539  28.9307880  17.4102383  63.7187767
  29.5966072  18.1941395  65.1762543  30.6156158  17.9523525  63.6977310
  30.0844898  15.0737019  64.1054077  30.3324890  14.3132420  64.6362534
  31.7100887  17.3921261  66.6255722  32.3861809  18.4006920  66.4631958
  31.2381668  17.1315746  67.8848953  30.6974812  16.2863178  68.0002289
  31.2186718  18.1103687  68.9947205  30.8050785  19.0516891  68.6328430
  30.2882481  17.6098747  70.1639404  29.2738934  17.5128994  69.7769241
  30.6867256  16.6997490  70.6122513  30.3071651  18.6983871  71.2341919
  31.1869774  18.5075588  71.8486938  30.5451889  19.7192268  70.9353027
  28.9538612  18.6670666  71.9869232  28.9368439  19.4935684  72.6973495
  28.1753731  18.5200062  71.2383041  28.9737473  17.4396725  72.8789597
  29.2481594  16.4863796  72.4272614  29.7273884  17.5276241  73.6615143
  27.6698990  17.3472919  73.5655746  26.8767834  17.0934238  72.9940720
  27.6941338  16.7400913  74.3723145  27.4617672  18.2776814  73.8989716
  32.6214905  18.5973911  69.3725357  32.8410301  19.8113651  69.3373260
  33.5255318  17.6860428  69.4933929  33.1637993  16.7474632  69.5846100
  34.9895477  17.8999901  69.7947388  35.0979347  18.4079189  70.7530518
  35.6704445  16.5029716  69.8508377  35.4856644  15.9383764  68.9369583
  36.7297821  16.7290363  69.9724960  35.2873535  15.6853790  71.0119934
  35.8418770  16.0283489  71.8854828  34.2361412  15.7542248  71.2918472
  35.6127701  14.2182360  70.8322449  36.4152412  13.7802505  70.0631027
  34.9190102  13.4610224  71.6010666  34.9455986  12.4568987  71.4955597
  34.1469193  13.8855419  72.0947876  35.7080269  18.7467728  68.7285614
  36.5536346  19.5251808  69.1377640  35.3179283  18.4783440  67.4462814
  34.5058022  17.8866138  67.3442764  35.8180046  19.2835083  66.3123932
  36.8877945  19.4741020  66.3979797  35.4971962  18.5435181  64.9955215
  35.9868088  17.5700092  65.0213165  34.4393311  18.3116016  64.8721008
  35.9645195  19.3315048  63.6973915  35.2911530  20.1879444  63.6629295
  37.3843498  19.8616028  63.8412018  38.0485916  19.0340424  64.0902557
  37.6084709  20.2976570  62.8676910  37.3987198  20.5813408  64.6596603
  35.8688011  18.6316853  62.3162460  36.2658463  19.1532211  61.4453545
  36.6177330  17.8398876  62.3323479  34.8419838  18.3225937  62.1207809
  35.1955490  20.7047977  66.3557281  35.9901314  21.6707115  66.3373489
  33.8817863  20.8786507  66.4899521  33.3103333  20.0564957  66.6226349
  33.3385925  22.2412910  66.3547668  33.7150269  22.7555046  65.4704666
  31.8669357  22.1028023  66.2627640  31.5617638  21.7459564  67.2464447
  31.4092236  23.0859947  66.1535110  31.2283783  21.2968369  65.1070938
  31.5218945  20.2473507  65.1301193  29.7422695  21.4566708  65.2325974
  29.3868923  20.8787785  66.0857315  29.4740334  22.5109749  65.3003845
  29.3544350  21.0296764  64.3077393  31.8340950  21.7247925  63.7287178
  31.4922085  20.9924526  62.9973488  31.3745613  22.6595535  63.4075470
  32.9093323  21.8292046  63.5835686  33.8470802  23.1189709  67.5467529
  34.3277817  24.2295074  67.3122635  33.8267403  22.5773449  68.7354965
  33.4623604  21.6564121  68.9335175  34.1994247  23.3754749  69.9036865
  33.6041832  24.2857227  69.8313141  33.9102745  22.6398430  71.2645035
  34.1070480  21.5730362  71.1581726  34.6240044  23.0098343  72.0005722
  32.4692039  22.7871094  71.7202530  31.7400322  22.8882561  70.9164047
  32.2893677  21.8015118  72.1496277  32.4052391  23.7587757  72.8779297
  32.6742210  24.9040661  72.5525360  32.0477867  23.4176769  74.0506973
  35.6628685  23.8172588  69.8023834  36.0608521  24.7799473  70.4019852
  36.5232353  23.0548973  69.0930481  36.1261215  22.3041611  68.5464325
  37.9328270  23.3951359  68.7880249  38.3973694  23.9124374  69.6274872
  38.7431717  22.1359844  68.4960632  38.3582954  21.4286461  69.2306671
  38.4633255  21.8038864  67.4963150  40.3241501  22.1946068  68.6140976
  40.7123222  21.3069706  68.1145706  40.6648788  23.0411873  68.0180283
  40.9655113  22.3600464  69.9924469  40.4837227  23.1543217  70.5626297
  40.7453766  21.4642467  70.5731201  42.4783745  22.4397087  69.9330902
  42.9404869  21.4749374  69.7238770  42.7856064  23.0340366  69.0725784
  42.9094162  23.1127815  71.1846390  42.5633163  24.0411110  71.3809052
  42.7737808  22.5703697  72.0257645  43.9026527  23.2866459  71.2425385
  38.1121140  24.2848377  67.5563736  38.9723434  25.1512947  67.6406631
  37.2980804  24.2213898  66.5530472  36.7742500  23.3583279  66.5817566
  37.0038414  25.2180614  65.5703049  37.9363823  25.4230061  65.0445023
  36.0971947  24.6793575  64.4524918  35.3240166  24.0629730  64.9111404
  35.4592209  25.8824921  63.6821060  34.7729721  25.4314327  62.9653702
  34.7651367  26.4094048  64.3368683  36.1440926  26.6054726  63.2389870
  36.9988022  23.7571125  63.5651245  37.8110237  24.3542156  63.1505623
  37.4478798  22.9111919  64.0855560  36.3017616  23.1687927  62.3537407
  35.9057732  23.8290577  61.5821533  37.0389786  22.4961357  61.9153976
  35.4976349  22.5069504  62.6753693  36.6436043  26.6018238  66.1864243
  37.2300720  27.6816902  65.7627945  35.7025719  26.6424332  67.0977707
  35.4504013  25.7087040  67.3887405  35.1094971  27.8254890  67.7094269
  34.7941284  28.6108685  67.0225296  33.8713150  27.2798233  68.5624313
  34.1553497  26.3998356  69.1395340  33.4529152  28.3758698  69.5512009
  33.2297897  29.3099937  69.0357056  32.5693283  28.0754967  70.1143646
  34.1521111  28.6222878  70.3502655  32.7186050  26.9684544  67.5883713
  32.2740517  27.8868465  67.2049255  33.0880051  26.4633465  66.6958923
  31.6228619  26.0612564  68.2802658  30.9894657  25.5550423  67.5518036
  32.0697937  25.2407417  68.8416138  31.0444183  26.7812462  68.8591614
  36.1180878  28.4881744  68.6791000  36.1141472  29.6806221  68.8952637
  36.9149399  27.6606712  69.3611526  36.7776527  26.6788406  69.1680984
  38.0731888  28.1305389  70.1726227  37.8321495  29.0842667  70.6420975
  38.4198723  27.2551479  71.3795929  37.5414047  27.1743011  72.0197983
  38.6715317  26.2769909  70.9697418  39.6175537  27.7378578  72.2382126
  39.9090576  26.8947563  72.8645554  40.4107704  28.0140495  71.5434952
  39.3116341  28.9116344  73.1248016  40.1950798  29.2832699  73.9189987
  38.1808968  29.4131336  72.9906006  39.2867050  28.5570774  69.3595200
  39.7446976  29.6653404  69.6269760  39.9143448  27.7633018  68.4418793
  39.4564552  26.8955917  68.2020569  41.1110039  28.1057854  67.6261597
  41.9556351  28.3904438  68.2535858  41.6368599  26.8970547  66.8482056
  40.7401123  26.5343456  66.3458252  42.3760147  27.0973740  66.0725632
  42.2330589  25.7783890  67.7198944  41.5267754  25.5746441  68.5247269
  42.2432060  24.8154697  67.2092209  43.6788902  26.0607147  68.2239380
  44.5392876  25.1501484  68.0946198  43.9742928  27.2672348  68.5759430
  40.8455696  29.3362370  66.7388306  41.7421455  30.0762577  66.4713364
  39.5909042  29.7411861  66.5167770  38.8520927  29.1767673  66.9113464
  39.2357330  30.9159737  65.7665939  40.1074867  31.5550976  65.9068146
  38.8704834  30.5619583  64.3387070  37.8061676  30.3283768  64.3108292
  38.8642616  31.4648838  63.7281418  39.8133926  29.5583916  63.6882133
  40.8694458  29.8659306  63.1160011  39.5291023  28.2631226  63.8763809
  40.1076241  27.6772423  63.2914314  38.6956749  27.9787254  64.3709717
  38.2714119  31.8670311  66.4375305  37.8244972  32.8589020  65.9739075
  38.0066910  31.5886650  67.7520905  38.5254135  30.8451748  68.1973419
  37.2788086  32.5954895  68.5950012  37.1857948  32.0955849  69.5591278
  38.0978241  33.8017769  68.8536530  37.9261589  34.3657722  67.9368439
  37.7603912  34.4644508  69.6505890  39.5606155  33.5792618  69.0925751
  40.1346588  32.6760902  70.0346298  39.6213570  31.9955177  70.5763397
  41.4133034  32.9128418  70.1214752  42.1708832  32.3759880  70.6730728
  41.7199287  33.8482399  69.1335526  42.6306343  34.2646942  69.0020828
  40.5559196  34.2715302  68.5192337  40.4301147  35.1812248  67.9508743
  35.8415337  33.0170403  68.0799179  35.3759727  34.1084747  68.4060516
  35.2007446  32.2483215  67.2172470  35.6802216  31.4301929  66.8695831
  33.9233551  32.5750618  66.5493317  34.1033821  33.4091301  65.8710861
  33.5330696  31.3649693  65.6992950  33.1230621  30.6618805  66.4243164
  32.4174042  31.6806507  64.7330093  32.5589981  32.7020836  64.3798447
  32.4643135  31.0573215  63.8400574  31.4112377  31.6536808  65.1513290
  34.7919502  30.8510284  64.9831161  35.0414543  31.5201759  64.3415604
  32.8337097  32.9424591  67.5043030  32.7173309  32.4444160  68.6273499
  31.8615875  33.8186874  67.1121521  31.9901142  34.1675873  66.1730804
  30.5228176  33.8972664  67.7117081  30.4515400  33.1382484  68.4907455
  30.3247967  35.2756691  68.4267044  29.3038216  35.2532196  68.8077621
  30.9927502  35.3352318  69.2860031  30.5498581  36.5575638  67.6205292
  31.5767651  36.5147247  67.2575912  29.9162426  36.5519600  66.7336273
  30.3256950  37.7595978  68.4638138  29.3962517  37.6221695  69.0163956
  31.1375904  37.8691597  69.1827850  30.3709621  39.0701256  67.6582794
  29.5261650  39.1477585  66.9738922  30.1363316  39.8616753  68.3699646
  31.6808510  39.3684120  67.0281754  32.5115128  39.4134483  67.6009521
  31.9827213  38.6773186  66.3563385  31.6381474  40.1687088  66.4135132
  29.4200268  33.5884361  66.6951218  29.6563663  34.0515480  65.5974197
  28.3755322  32.8039970  67.0530014  27.8757896  32.4115334  68.4135742
  27.8163719  33.3118935  69.0250626  28.4566288  31.6677132  68.9589691
  26.4943352  31.8706608  68.2763367  25.8063068  32.7091713  68.3841324
  26.2520485  31.0547295  68.9572601  26.4853096  31.3690472  66.8435593
  25.4963703  31.4861259  66.4003983  26.7566643  30.3143997  66.7967148
  27.4739113  32.2581978  66.0416718  28.0481815  31.6331577  65.3578339
  26.7299442  33.3885307  65.2957001  26.4964237  33.1418037  64.1271896
  26.5117340  34.5886803  65.8991013  26.5405426  34.6660805  66.9057236
  25.7592506  35.5980530  65.1897507  24.8360672  35.1264153  64.8530197
  25.3130951  36.6898689  66.1719589  24.5681877  37.2842560  65.6428833
  24.7423286  36.2554703  66.9926987  26.4277763  37.6399765  66.4602051
  27.1968975  37.0655861  66.9765625  26.8990803  37.8840141  65.5081406
  26.0263004  38.8519516  67.2874680  26.9062996  39.5332108  67.8172607
  24.8106689  39.1349907  67.6141052  26.4909439  36.0764198  63.9612694
  25.8580112  36.6981125  63.0916023  27.8145599  35.9172096  63.8707123
  28.3846893  35.5558090  64.6220093  28.5857506  36.2770882  62.7163467
  28.1733799  37.2392006  62.4123688  30.0635509  36.5870590  63.1578369
  30.3872509  35.6475945  63.6058617  30.6824741  36.7853241  62.2827797
  30.2272873  37.7332268  64.1371994  29.4289837  38.6542282  64.1636429
  31.3944569  37.6770134  64.6923294  28.5957298  35.3261719  61.5832176
  29.0202560  35.7148705  60.4579811  28.1408577  34.0473518  61.7836342
  27.7276764  33.9869995  62.7032738  28.2287235  32.9215546  60.9011917
  29.1516647  32.9143333  60.3213310  28.2262821  31.6080360  61.6822319
  27.3451176  31.5691814  62.3226585  28.2391586  30.3738155  60.8424263
  29.0176945  30.4542084  60.0837975  28.3419704  29.4773598  61.4538994
  27.2843857  30.2729034  60.3263626  29.4340324  31.5292301  62.6297760
  29.5038719  32.3991776  63.2827759  29.4359493  30.6370258  63.2559280
  30.3877735  31.6079826  62.1079712  27.0540600  33.0529137  59.9252510
  25.8719959  32.8926239  60.2663689  27.4209175  33.1035995  58.6752167
  28.4136715  33.0314369  58.5039520  26.5628948  33.2013626  57.4958687
  25.8136845  33.9930573  57.4943810  27.3320560  33.5145111  56.1997147
  27.9691868  32.6645699  55.9552536  26.3781052  33.7870674  55.0055275
  25.5359192  34.4295540  55.2625237  26.9751396  34.1924973  54.1886597
  25.9705009  32.8193550  54.7131500  28.3267708  34.6474686  56.4801254
  27.9770794  35.4451218  57.1355286  29.2227039  34.1743202  56.8820419
  28.6189671  35.0384560  55.5055237  25.8352833  31.8557301  57.2661171
  24.6252384  31.8909492  57.0572968  26.5860329  30.6764164  57.3140869
  27.5437622  30.6874905  57.6346016  26.0395241  29.2995739  57.2823257
  25.2141056  29.2663670  57.9934387  25.3334503  29.0906715  55.8899231
  24.7210674  28.1898212  55.8504143  24.6560555  29.9392452  55.7942200
  26.1581516  29.1933098  54.5977783  25.4939804  29.3227978  53.7432518
  26.8028812  30.0721645  54.6040764  27.1041546  27.9833393  54.4063683
  28.2961197  28.1876431  54.1773529  26.6894627  26.7729683  54.4922485
  25.7263393  26.5723572  54.7208328  27.3573112  26.0925503  54.1589165
  27.1022816  28.2709103  57.6194153  28.2490654  28.6510601  57.5609550
  26.7657833  27.0431480  57.9599380  25.7922707  26.7756615  57.9886627
  27.7150497  25.9389725  58.2201157  28.7177601  26.2828960  57.9663658
  27.7784538  25.5782700  59.6916237  27.9726219  26.5289001  60.1883125
  26.7681160  25.2283134  59.9033966  28.8889999  24.6352348  60.1478577
  28.8420601  23.7557507  59.5056725  29.8659954  25.0857391  59.9728622
  28.9469223  24.0082054  61.8382797  29.6827374  25.4103165  62.6800156
  30.7089500  25.5542374  62.3419647  29.0651455  26.2939129  62.5189667
  29.7518578  25.2628517  63.7577820  27.3216591  24.7018471  57.4055748
  26.1497593  24.3334064  57.3285255  28.3366604  24.0273800  56.8684425
  29.2751942  24.3871498  56.9675407  28.2686195  22.8506622  55.9561996
  27.2134094  22.5823841  56.0077477  28.6649494  23.3170509  54.4575882
  27.9664040  24.0133991  53.9936562  29.6680088  23.7436104  54.4623146
  28.8206768  22.1419373  53.5902481  29.5446682  21.4644375  54.0429459
  27.5123882  21.4388142  53.2322502  27.7719326  20.5177307  52.7103882
  26.9742393  21.2407417  54.1592178  26.8883858  22.0310459  52.5629349
  29.5379505  22.5587730  52.2963753  29.4886150  21.7195740  51.6025276
  28.9845829  23.4087925  51.8971863  30.5899487  22.7570591  52.5015106
  29.1289845  21.7324371  56.5518990  30.2595234  22.0024834  56.9768181
  28.5448475  20.5762386  56.7343025  27.5721779  20.4317932  56.5037575
  29.2232418  19.3679771  57.1647491  30.2840042  19.5776672  57.3022690
  28.7885742  18.9430885  58.5878372  27.7538815  18.6011047  58.6114349
  29.3556938  18.0391655  58.8100967  28.8664646  19.8538876  59.7756310
  29.8733864  20.2486343  59.9112396  27.9103069  20.9623203  59.7850418
  27.8721828  21.5449905  58.8646393  26.9426327  20.4809856  59.9265709
  28.1107101  21.6711559  60.5884705  28.6647110  19.0186558  61.0545654
  28.9413357  19.7115040  61.8492584  27.6642952  18.5868511  61.0830956
  29.3981323  18.2123470  61.0614014  29.0143776  18.2431049  56.1286201
  28.1156750  18.2848244  55.3578949  29.9932480  17.3577461  56.0383568
  30.6994591  17.3924656  56.7595825  30.0384941  16.2626228  55.0992699
  29.0028744  16.0224304  54.8586388  30.7652664  16.6693993  53.7784424
  30.7411118  15.8116531  53.1062889  30.0942593  17.4446259  53.4084816
  32.0532951  17.2369404  53.9229469  32.5354080  17.0522766  53.1135864
  30.6098633  15.0357361  55.7572556  31.2501717  15.1519032  56.7974281
  30.3221684  13.8702250  55.2215729  29.6676445  13.8435907  54.4528122
  30.9412422  12.6355801  55.7077560  31.8891163  12.9602280  56.1369858
  30.0458565  12.1186028  56.8781662  28.9940739  12.1052799  56.5923767
  30.4503498  11.1905861  57.2822342  30.1007862  12.7616301  57.7565765
  31.2450619  11.6070738  54.6174507  30.6044197  11.6041279  53.6071892
  32.2403603  10.7023382  54.8033257  32.8372116  10.8310785  55.6078758
  32.3634682   9.5753069  53.8567963  32.6049881  10.0482492  52.9049072
  33.5150833   8.6489935  54.3188705  33.4499817   7.7410345  53.7193031
  34.8596268   9.2041578  53.8382301  35.0439453  10.1388235  54.3678856
  35.6619987   8.4746342  53.9481926  34.8221779   9.3605194  52.7601547
  33.5392914   8.3798046  55.6578865  33.1450005   7.5087519  55.7439232
  31.1098747   8.5906582  53.7062187  30.3396187   8.3799906  54.6759262
  30.9193859   7.8864331  52.5590210  31.7021332   8.0269375  51.3962860
  32.7774162   7.9271994  51.5443420  31.4270802   8.9258814  50.8446121
  31.2719898   7.0085464  50.3902664  31.7759647   6.0427604  50.4272385
  31.4022102   7.4206333  49.3896027  29.7884026   6.8829637  50.7072182
  29.3312645   5.9491844  50.3798256  29.3787041   7.8241401  50.3405647
  29.8443356   6.9715810  52.2100067  28.8699303   7.4002686  52.4442329
  29.8193455   5.5634151  52.9184189  29.0100021   4.7593584  52.4621582
  30.5715866   5.2885413  53.9825020  31.3525200   5.9075227  54.1471367
  30.6998386   4.1074758  54.8570137  30.1689949   3.2376430  54.4701118
  32.1365967   3.6287072  54.9763565  32.1359825   3.0162840  55.8780403
  32.3588638   3.0801752  54.0610352  33.2517815   4.7796121  55.0857277
  34.3549767   4.5543814  54.6094017  32.9517250   5.8051291  55.6812668
  30.0116787   4.3256612  56.2188225  30.0928249   3.4420438  57.0952377
  29.4210014   5.5129180  56.3866310  29.2243366   6.0905399  55.5817871
  28.7988358   5.9223456  57.6514168  28.8819485   5.1432199  58.4091492
  29.4763641   7.2042408  58.1846695  29.3461971   8.1203508  57.6085625
  28.8645210   7.3880887  59.0678177  30.9400883   7.0853839  58.7313423
  31.5125732   6.4507389  58.0548897  31.5725594   8.4761305  58.7345161
  32.6560020   8.4165220  58.8379440  31.3478298   8.9314384  57.7700005
  31.1305828   9.1731300  59.4465179  30.9995785   6.4644022  60.1499481
  30.5787220   7.1574512  60.8784142  30.4199905   5.5464087  60.2472458
  32.0394325   6.1391726  60.1820374  27.3139553   6.1174045  57.3359871
  27.0448933   6.7805882  56.2988129  26.3372116   5.7095847  58.1770172
  26.7198219   5.2325511  58.9808502  24.8890095   5.5869913  57.8755569
  24.8152046   6.4286880  57.1869354  24.5469341   4.2289772  57.1998672
  24.6614361   3.3879533  57.8837318  23.5565720   4.4334335  56.7930756
  25.4466610   3.8794489  56.0424194  25.6088104   4.6844449  54.9353485
  25.0387001   5.5069919  54.7993736  26.5140839   4.1415014  54.1135712
  26.8464527   4.4618058  53.1371803  26.9576721   3.0081601  54.7141075
  27.4782810   2.2888844  54.2327461  26.1811428   2.7693536  55.8502617
  26.2807217   1.8907996  56.4704437  24.0132427   5.8528061  59.0719490
  22.8361816   6.1704650  58.9436989  24.5456715   5.8963156  60.3014946
  25.5142899   5.6182089  60.3688583  23.8601418   6.2427292  61.5282364
  23.1802006   5.4475946  61.8340836  24.8315697   6.2485957  62.6387253
  25.4802094   7.1045156  62.4522667  24.3797703   6.2792783  63.6302071
  25.4584141   5.3605828  62.5575256  23.1310825   7.5697427  61.5413437
  21.9695644   7.6031537  61.9180756  23.8181686   8.6922426  61.3564491
  24.7741127   8.6221361  61.0380859  23.3153210  10.0709047  61.5664024
  22.3010616  10.1409597  61.1733665  23.3770618  10.2872324  63.1170120
  22.7890816   9.4824114  63.5582047  24.7005196  10.2513638  63.7505035
  25.2743206  11.1293907  63.4539795  24.5634365  10.1738710  64.8290710
  25.3213749   9.3826790  63.5313530  22.6639576  11.5957708  63.5618095
  23.3697929  12.4259691  63.5359726  21.8281994  11.8546515  62.9117393
  22.3344669  11.4818382  64.5945511  24.1002197  11.1307335  60.8171501
  25.3141117  11.0140705  60.6417313  23.4101334  12.0896492  60.3413162
  22.4017010  12.0893507  60.3975601  23.8870201  13.3244324  59.7425232
  24.5404739  13.1200571  58.8943901  22.7103405  14.1604176  59.2436981
  22.1186104  14.4974670  60.0947876  23.1573143  15.0801916  58.8664322
  21.7964230  13.5529089  58.1904526  20.4686699  13.3511724  58.4678116
  20.1198978  13.8004589  59.3859100  19.6206951  12.6994629  57.6055565
  18.5769806  12.5295763  57.8251114  20.0922565  12.2403297  56.2991753
  19.3648548  11.7983894  55.6343613  21.4866924  12.4220743  55.9929848
  21.8747406  12.2499552  54.9999123  22.2983208  13.1283522  56.9023132
  23.2870121  13.4898367  56.6610260  24.7297344  14.0685282  60.8175240
  24.2085075  14.3434944  61.8281517  25.9968815  14.5243721  60.5815773
  26.7924271  13.9994373  59.3685303  26.5848598  14.7006397  58.5602379
  26.6027355  12.9397078  59.1979713  28.2499561  14.1642113  59.8764801
  28.9889698  14.2653151  59.0816612  28.4241848  13.2465210  60.4382553
  28.2560081  15.4682646  60.7595673  28.1751747  16.3591480  60.1367531
  29.0780010  15.4627829  61.4753876  26.9375801  15.2620382  61.4689598
  27.1278439  14.6351042  62.3400841  26.2695141  16.5225296  61.9941597
  26.4633408  16.9040089  63.1691284  25.4136181  17.1723022  61.1563835
  25.2841053  16.7719536  60.2382050  24.7396259  18.4022160  61.4270744
  25.4527092  19.1757507  61.7121277  23.9914341  18.9122734  60.2382622
  23.5568237  18.1252270  59.6220131  23.3405418  19.6820812  60.6527939
  24.7471771  19.4824543  59.6980324  23.8374481  18.3865204  62.7266655
  23.7558498  19.4244823  63.3744545  23.2448273  17.2694569  63.1933212
  23.3661118  16.4681168  62.5906258  22.6066971  17.1117878  64.5105820
  21.6606197  17.6504879  64.5639191  22.3286419  15.6033010  64.6554794
  22.1987534  15.2078171  63.6480942  23.3109245  15.2937841  65.0124359
  21.2051582  15.2791767  65.5969620  21.5255489  15.4017544  66.6315765
  20.4023762  15.9650536  65.3263779  20.7940674  13.8400583  65.5184937
  20.6862392  13.6013250  64.4604416  21.6431503  13.2909594  65.9254990
  19.5736713  13.5948200  66.4575500  19.9744778  13.7459259  67.4598618
  18.7581253  14.3066673  66.3300171  19.1721344  12.2561626  66.2463760
  18.8072166  11.9102707  67.1223297  18.4995480  12.2567301  65.4928970
  20.0161057  11.7346067  66.0571899  23.4294434  17.6249390  65.6738815
  22.7894936  18.0621929  66.6599884  24.7569790  17.6335831  65.6059036
  25.2602711  17.2586384  64.8145676  25.5887222  18.1397285  66.7379074
  25.2895985  17.6381664  67.6582718  27.0084305  17.7290077  66.4626160
  27.6131058  17.5349236  67.3485031  26.9683132  16.7380104  66.0105057
  27.5465431  18.4585209  65.8573608  25.5793724  19.6824188  67.0696945
  25.7697716  20.1334114  68.2091141  25.3335533  20.5189686  66.0988388
  24.7420406  20.2001534  65.3448105  25.6289501  22.0094261  66.1269989
  26.6841660  22.1282196  66.3729935  25.5108776  22.6873341  64.7621536
  24.5616627  22.4490261  64.2822571  25.7564964  24.2183762  64.7570724
  26.7394333  24.5476952  65.0939560  25.4786987  24.6572838  63.7988014
  24.9134045  24.5902691  65.3393097  26.6200371  22.1110516  63.9150352
  27.5624542  22.4734859  64.3256302  26.6233387  21.0210953  63.9057884
  26.5454197  22.4526577  62.8826332  24.7560768  22.7732525  67.1045380
  25.1574402  23.4366684  68.0378799  23.4510593  22.5203362  67.0197678
  23.1456356  21.9937725  66.2138214  22.3805370  23.0625191  67.8225708
  22.4171886  24.1425610  67.6802063  21.1080933  22.4211941  67.2995758
  20.2192154  22.8018284  67.8026810  20.8893108  22.7268715  66.2764435
  21.0229950  20.8783054  67.3927612  21.9738178  20.4281254  67.1074905
  20.8176765  20.7174053  68.4510880  19.8786297  20.1386833  66.5982895
  18.9649563  20.7261772  66.6885681  20.1752396  20.1780968  65.5501633
  19.6446037  18.8321266  67.2192764  20.3042984  18.5623608  67.9349060
  18.6730862  18.0218353  66.9694748  17.7305012  18.3497734  66.1451111
  17.8526917  19.2174282  65.6427612  17.0300541  17.6508160  65.9427948
  18.5971165  16.9197903  67.5855103  17.9164124  16.2313328  67.2978134
  19.4133778  16.6804047  68.1300354  22.3961716  22.8117313  69.2974777
  21.6468964  23.3883762  70.0393753  23.1948681  21.9166241  69.7462616
  23.7898350  21.4179401  69.1001740  23.5174694  21.6672306  71.1789093
  22.5019398  21.6147652  71.5714111  24.1352577  20.2830029  71.3701324
  25.1280270  20.2310219  70.9231339  24.1712017  20.3327408  72.4584045
  23.2235775  19.0425663  70.9885025  23.3887062  18.9613590  69.9141464
  23.5846348  18.1300716  71.4629440  21.7202625  19.1441574  71.2831726
  21.4215870  19.5807228  72.4527283  20.8690300  18.6505337  70.5196915
  24.2898312  22.8369198  71.9158173  24.3260269  22.9773827  73.1976471
  24.8699455  23.6707649  71.0771179  24.8136864  23.5058956  70.0822525
  25.8428288  24.6429577  71.5657883  26.1673241  24.2823391  72.5418854
  27.0386772  24.5469799  70.6373291  26.8732929  24.9436779  69.6356354
  27.7755432  25.1901302  71.1184540  27.6737156  23.1759834  70.4458466
  26.8839970  22.4965115  70.1252670  28.8032856  23.2253189  69.3535156
  28.4381638  23.7817249  68.4902725  29.7377129  23.6102734  69.7618713
  29.0732441  22.2244854  69.0165329  28.2908688  22.6992741  71.7286224
  27.5686398  22.5450382  72.5303040  28.7575054  21.7276039  71.5667419
  29.1438351  23.3406200  71.9504852  25.1959858  26.1270103  71.6812286
  24.3093739  26.4958038  70.9089355  25.6132698  27.0227108  72.6254883
  26.5094604  26.7955360  73.0321121  24.9518299  28.2268944  73.0660248
  23.9456787  27.8505878  73.2508316  25.6371021  28.8964558  74.2650528
  26.5586033  29.4210701  74.0126419  25.0140934  29.7064266  74.6444092
  25.8345718  27.9906960  75.3542175  25.0094757  27.6630745  75.7195663
  24.9347649  29.2669048  71.9273529  25.9275341  29.6136379  71.3883362
  23.7435970  29.5886593  71.3750153  22.9107723  29.3375969  71.8883057
  23.6011639  30.5571499  70.2624512  22.6946430  31.1213112  70.4816284
  24.4663849  31.2137737  70.3537903  23.6419773  29.9857883  68.8446274
  23.3016109  30.7336826  67.9091187  23.9646339  28.7189369  68.6630478
  24.2188015  28.2006607  69.4918365  23.9350700  27.9783516  67.4340439
  24.0942726  28.6850224  66.6195679  25.1109467  26.9974499  67.3167877
  24.8923302  26.2000656  68.0270615  24.9604492  26.6295509  66.3018417
  26.5094738  27.3836613  67.6102448  26.9782314  27.7147255  68.8594742
  26.5052090  27.5510921  69.8164902  28.2961082  28.1357956  68.7426453
  28.8935795  28.4476128  69.4949112  28.7003860  28.1916542  67.3892059
  29.8361149  28.7213974  66.7944489  30.5863457  29.2173767  67.3924179
  29.9335499  28.7181873  65.4164658  30.8503304  29.0526047  64.9537811
  28.9162464  28.1102982  64.6136093  28.9249516  28.1819057  63.5360222
  27.7530499  27.6008968  65.2652969  26.9606571  27.1404419  64.6939011
  27.5911751  27.7289467  66.6711960  22.5859585  27.5230637  67.0216293
  22.4880753  26.7235050  66.1188126  21.4974060  28.0380459  67.6497040
  21.6507721  28.5085888  68.5301361  20.1609821  27.5187683  67.2877731
  20.2485886  26.4573021  67.0560074  19.1432610  27.5675526  68.4458160
  19.1291885  28.6121712  68.7567444  18.1418800  27.4154453  68.0430832
  19.4879341  26.6146450  69.6213989  18.6688919  26.5422344  70.3369598
  19.5564117  25.6355114  69.1473694  20.7227612  27.0286961  70.3535004
  20.9954090  28.2442074  70.4226074  21.5111942  26.1546612  70.8584671
  21.3438015  25.1586514  70.8654480  22.3359680  26.5804214  71.2566833
  19.5129318  28.2010880  66.0006943  18.8267212  27.6443672  65.1245804
  19.8895206  29.4245224  65.7413025  20.4920845  29.7812634  66.4691467
  19.4786644  30.3591022  64.6429596  18.4771423  30.0985050  64.3006973
  19.4522228  31.8921432  65.0950089  20.4409103  32.2010384  65.4343948
  19.1838207  32.5066071  64.2356567  18.3723278  32.1508102  66.1867828
  17.0053844  32.2108612  65.8910599  16.7797852  32.1026115  64.8404465
  16.0744495  32.4360199  66.9061890  15.0367908  32.5716896  66.6392441
  16.5140305  32.4828110  68.1891708  15.6617622  32.6017036  69.2038116
  14.7771025  32.4960938  68.8462830  17.8725376  32.5387878  68.5486145
  18.2081833  32.6173019  69.5721359  18.7555542  32.4588661  67.5131226
  19.8098469  32.6301308  67.6729202  20.4918785  30.1913452  63.4506683
  20.3317337  30.8055840  62.4605217  21.6208668  29.4749413  63.6613846
  21.7740154  29.0508900  64.5651703  22.6978245  29.4075146  62.5487022
  22.8742008  30.3882084  62.1068535  24.0366249  29.0642452  63.1723633
  24.0165043  28.1368885  63.7448196  25.1720886  28.9137325  62.1340942
  26.1461964  28.8039093  62.6107025  24.9441147  28.0721588  61.4799690
  25.1929741  29.8627071  61.5982704  24.5945396  30.1126652  64.1988678
  25.0806656  30.9360332  63.6755676  23.7599182  30.4673195  64.8036194
  25.3842049  29.6669483  64.8037415  22.2617683  28.4321690  61.4488564
  22.0549641  27.2505913  61.7641068  22.0941563  28.8453178  60.1659355
  22.0036030  30.2341881  59.7498207  23.0531635  30.5267067  59.7189026
  21.3417225  30.8456059  60.3631592  21.4267216  30.2030220  58.3432198
  21.6953201  31.0139122  57.6661606  20.3575172  30.2247467  58.5540047
  21.7953701  28.8280258  57.8015747  22.7866001  28.7702446  57.3518829
  21.1278896  28.4568806  57.0238686  21.7826786  27.9105644  59.0674210
  20.8266926  27.4262562  59.2665062  22.8469467  26.7918644  59.0442734
  24.0157013  27.1678886  59.0364799  22.5029182  25.5116863  59.2011261
  21.5081539  25.3424454  59.2447205  23.3894005  24.3827190  59.0060425
  24.4033794  24.7391548  58.8246536  23.5483418  23.4309521  60.2043037
  22.6535053  22.8134804  60.2824173  24.8357964  22.4888515  60.0058594
  24.6432743  21.6589870  59.3258858  25.6806431  22.9574547  59.5011368
  25.2081280  22.1205921  60.9618187  23.6321278  24.2614117  61.4675179
  24.5650024  24.8247662  61.4456406  22.8478184  25.0183449  61.4640007
  23.6785812  23.6523037  62.3702545  22.8538876  23.4825516  57.8684883
  21.6432533  23.4425850  57.6142044  23.7499313  22.6935501  57.2080078
  24.7075958  22.8263855  57.5001259  23.5294685  21.8504009  55.9476013
  22.4877148  21.5340824  55.8946571  23.9902592  22.5507622  54.6156273
  24.3640308  21.8446083  53.8741798  22.9127522  23.2564754  53.8505936
  23.4028301  23.6090240  52.9430504  22.0206470  22.7165318  53.5332489
  22.6570511  24.1838055  54.3632088  25.0686226  23.4697666  54.8555450
  25.5811291  23.1382103  55.5964966  24.4030571  20.6145115  56.0611076
  25.5863686  20.7581234  56.5383835  23.9680405  19.4163895  55.5636635
  23.0182571  19.3963890  55.2207184  24.7461300  18.1729679  55.4035645
  25.7620525  18.4680481  55.6661224  24.1473083  17.2010708  56.3816719
  24.0674896  17.6794472  57.3578300  23.1308823  16.9359970  56.0906143
  25.3668022  15.8430624  56.4604073  25.3952503  15.3681316  55.2119980
  24.8553696  17.7295494  53.8995018  23.9064541  17.8623047  53.1493721
  25.9662914  17.0914040  53.4831352  26.7634850  17.0618553  54.1025772
  26.1566620  16.4871063  52.1636505  25.1932583  16.0933285  51.8397751
  26.6852570  17.4957161  51.1340981  26.6627655  17.1460457  50.1019516
  26.0467033  18.3786125  51.1631012  28.0776711  17.8512306  51.5793266
  28.1256065  18.3184319  52.5629578  28.7205124  16.9709682  51.5796051
  28.9629860  18.9345188  50.5109863  30.6158695  18.4713669  50.9310455
  31.2476292  18.8876896  50.1464081  30.9914379  18.8985806  51.8608513
  30.6780396  17.3894119  50.8143387  27.0127411  15.1395330  52.2552795
  27.5660858  14.9039116  53.2876816  27.0472088  14.2636881  51.2127838
  26.6896229  14.5287714  50.3061638  28.0790405  13.2934341  51.0552254
  28.4059658  12.8951483  52.0157394  27.6103191  12.1778603  50.1403160
  26.5570393  11.9076405  50.2157173  27.6305485  12.5364885  49.1111984
  28.4885578  10.9146910  50.3315811  28.4009476  10.3182173  49.4234810
  29.5415173  11.1042099  50.5400467  27.8135796  10.1655273  51.5011902
  26.9063473   9.3932533  51.1954651  28.2447014  10.2409506  52.7607536
  29.0624123  10.7813511  53.0045204  27.8492775   9.5601234  53.3933754
  29.3304596  13.8701735  50.4480057  29.2615948  14.7684441  49.6400375
  30.5116081  13.4445629  50.9511642  30.5055332  12.8051920  51.7330017
  31.8148384  13.7573681  50.3896561  31.7944183  14.7194319  49.8776817
  32.8579674  13.8285856  51.4224243  32.5334015  14.3463545  52.3250160
  33.0770073  12.8371992  51.8190002  34.1985931  14.3208485  50.9426727
  34.9283218  14.0120687  51.6911697  34.5042686  13.9463301  49.9657402
  34.3313904  15.8815708  50.9525833  35.3879013  16.4101849  50.4153709
  33.5310631  16.5355873  51.6582870  32.0928841  12.6881294  49.3259583
  31.8268185  11.4959288  49.5915909  32.6836243  13.1444283  48.2285957
  33.0489006  14.0853930  48.1930923  33.1405945  12.3361435  47.0810928
  32.2612877  11.9899054  46.5379143  34.0007858  13.2618570  46.1697998
  33.5613594  14.2152910  45.8765869  34.8926430  13.4255304  46.7746925
  34.3344383  12.6910000  44.7911453  35.0599632  11.8942604  44.9552269
  33.4569550  12.1963758  44.3746490  35.0163460  13.8527565  43.6536636
  36.1884270  12.8020334  42.7448196  36.8843803  12.3739681  43.4662819
  35.6918755  12.0039463  42.1929169  36.8680992  13.3919106  42.1298485
  33.9789505  11.0730848  47.4432602  34.7931786  11.0663071  48.3421326
  33.6393356  10.0362339  46.6431122  32.8657913  10.1493416  46.0036278
  34.2467575   8.6908474  46.7569504  34.5795975   8.6320124  47.7932205
  33.1880836   7.6812172  46.6405869  32.2324028   8.0813847  46.9791718
  33.0302734   7.4730282  45.5823555  33.4657784   6.3568125  47.2876282
  34.4046211   6.2654581  48.1559296  32.6866570   5.3804402  47.0321960
  35.5488281   8.5476570  45.8692169  35.4100227   8.7794056  44.6472588
  36.5937042   8.0488539  46.4540787  36.6178513   7.8932238  47.4517212
  37.9513931   8.0766249  45.8237724  37.8192291   8.1280708  44.7430382
  38.8167152   9.2672977  46.2896423  38.8376160   9.1258202  47.3702164
  40.1894379   9.4346399  45.7510948  40.6405487   8.4429369  45.7176437
  40.3339233   9.9774761  44.8169899  40.7432365  10.0317240  46.4755936
  38.1197166  10.6198416  45.9870529  38.7031670  11.5397091  46.0261765
  37.8569336  10.4492121  44.9430542  37.2767487  10.7404318  46.6674690
  38.6877327   6.8035493  46.2235260  38.5164452   6.2952075  47.3683014
  39.4091377   6.2321916  45.2960663  39.5924530   6.7576652  44.4532280
  40.2406120   5.0172696  45.5442963  39.5414658   4.3022008  45.9778633
  40.9455872   4.3702278  44.3489532  41.5470047   5.0994492  43.8061523
  41.7836952   3.0796757  44.6917610  41.0981560   2.3734732  45.1601906
  42.0319061   2.6755672  43.7103386  42.6046181   3.3222101  45.3665657
  39.8911247   3.8827262  43.5088272  40.3852463   3.5022800  42.7789612
  41.3672333   5.4599128  46.5084534  42.1178703   6.3655553  46.1480904
  41.5706635   4.7550364  47.6396637  40.8814125   4.0615506  47.8928642
  42.5038452   5.0533957  48.6948586  42.4998627   4.1677713  49.3302727
  43.5239143   5.1403613  48.3206978  42.0705299   6.2607474  49.4721832
  42.9560432   6.7983012  50.1210136  40.8488731   6.8608952  49.3661308
  40.1474190   6.3671904  48.8329163  40.4177589   7.9285779  50.2833176
  41.1534920   8.7309847  50.2291069  39.4040985   8.2900934  50.1104050
  40.3046188   7.4405546  51.7015343  39.9461861   6.2454414  51.8913651
  40.6034813   8.2752352  52.6679649  41.0128593   9.1678104  52.4316864
  40.4332581   8.0209150  54.1075630  41.1452370   7.2920179  54.4947243
  40.8827934   9.3371792  54.8664207  41.9055138   9.5562601  54.5595894
  40.2334099  10.1740875  54.6095352  40.8383904   9.1395273  56.4425774
  39.8211937   8.9147243  56.7633209  41.9780884   8.3467760  57.0422401
  42.8959618   8.8321466  56.7105484  41.7583694   8.3068218  58.1091194
  41.8449364   7.3286223  56.6765442  40.9943771  10.5434170  57.1768875
  41.6872520  11.1652803  56.6100349  40.0334587  11.0537043  57.2428093
  41.2637329  10.4420547  58.2282104  38.9769058   7.6167064  54.3859596
  38.0561943   8.4171534  54.2704391  38.7794189   6.3255472  54.7901573
  39.5974655   5.7380261  54.8657799  37.4741478   5.7815022  55.1696053
  36.7160950   5.9790745  54.4116974  37.6438255   4.3051476  55.3004684
  38.4913254   4.1616039  55.9707146  36.8139038   3.8179924  55.8123360
  37.8758965   3.5910969  53.9378586  36.8871727   3.5416579  53.4816971
  38.6332741   4.1023998  53.3436813  38.5239258   2.1195536  54.0820084
  39.5788422   2.1740720  54.3508720  37.9424057   1.5543618  54.8103561
  38.3899956   1.3581891  52.7632256  38.8825569   1.7983446  51.8961945
  38.8579636   0.4326821  53.0987015  37.0275650   0.9685430  52.4545364
  36.7874184   0.0654636  52.8377838  36.3770943   1.6681017  52.7825737
  36.9404602   0.8069147  51.4613647  36.9349289   6.4219022  56.4591980
  37.8351173   6.7610021  57.3168755  35.6379814   6.5319338  56.7185860
  35.0319824   6.0615191  56.0616455  35.1282120   7.0161810  58.0142670
  34.0504990   7.0987782  57.8735046  35.3631363   5.9058814  59.1459084
  36.4341965   5.7035789  59.1462746  35.0736923   6.3315234  60.1067162
  34.5960464   4.5780892  58.8414764  33.5221825   4.7567401  58.8962746
  34.8644524   4.0832648  57.9080925  35.0838623   3.5762193  59.9180679
  36.1575890   3.4029009  59.8461494  34.7730217   3.9619193  60.8890038
  34.3571510   2.3097641  59.6904144  33.2678833   2.3470163  59.7048607
  34.4122658   1.9782578  58.6535110  34.6990509   1.2614818  60.6641312
  34.3585777   1.4536093  61.5954018  34.2444534   0.3754324  60.4957161
  35.7041359   1.1759125  60.7150078  35.4782982   8.3994370  58.4830666
  35.5839500   8.6937618  59.7024384  35.7421684   9.3041449  57.4893303
  35.4968948   9.0289993  56.5489922  36.0603981  10.6553526  57.7845192
  36.6038551  10.6531086  58.7293739  37.0263672  11.0695658  56.6300468
  37.7526855  10.2622938  56.5358467  36.3744049  11.0927582  55.7568321
  37.6808815  12.7182961  56.8731270  38.7090530  12.3241291  57.6296883
  34.8252220  11.5634470  57.8814774  33.9644241  11.5409393  56.9817963
  34.7232513  12.5131836  58.7646561  35.5266533  12.6863775  59.3517227
  33.6579895  13.5402708  58.8073807  32.8685417  13.2559614  58.1116409
  32.9617386  13.5759258  60.1971550  33.6337204  13.7660427  61.0340500
  31.8969078  14.7100172  60.2124138  31.2260685  14.6960106  61.0714149
  32.3348160  15.7003460  60.3372612  31.1981335  14.6885471  59.3761406
  32.1936874  12.1699162  60.4177513  31.3200397  12.0998144  59.7697334
  32.8662300  11.3714685  60.1042709  31.7959290  11.9706526  61.8919525
  30.9666138  12.6746883  61.9602890  31.4131393  10.9607763  62.0393486
  32.6560745  12.2364721  62.5064354  34.3494873  14.8159208  58.5291252
  35.3565674  15.0468941  59.2077370  33.7992134  15.6707954  57.6894760
  32.8553543  15.5357676  57.3563232  34.4286575  16.9544449  57.3161850
  35.2949219  17.1617184  57.9444580  34.8477707  16.9131641  55.7901001
  34.0058708  16.6813698  55.1377373  35.1606827  17.9003525  55.4500198
  35.9866791  15.9743834  55.5506592  36.8507233  16.3795891  56.0772858
  35.7063179  14.9666014  55.8570595  36.3998451  15.9879799  54.1273575
  35.5832558  15.6028643  53.5166473  36.6264648  16.9999504  53.7917099
  37.6443214  15.2084799  53.8593025  38.4509697  15.8152990  53.8938217
  37.7872849  13.9200258  53.5255089  36.7996979  13.0917797  53.4155693
  35.8633690  13.4011393  53.6339531  37.1098480  12.2746038  52.9094772
  38.9976120  13.4990368  53.1961861  39.7980537  14.0996962  53.0597878
  39.0759544  12.4987488  53.0804863  33.4422073  18.1222839  57.6119919
  32.2439308  17.9699154  57.9234924  33.9860878  19.3821182  57.5327339
  34.9936523  19.4516315  57.5418625  33.2758560  20.6355629  57.9200706
  32.2236443  20.6097660  57.6367302  33.2875786  20.8964062  59.4046402
  32.8268929  20.0360394  59.8900642  34.7060127  21.2507973  59.9723778
  34.9824181  22.2287140  59.5781975  34.6320572  21.2251282  61.0595665
  35.4376755  20.5293713  59.6086349  32.4486961  22.1054268  59.7757912
  31.4539242  21.9509869  59.3578415  32.3469238  22.2371769  60.8530045
  32.8703880  23.0640316  59.4735374  33.8359337  21.8681297  57.1350517
  35.0329094  21.9211769  56.8304024  32.9284096  22.8196754  56.8905487
  31.9922085  22.7500782  57.2630882  33.2345123  24.1483269  56.4745407
  34.2194290  24.4351082  56.8430443  33.2364845  24.2310925  54.9550247
  33.8642273  23.4496155  54.5268517  32.2381172  24.0897846  54.5410194
  33.8426666  25.5786324  54.4029922  33.5182610  26.4970570  54.8922310
  34.9168816  25.6424389  54.5764771  33.4026604  25.9039707  52.6418037
  34.6711617  24.8861141  51.8935051  35.5578461  25.4812412  51.6750870
  34.7749443  24.1451473  52.6861572  34.3057556  24.4036255  50.9869804
  32.1984482  25.1929417  56.9281464  30.9858704  25.1280689  56.7144051
  32.6771927  26.2079964  57.5948601  33.6477051  26.1909466  57.8740044
  31.8332901  27.2405128  58.2373352  30.7743950  27.0176125  58.1063538
  32.0264206  27.1006031  59.7315254  31.6957760  26.1041908  60.0246696
  33.0485611  27.2195339  60.0909538  31.1297016  28.1475163  60.4951172
  30.9537926  29.0513420  59.9118042  30.1278954  27.8155022  60.7676125
  31.9340038  28.6712875  62.0198402  33.3995399  29.6620770  61.5049515
  33.8190193  30.2273998  62.3371429  34.2212753  29.0820045  61.0849991
  32.9510040  30.2023201  60.6712532  32.1296463  28.6382790  57.6620445
  33.2851334  29.0652027  57.5599022  31.0783653  29.4197350  57.2690659
  30.1455860  29.0325832  57.2807121  31.2794113  30.7068233  56.5384941
  32.3069801  30.7191143  56.1751022  30.4340801  30.6566086  55.2276421
  29.4290447  30.2832317  55.4240913  30.3685894  31.9639893  54.4253769
  29.7786312  31.9833260  53.5090370  29.9432068  32.7052803  55.1018677
  31.4043694  32.2756462  54.2907524  30.9712467  29.7290173  54.3869286
  30.3215885  29.0226536  54.4113007  30.8597622  31.8489685  57.4933739
  29.6493244  31.8780403  57.8911476  31.8232555  32.7587547  57.7167473
  32.6634331  32.5742683  57.1874428  31.7300739  33.7481613  58.8958206
  30.6792641  33.8201714  59.1763840  32.4478035  33.1457443  60.0888824
  32.2502441  32.0754967  60.1492157  33.9874954  33.2665787  59.9641113
  34.3384781  32.8093567  59.0389824  34.2146645  34.3318748  60.0045624
  34.4400864  32.7280807  60.7967453  31.9625664  33.8364677  61.3737831
  32.3193741  34.8651276  61.4253120  30.8795662  33.8511276  61.4962349
  32.3001976  33.3037529  62.2627792  32.2007751  35.1463699  58.5965118
  33.1707230  35.3012772  57.8710976  31.6271954  36.1970749  59.2300453
  30.8124580  36.0445213  59.8071327  32.2832146  37.5011826  59.0969963
  32.5462227  37.7075844  58.0595360  31.3044071  38.6160431  59.4967651
  30.4366970  38.5922203  58.8375130  31.1189690  38.4623146  60.5598183
  31.9227905  40.0550995  59.3315163  32.5352783  40.0366440  60.2329712
  32.5186386  40.1949425  58.4295654  30.9704151  41.1878815  59.2906265
  30.1722488  41.4326477  58.3767166  31.0313301  41.9920464  60.3208885
  31.8347816  41.8845253  60.9233894  30.3142395  42.6821022  60.4932327
  33.5635567  37.5455246  59.9170303  33.5214767  37.4208183  61.1632919
  34.6558418  37.8425903  59.1731377  34.5373230  38.0531693  58.1924667
  35.9460716  37.9592781  59.7956238  35.7600784  38.3101044  60.8107224
  36.5737343  36.5548973  59.9754486  35.8969536  35.9324684  60.5608063
  36.8427773  35.9074821  58.5769997  35.9772606  35.8598709  57.9161568
  37.6814957  36.3272209  58.0215988  37.1289368  34.8668098  58.7293510
  37.8531837  36.5642357  60.6251411  37.6858482  36.7372398  61.5544777
  36.8701935  38.8892365  59.0839119  36.9659805  38.8342094  57.8557243
  37.6182671  39.6746025  59.8400497  37.3448906  39.7699013  60.8076668
  38.6593781  40.4967461  59.2498856  38.4527168  40.6913490  58.1974983
  38.7087822  41.8400612  60.0821266  39.5459061  42.3777542  59.6369209
  37.8355980  42.4650421  59.8949013  38.9539032  41.7202148  61.5925560
  39.1549492  42.7832527  62.1593781  38.7146568  40.6646767  62.2443924
  40.0273933  39.8156242  59.2972412  40.9793854  40.4143906  58.8712540
  40.1908455  38.5947227  59.9084854  39.3291550  38.0868149  60.0485687
  41.4994278  37.8237343  60.0378838  42.2699814  38.4673462  60.4622841
  41.3121986  36.5705757  60.8741875  40.3892136  36.0886154  60.5518227
  42.4771576  35.5403786  60.8633919  42.2024231  34.7765236  61.5908127
  42.5377884  35.0582390  59.8877068  43.3401756  36.1187210  61.1932755
  40.9707260  36.9616890  62.3628044  40.0561256  37.5531006  62.4056854
  40.8810921  36.1882629  63.1256104  41.7453384  37.6902390  62.6021843
  41.9214211  37.3249397  58.6593513  41.0242157  36.8649368  57.9593048
  43.1909676  37.4676781  58.2310257  44.1685982  38.3377953  58.8927765
  44.5667000  37.9096565  59.8127289  43.7261620  39.3142281  59.0900764
  45.3238831  38.5553093  57.9466934  46.3346748  38.5306892  58.3538704
  45.3208427  39.5375404  57.4741249  45.1496124  37.4973412  56.8948898
  45.7523689  36.6507721  57.2236824  45.4307289  37.8160477  55.8911438
  43.6524849  37.0920181  56.8802986  43.0861893  37.7493668  56.2205200
  43.5006561  35.6422119  56.5750008  43.7233543  34.8225555  57.4684639
  43.3132439  35.3830223  55.2507401  43.2799721  36.0936584  54.5338058
  42.9488373  33.9979248  54.8493004  42.0624657  33.6589851  55.3855553
  42.5656700  33.9879036  53.3490105  41.6401672  34.5448799  53.2030029
  43.2813835  34.5961685  52.7959633  42.3542976  32.6070099  52.8304405
  43.2827187  32.0578117  52.9869995  41.5227165  32.1199989  53.3397484
  42.3170547  32.6230583  51.3217087  43.3177490  32.3971252  50.6883163
  41.2000809  32.9562073  50.6996346  40.3666153  33.2580147  51.1837349
  41.2900047  33.1668739  49.7159500  44.0685234  33.0383110  55.2373619
  43.7442741  31.9987068  55.7526665  45.3304863  33.4282684  55.1532135
  45.4627876  34.4103317  54.9578934  46.4696236  32.6086349  55.6186867
  46.2363358  31.5897446  55.3095894  47.8355942  33.0334206  55.1357269
  48.4828720  32.2244225  55.4743347  47.8878746  33.1180496  54.0502739
  48.3606873  34.3957558  55.6145058  49.6029510  34.4918900  55.5573502
  47.6255074  35.4203377  55.7722206  46.4997749  32.4504204  57.1761169
  47.0262756  31.4060268  57.6314697  46.0696068  33.3992043  58.0150948
  45.6632576  34.2038956  57.5596275  46.0587273  33.3786850  59.4915237
  47.0116615  32.9627724  59.8186874  46.0373840  34.8680878  59.9919472
  45.2574615  35.3593369  59.4101448  45.7771950  34.9181976  61.0492477
  47.2674294  35.6188507  59.7187958  48.0316544  34.8963242  60.0051842
  47.3355026  35.7872124  58.6440315  47.3553619  36.8937950  60.4426079
  46.5160637  37.2854843  61.2593117  48.4721336  37.5857315  60.1903839
  49.1611519  37.0784264  59.6537323  48.6296654  38.4701080  60.6520805
  44.9477806  32.5069542  60.2267685  44.9047699  32.4241638  61.4515076
  44.0315170  31.9581413  59.4146118  44.0839500  32.2539864  58.4503365
  42.9953918  31.1019688  59.9374008  42.6616478  31.5568905  60.8700104
  41.7966881  30.9459972  58.9287415  42.3069038  30.4625626  58.0956345
  40.7711182  29.9295883  59.4311104  41.2099953  28.9505749  59.6235237
  40.5251503  30.3302746  60.4144974  39.9832077  29.9308510  58.6779213
  41.1983223  32.3671265  58.6638222  40.5870438  32.6631660  59.5163498
  41.9696846  33.1368980  58.6402206  40.2927933  32.5592575  57.4405899
  39.3791733  31.9650402  57.4578667  39.9846039  33.6028976  57.3778801
  40.9131737  32.3465424  56.5699692  43.4888840  29.7225285  60.2908821
  44.2118225  29.0796909  59.5586395  43.0736809  29.1764221  61.3848228
  42.4054298  29.6957302  61.9360619  43.4122429  27.8736134  62.0380669
  44.3826370  27.5116272  61.6983452  43.5159760  27.9314308  63.6287079
  42.6671677  28.4426613  64.0828781  43.4982338  26.9085732  64.0049362
  44.8314095  28.5164032  64.0177689  45.5910416  27.9509468  63.4780273
  44.8690720  29.5721378  63.7492409  45.0217361  28.4886379  65.5749054
  44.1110191  28.9900303  65.9024811  45.0937233  27.4735317  65.9653854
  46.1184959  29.3033504  66.0009995  46.3310852  30.0356064  65.3386459
  46.6634560  29.3638763  67.2059021  46.4144669  28.5818024  68.1822128
  46.8971634  28.6601486  69.0659332  45.5247383  28.1052341  68.2192001
  47.5673828  30.2694836  67.4929962  47.8629456  30.3953438  68.4505463
  47.9364204  30.9024162  66.7977982  42.3342972  26.7979603  61.6141396
  41.3986320  26.5075130  62.3687248  42.6525536  26.1189823  60.5366936
  43.2936974  26.4376717  59.8243256  41.9242973  24.9761448  60.2290115
  40.8668060  25.2120876  60.3479233  42.1495399  24.5012474  58.7738457
  43.1328430  24.0594120  58.6126289  41.4184952  23.7287312  58.5353012
  41.9205246  25.7220211  57.8287048  40.6745644  26.2304840  57.4097977
  40.9642029  27.2926998  56.6371918  40.2732239  27.9320526  56.1078758
  42.3525391  27.4111900  56.4136925  42.8938293  28.1366291  55.9655380
  42.9079971  26.4858913  57.2522202  43.9803619  26.3645687  57.2936745
  42.2328682  23.7204380  61.1229286  43.4003258  23.4019623  61.3788681
  41.2427750  22.9214401  61.5498924  40.2810860  23.0373878  61.2638626
  41.4886208  21.9175549  62.6864433  42.5300369  21.8816185  63.0062370
  40.4787445  22.2603951  63.8146667  39.5157890  21.9128513  63.4404564
  40.7155495  21.3655949  65.0122070  41.7270012  21.6340103  65.3171921
  39.9916382  21.7377033  65.7371826  40.5131340  20.3254242  64.7569275
  40.6383018  23.7861862  64.3460007  41.5566902  24.0670033  64.8615646
  40.6602249  24.5161934  63.5368576  39.7944984  24.0589733  64.9797821
  41.2815666  20.4714394  62.2342186  40.2321663  20.1571007  61.7026443
  42.3079720  19.6338043  62.4487457  43.1727028  19.9712276  62.8468437
  42.3131523  18.2005329  62.0677986  41.3546371  17.9281960  61.6260033
  43.2586441  17.9935131  60.8303909  44.1980629  18.4972076  61.0581703
  43.3311996  16.9069824  60.7825661  42.6467514  18.5037212  59.5472488
  42.6907883  19.9287109  59.4069252  43.2070389  20.6326771  60.0427856
  41.8962746  20.5210419  58.3488998  41.7454910  21.5904007  58.3607941
  41.1744461  19.7588806  57.4374313  40.5034904  20.3073177  56.3847122
  40.4782639  19.6818104  55.6569023  41.4639359  18.3582573  57.4598236
  41.0162697  17.7497253  56.6880188  42.1750870  17.7424908  58.4653931
  42.1841545  16.6696205  58.5889587  42.7109985  17.2296314  63.1490364
  43.8205566  17.3234673  63.6903954  41.8371124  16.3435898  63.5029259
  40.9662628  16.4904099  63.0128593  41.8061562  15.5718470  64.7256165
  42.6246643  15.7957630  65.4097290  40.4642296  16.0700874  65.5015640
  39.5414925  15.8280544  64.9742279  40.3408127  15.4349222  66.3787308
  40.4462204  17.5371113  65.9582596  40.3586884  18.0686169  65.0106583
  39.2691231  17.7512436  66.8637848  39.3462830  18.7286949  67.3399506
  38.3584137  17.7981224  66.2667007  39.1711922  17.0034084  67.6507111
  41.6690483  17.9574032  66.7517776  41.6112213  17.3905430  67.6809769
  42.6271133  17.8361893  66.2462845  41.5377846  19.0052395  67.0218048
  41.6439896  14.0937910  64.4254837  41.2823486  13.6861134  63.3380432
  41.7585945  13.3020954  65.5442963  42.1850433  13.8091249  66.3066330
  41.6222801  11.8582039  65.5245209  41.9380493  11.4894295  66.5004272
  40.1725006  11.3437290  65.3376236  39.9152718  11.6682997  64.3293610
  40.0160141  10.2657146  65.2989426  39.1828537  11.8178740  66.4806519
  39.1746902  12.9076633  66.4607544  38.1754303  11.4229012  66.3495331
  39.6446571  11.4057016  67.8276520  40.1585770  10.2714796  68.0228043
  39.5426254  12.1995230  68.8137283  42.7259674  11.3239136  64.5666046
  43.8939667  11.6298628  64.6901245  42.2890816  10.5665607  63.5573769
  41.2903976  10.4314432  63.4905319  43.2360229  10.0670280  62.5072212
  44.2582397  10.1638718  62.8730011  42.8020630   8.6554422  62.0524101
  41.7695732   8.6148033  61.7054024  43.4100761   8.3033838  61.2190590
  42.8909683   7.7193255  63.2762184  43.8174858   7.9114995  63.8172684
  42.0640259   7.9468908  63.9488907  42.5288811   6.2744098  62.8262787
  41.5098267   6.3323560  62.4438324  43.2718964   5.9227138  62.1105003
  42.6646690   5.2282782  63.9745369  43.7255936   5.1516767  64.2126083
  42.1647987   5.6223273  64.8593903  42.2282906   3.8924797  63.5684967
  42.6341934   3.6704662  62.6706924  42.5749016   3.1932528  64.2096329
  41.2190819   3.8876333  63.6082535  43.2484741  10.9619284  61.3154449
  44.1751022  11.0014620  60.4983635  42.3360252  11.9679165  61.2386971
  41.5923653  12.0127525  61.9206505  42.2462311  12.9429140  60.1129227
  42.2271767  12.4303799  59.1511269  40.9066772  13.7088585  60.1202164
  40.8656006  14.4776678  59.3486328  40.1529007  13.0324812  59.7171898
  40.6385765  14.1673584  61.0720558  43.4210205  13.9887667  60.1374588
  43.6258888  14.6031218  59.0972061  44.1538925  14.1241837  61.2300797
  43.7232246  13.8803196  62.1105118  45.5361023  14.6055422  61.3403893
  45.4967270  15.6942883  61.3059692  46.2301788  14.3114281  62.7323380
  45.6459961  14.6450882  63.5899544  46.4186172  12.8141012  63.0657921
  46.7177658  12.6188574  64.0955963  45.4634781  12.3051701  62.9361839
  47.1898117  12.3425770  62.4566727  47.5983238  14.9894342  62.9844398
  48.0026741  14.6601887  63.9416199  48.2084808  14.6834545  62.1346245
  47.4322929  16.0666447  62.9967384  46.5143509  14.1671257  60.2077675
  47.2950745  15.0125389  59.7401085  46.2210388  13.0323048  59.5562019
  45.5754395  12.3861675  59.9872627  47.0277252  12.6100779  58.3221588
  48.1091194  12.6008320  58.4585609  46.7055092  11.0949898  58.1640778
  46.6900673  10.6795855  59.1716995  45.3079491  10.8244419  57.5224915
  44.6049690  11.5188694  57.9825859  45.4111710  11.0922298  56.4709511
  44.8994942   9.8281784  57.6919556  47.8710327  10.4897108  57.3480949
  48.0545120   9.4314098  57.5336685  47.6891785  10.5021715  56.2734451
  48.8551521  10.9581499  57.3611717  46.7123528  13.3194609  57.0429420
  47.5269699  13.3053226  56.1349564  45.5738220  14.0588560  57.0276985
  45.1603165  14.1800470  57.9411697  45.1668777  14.9632235  55.9810410
  45.3834534  14.4317656  55.0543480  43.6901245  15.2737322  56.0355644
  43.4685211  15.8492231  56.9343452  43.5056114  15.9114275  55.1710434
  42.7115135  14.1198864  55.9065285  42.8173523  13.4540119  56.7629776
  41.2921181  14.7087460  55.9512825  41.0900459  14.9895573  54.9176407
  40.5383987  13.9925795  56.2785606  41.2027588  15.5812330  56.5984917
  42.9453278  13.4249201  54.5375443  43.8838539  12.8709345  54.5181274
  42.1313782  12.7135839  54.3975906  42.8755722  14.0919342  53.6782875
  45.9712067  16.2232132  55.9430237  46.2350502  16.7406902  54.8795662
  46.3745270  16.7596607  57.0943527  46.2406998  16.2402306  57.9501457
  47.0649643  18.0472221  57.2538490  47.4988708  18.3211193  56.2921829
  46.0181694  19.1875210  57.5735588  45.3405075  18.8643341  58.3637657
  46.5111198  20.1111183  57.8769798  45.0784149  19.5421619  56.4308090
  44.4771881  18.7016182  56.0842400  44.4020500  20.2980137  56.8299522
  45.8241692  20.0781288  55.1443481  46.5454636  19.3622818  54.7501411
  45.2247887  20.1815987  54.2398415  46.6369934  21.2981205  55.5290756
  47.5871124  21.1603184  55.8427391  46.2819061  22.5520287  55.1661110
  45.1652679  23.0412083  54.7677231  45.2379417  24.0212669  54.5346870
  44.3002205  22.6047134  55.0527992  47.2345238  23.4123802  55.3204994
  47.0879478  24.3852196  55.0920296  48.1156731  23.1895390  55.7609787
  48.0687714  18.0223808  58.3615685  47.9212265  18.8813515  59.2618027
  49.1879387  17.2817059  58.2051926  49.5136528  16.3162403  57.1246071
  49.2252121  16.7881355  56.1853409  49.0380173  15.3357277  57.1461639
  51.0363808  16.0020390  57.2739601  51.5156059  16.7843990  56.6854362
  51.4198494  15.0461311  56.9171829  51.2839203  16.2090912  58.7900047
  52.2704544  16.6402950  58.9600601  51.2147102  15.2695837  59.3383064
  50.2496071  17.2905712  59.1693039  49.7687416  16.9118347  60.0712090
  50.9288025  18.6910400  59.3277016  51.5853081  19.0436535  60.3412285
  50.7484665  19.5861282  58.3469276  50.2035751  19.4163094  57.5136490
  51.6174927  20.7721443  58.1688499  52.6456757  20.5437336  58.4495049
  51.5863228  21.1842079  56.6327744  52.2817764  22.0008621  56.4390717
  51.9938622  20.3902378  56.0069771  50.2048492  21.6491852  56.2030411
  49.2924728  20.8650379  55.9348373  49.9628868  22.8798790  56.2349434
  51.1724625  22.0134068  59.0028152  52.0508041  22.8912392  59.2638893
  49.8788795  22.1108437  59.4486618  49.3561172  21.3270893  59.0845833
  49.3685646  23.0647602  60.4577217  49.6706619  24.0408459  60.0781097
  47.8343201  22.8223057  60.3716736  47.6581116  21.7640991  60.5646667
  47.3592949  23.3736916  61.1831093  47.2387924  23.2717457  58.9393692
  47.6679878  22.7168388  58.1051178  45.7353249  22.9411793  58.9566917
  45.2971382  23.3638020  59.8608360  45.1568680  23.2823658  58.0981598
  45.6594620  21.8541145  58.9314995  47.2321091  24.7838268  58.7436981
  46.6575508  25.1587296  57.8966827  47.0233650  25.3389111  59.6582489
  48.2832298  25.0720596  58.7307129  49.7734604  22.7560158  61.9028397
  49.8037987  23.6539783  62.7387543  50.2672920  21.5364132  62.1957970
  50.4145393  20.9777832  61.3673325  50.7236748  21.0179920  63.5012932
  50.0360832  21.3622932  64.2738113  50.4751091  19.5108509  63.5030479
  49.4002647  19.3872700  63.3706245  51.0463333  19.1134987  62.6640472
  50.9605827  18.9374561  64.6663589  50.3309975  19.1216602  65.3672791
  52.1617889  21.5533733  63.8064613  53.1211205  21.5709114  62.9835014
  52.3785248  21.9923000  65.0021667  51.5691566  21.9741211  65.6060638
  53.7180023  22.5212688  65.5379105  53.3978767  22.8807869  66.5158539
  54.6501503  21.2895794  65.7104187  54.8157043  20.8003960  64.7505341
  55.5717010  21.7362595  66.0836792  54.2763214  20.1824284  66.6236877
  53.3562393  19.7128754  66.2757416  55.4140587  19.1305637  66.6611023
  56.3787193  19.6338348  66.5959320  55.5122147  18.5913582  67.6032944
  55.2302551  18.4006691  65.8727112  54.1215324  20.6403046  68.0226288
  54.0207481  19.7809086  68.6854858  54.8964653  21.3437023  68.3272781
  53.2116089  21.2403355  68.0126343  54.2324142  23.6628971  64.6330643
  55.3735886  23.5590630  64.2168121  53.4669876  24.6918793  64.3365021
  52.5296783  24.7683735  64.7048798  53.7773972  25.6611729  63.2989998
  53.9471703  25.1317768  62.3614388  52.5941200  26.5711460  63.1340637
  51.6400719  26.0510845  63.2202759  52.4874229  27.5915298  64.3378601
  52.7871094  27.1510334  65.2887802  53.1261749  28.4662857  64.2158279
  51.4381027  27.8850689  64.3672028  52.6927185  27.1767921  61.8775673
  52.3195267  26.5204124  61.2846985  55.0751381  26.4857941  63.6473465
  55.4039803  26.7305050  64.8506165  55.8119545  26.8400898  62.5830002
  55.5724411  26.5599270  61.6426582  56.7780724  27.9470673  62.6572113
  57.3892441  27.8682747  63.5563011  57.6690331  27.8689270  61.3996887
  57.9962692  26.8295937  61.4280319  56.9993629  28.0217476  60.5533524
  58.9159012  28.8079853  61.2477646  59.5577469  28.5564709  60.4034424
  58.4949341  29.7862358  61.0155602  59.7292938  28.8102551  62.4951096
  60.5206490  29.5406551  62.3266602  59.1182632  29.0333042  63.3697433
  60.3326569  27.4426613  62.8056870  59.5933990  26.6430626  62.7583618
  61.1895676  27.1821728  62.1844330  60.7522583  27.3583126  64.2699356
  61.0340157  26.4041080  64.4437256  61.5171661  27.9749775  64.5039139
  59.9151039  27.4905758  64.8192749  56.0934486  29.3182926  62.6883011
  56.6779900  30.3510666  63.0737381  54.8780060  29.4398251  62.2374687
  54.3463516  28.5954208  62.0811729  54.1410751  30.6827946  62.0638084
  54.9123535  31.3183727  61.6287498  52.9654579  30.5199051  61.0957146
  53.3985710  30.0023937  60.2397385  52.2024384  29.8645000  61.5156479
  52.4270782  31.7851524  60.5596008  53.0555458  32.8075523  60.6362610
  51.2767944  31.7890911  59.8492126  50.8971939  30.9249783  59.4896088
  50.9834137  32.6826477  59.4810028  53.6968994  31.3848000  63.3439598
  52.6132317  31.0310040  63.8025093  54.4046288  32.4354706  63.7787399
  55.2880402  32.6686134  63.3482437  53.8571587  33.2897072  64.8011322
  53.9754906  32.7588730  65.7457657  54.6405678  34.5914803  64.9882889
  54.3330956  35.2076836  65.8331909  56.1155586  34.2815590  65.3289032
  56.2082520  33.4566917  66.0353775  56.7066422  33.8724098  64.5095596
  56.5823898  35.1778641  65.7373199  54.8290939  35.4253311  63.8028221
  54.0424461  35.9729004  63.7484703  52.4141083  33.7695007  64.5823212
  51.6214981  33.9379730  65.5383148  52.0944939  33.9749756  63.3182678
  52.7602196  33.9636993  62.5588036  50.7692909  34.5291634  62.9774666
  50.3298378  35.1554413  63.7538414  50.8779831  35.3450317  61.6550713
  50.7719116  34.6308899  60.8384628  50.0280037  36.0254478  61.7068176
  52.1207047  36.3052444  61.3932724  53.0215721  35.6957054  61.3225632
  52.0091515  36.7035522  60.3848000  52.1945915  37.2964630  62.4904785
  52.7181396  36.9695358  63.5823364  51.9560699  38.4758339  62.2374153
  49.7028046  33.5214310  62.7895737  48.5986633  33.9395447  62.4366646
  49.9267731  32.2574921  63.0356026  50.8793297  31.9907532  63.2395325
  48.8633232  31.2047501  62.8825951  48.2598991  31.3907509  61.9941177
  49.4557838  29.8482838  62.5278130  50.0816154  30.0186462  61.6517906
  50.1386108  29.5604229  63.3271751  48.3740425  28.7006474  62.3955956
  47.7370071  28.8143806  63.2727242  47.4769135  28.9011326  61.1983643
  48.0004082  29.1876583  60.2862511  46.8034782  28.0561066  61.0551453
  46.7719498  29.7241116  61.3159599  49.0816689  27.3123512  62.2652626
  49.8114433  27.3494644  61.4564705  49.4668121  27.0211830  63.2424965
  48.3320007  26.5402069  62.0923691  47.9766579  31.2031631  64.1485519
  46.7208405  31.0759544  64.0397491  48.4987259  31.2907009  65.2915192
  23.2786713  46.2721367  57.3518066  23.0556355  45.7266846  58.1720695
  24.0150642  46.9518623  57.4775200  22.4286995  46.7578773  57.1034050
  23.7303734  45.4094543  56.2485924  22.8796730  44.8061523  55.9316788
  24.1213322  46.3495750  55.1281357  23.2220497  46.9336700  54.9326134
  24.9059906  47.0591507  55.3906441  24.4783344  45.6166000  53.8025360
  24.6788940  46.3697433  53.0405273  25.4593754  45.1601868  53.9342384
  23.3379440  44.4219170  53.3030396  21.8750095  45.4750977  52.9317017
  22.1513424  46.3384743  52.3264542  21.1320801  44.8008919  52.5055504
  21.5504169  45.7126198  53.9447784  24.8615932  44.4437370  56.6140404
  25.9170189  44.8657150  57.0517235  24.6340256  43.1644402  56.2709694
  23.6884327  42.9184303  56.0151749  25.5360088  42.0069237  56.5020790
  26.5558891  42.2593536  56.2118607  25.4680424  41.4250946  57.9826889
  24.4605217  41.1796417  58.3184776  26.0023499  40.4790077  57.8958740
  26.2652168  42.2459564  58.9517555  27.2404842  42.4078140  58.4926720
  25.7341118  43.1883011  59.0859680  26.5692120  41.6708870  60.5984573
  27.6032238  40.1782112  60.3313789  27.0032940  39.2923775  60.5398979
  27.9422188  40.1981430  59.2956238  28.5046024  40.2892494  60.9341125
  25.0807972  40.9021645  55.5711937  23.9411297  40.9090881  55.0908394
  25.8756714  39.8976059  55.3668633  26.8429031  39.9186630  55.6568985
  25.5354633  38.8316345  54.4244766  24.7869415  39.1798553  53.7127495
  26.8171234  38.4658928  53.6100311  27.6735878  38.3481827  54.2738953
  26.6563358  37.0725555  52.9236755  25.6700191  36.9550362  52.4748230
  27.5218716  36.9028931  52.2832375  26.6803265  36.2785988  53.6701126
  27.0763321  39.6073456  52.6027489  27.8967915  39.2888298  51.9597092
  26.1893959  39.7963676  51.9980049  27.5875206  41.0232506  53.0751419
  28.5673180  40.9794388  53.5507240  27.9088459  41.4700356  52.1342735
  26.7283840  41.5855446  53.4409409  24.9409618  37.7240028  55.3689766
  25.5689659  37.4035568  56.3497086  23.7282467  37.1615791  54.9821091
  23.2531013  37.5661163  54.1879501  22.8673306  36.2350960  55.8079987
  23.4367409  35.7979393  56.6282234  21.6389713  36.9789581  56.3078766
  21.1616268  37.3689156  55.4088860  20.9504375  36.2439880  56.7248154
  21.9950447  38.1873550  57.2101479  22.4141140  38.9930305  56.6073532
  21.1070232  38.5226250  57.7459831  22.8352833  37.8539543  58.4523010
  22.3665695  37.0254478  58.9833221  23.8761654  37.6146545  58.2345810
  22.8679485  39.0629921  59.3730659  22.2060566  39.7905617  59.1436310
  23.5397739  39.1963997  60.4718018  24.2204247  38.1917686  60.9755745
  24.5831699  38.2961540  61.9123878  24.3230667  37.3115005  60.4911232
  23.4616928  40.2850609  61.1160278  22.7883987  41.0315323  61.0182838
  24.0552063  40.2409515  61.9320526  22.4924469  35.0540466  54.8456802
  22.9494476  35.0460014  53.7082520  21.6726952  34.1599808  55.3334274
  21.1981297  34.3906021  56.1946449  21.2978516  32.9963951  54.4797592
  21.1426277  33.4098358  53.4832306  22.1747990  32.3521118  54.4168243
  19.9898396  32.3114929  54.9225578  19.5095310  32.5370674  56.0363960
  19.3759174  31.5725994  53.9904709  19.9189072  31.1532764  53.2492371
  17.9839306  31.1290016  54.0578156  17.5715008  31.2520924  55.0592422
  17.1578693  31.9768295  53.0451851  17.8267708  32.1365318  52.1995049
  15.9168005  31.3203506  52.4783897  15.5470514  31.9413910  51.6624870
  16.3356838  30.4611111  51.9546051  15.1961203  31.1169014  53.2704277
  16.7632847  33.2921104  53.7088356  15.8391953  33.1546783  54.2703247
  17.5259876  33.6712036  54.3890343  16.5647049  34.4982796  52.7354012
  16.3354492  35.3745232  53.3418236  17.5175381  34.7572670  52.2737312
  15.7556524  34.4287529  52.0082817  18.0200634  29.6518841  53.8245239
  18.8480377  29.2017746  53.0626259  17.0424595  28.9061260  54.3511391
  16.4447002  29.3056755  55.0604668  17.0048084  27.4649506  54.1137581
  17.4280510  27.2179451  53.1401253  17.7944870  26.6957989  55.2412910
  17.4442253  27.0224152  56.2204399  17.6485596  25.6205101  55.1385231
  19.3034668  26.8298359  55.2213898  19.6491776  26.6770248  54.1990280
  19.6336784  27.8388176  55.4684067  19.9934597  25.7340412  56.0064316
  21.0736294  25.8558750  56.0869904  19.6093788  25.6430264  57.0224495
  19.7020206  24.4128971  55.2800674  20.0487537  24.3666573  54.3325806
  19.1774883  23.3089123  55.8340492  18.7119160  23.2495403  56.9924583
  18.8208256  24.0324821  57.6211472  18.0821800  22.5059700  57.2582321
  19.1089001  22.2908630  55.1056023  19.5069904  22.3946285  54.1831779
  18.6287785  21.4563942  55.4109650  15.5571527  26.9852676  54.0195885
  14.6339684  27.5947285  54.5383606  15.4503746  25.8328247  53.3185844
  16.3180733  25.4254265  53.0004234  14.2106323  25.0090981  53.2471848
  13.8839655  24.9762688  54.2865639  13.4594011  25.5942631  52.7167740
  14.3482189  23.6530666  52.6715698  15.4306316  23.2422771  52.2122154
  13.2635937  22.9348469  52.6385956  12.4581776  23.4091644  53.0212517
  13.0612993  21.5788841  52.2720490  13.8721046  21.3524914  51.5796318
  13.1651554  20.5925636  53.4922066  13.1660490  19.5490170  53.1773682
  14.0426426  20.8911591  54.0657539  12.2627029  20.8136940  54.0621033
  11.7018881  21.2925434  51.6621323  10.7561083  22.0267601  51.9640541
  11.5587082  20.2031078  50.8669090  12.4354420  19.7819481  50.5947647
  10.3120651  19.5377865  50.4491196   9.7098818  19.4160881  51.3494873
   9.6500340  20.3909130  49.3899384   9.4940319  21.3761768  49.8292809
  10.4378395  20.4259453  48.0369682  10.2122135  19.5536003  47.4236031
  10.1976261  21.3588676  47.5270157  11.5084705  20.3215294  48.2128906
   8.4194851  19.8723507  48.9490013   8.1155386  20.4687481  48.2608719
  10.5755539  18.0685062  49.9790268  11.7517643  17.7009182  49.7863007
   9.5259228  17.3181877  49.6262627   8.6136179  17.7464542  49.6924973
   9.5838070  15.9540663  49.1717567  10.5725803  15.6439171  48.8337708
   9.2287140  15.0177546  50.4007072   9.3224945  14.0309610  49.9473381
  10.2670851  15.0596123  51.5414124  10.0691633  14.2531080  52.2474403
  11.2505970  14.9358835  51.0880966  10.1722431  15.9134426  52.2122917
   7.9914784  15.3098898  51.0447769   7.2700434  14.8657446  50.5932617
   8.6698627  15.7720766  47.9169693   7.7795973  16.5079021  47.6414757
   9.0203629  14.8232813  47.0575371   9.7867813  14.2229509  47.3264389
   8.2840309  14.3253660  45.8906250   7.2999849  14.7934580  45.8652725
   9.0146103  14.6077242  44.5542450   8.3462868  14.3242702  43.7411652
   9.3270369  16.0811367  44.3137665  10.2253437  16.1966743  44.9202347
   9.5600452  16.2875385  43.2691574   8.5979500  16.8014603  44.6848106
  10.1891193  13.7050133  44.3587685   9.8079996  12.7018948  44.1674690
  10.7240963  14.0443296  43.4717712  10.7630758  13.7830782  45.2821159
   7.9959269  12.8279600  45.9686584   8.6599131  12.0840034  46.6889343
   6.9773922  12.3774567  45.2330399   6.4325762  13.0131559  44.6680946
   6.3987536  11.0060730  45.3098297   6.6641254  10.5004330  46.2382736
   4.8778267  11.1336308  45.0037766   4.3928161  11.7810831  45.7343063
   4.8520265  11.6207151  44.0290031   4.1051793   9.7618361  44.8973770
   3.0612192   9.9825430  44.6748123   4.4415131   9.2512226  43.9950180
   4.2570028   8.9408751  46.2091255   4.3163600   9.4900532  47.2922173
   4.3509488   7.6816864  46.1529541   7.0126424  10.1575670  44.1786118
   6.9881706   8.8929434  44.1732559   7.5880361  10.8398561  43.1968727
   7.3339696  11.8063269  43.3434753   8.1639595  10.3855257  41.9497986
   8.2716122   9.3010283  41.9303932   7.2749057  10.7007847  40.7535248
   7.0965285  11.7719431  40.6591759   7.7272558  10.4425640  39.7960281
   5.9668145   9.9213514  40.9025841   6.2408514   8.8686266  40.8334656
   5.4188437  10.1796904  41.8087234   5.0420852  10.2217464  39.6412315
   5.4672832   9.8783197  38.6981697   4.2450919   9.5221376  39.8931198
   4.5089860  11.5547752  39.6096687   4.4858437  12.1483278  40.4265289
   4.2983537  12.2506523  38.4978867   4.1817303  11.6316214  37.3557930
   4.3684468  10.6427460  37.2699661   4.1116929  12.0760269  36.4515228
   4.1430082  13.5288439  38.5335655   4.2520156  14.0412893  39.3970604
   3.9892826  14.1039696  37.7176628   9.4722757  11.0679379  41.7118149
   9.5083361  12.2690954  41.4924469  10.5285702  10.2162676  41.4517822
  10.4341059   9.2314215  41.6548920  11.7314816  10.6750231  40.7899933
  11.9449730  11.7057028  41.0732231  12.9306803   9.8016539  41.1323814
  13.1525927   9.7729082  42.1991653  12.7744093   8.7393675  40.9446602
  14.1219063  10.2502680  40.2700195  14.4547968  11.4572687  40.3369522
  14.8781357   9.4558058  39.6945381  11.3923273  10.7624884  39.2970963
  11.6686525   9.7949286  38.4834938  10.9118004  11.9633684  38.8005257
  10.6436892  12.5620193  39.5685310  10.6288404  12.2885008  37.4349022
  11.3797598  11.9288874  36.7314110   9.2347851  11.7468243  37.0270004
   9.1330128  10.8050156  37.5662003   8.0364532  12.6474142  37.4563599
   8.1962271  13.6483650  37.0555191   7.1211624  12.1543427  37.1289101
   7.9923482  12.6857319  38.5447922   9.2440348  11.4534187  35.6758842
   9.7522240  10.6732512  35.4420395  10.7122478  13.8048115  37.3519402
  10.2180576  14.5304604  38.2231483  11.2432528  14.4297781  36.2879944
  11.6615744  13.8251314  35.5955276  11.4698153  15.8983908  36.2519722
  12.0644236  16.2083607  37.1113129  12.2816505  16.1711140  34.9780312
  12.6437321  17.1869965  35.1360893  13.1516304  15.5183554  34.9063301
  11.4688787  16.1046429  33.7126808  11.1610098  15.0594950  33.7440186
  10.6012783  16.7612286  33.6473656  12.3313093  16.3397522  32.5086823
  12.0140066  17.3456135  31.8342037  13.3465099  15.6650572  32.2941628
  10.2644272  16.7901325  36.3832436  10.3729296  17.9112339  36.9135284
   9.0649891  16.2471809  35.9539299   9.1209698  15.3271151  35.5410728
   7.9137468  17.0612144  36.0887909   8.2495356  18.0703011  35.8498497
   6.6718225  16.6017437  35.3412857   5.9745984  17.4394855  35.3542824
   7.0217600  16.3048935  34.3525848   6.0287657  15.3442488  35.9576225
   6.5659466  14.4212084  35.7395973   5.7626314  15.5178833  37.0002785
   4.6737542  15.1160641  35.2953033   3.8058908  14.5401688  35.9552498
   4.5592737  15.3739462  34.1034470   7.5296311  17.3342438  37.5598068
   6.9860272  18.3890533  37.9185829   7.8021598  16.3940144  38.4760818
   8.1725655  15.5110178  38.1548004   7.3850131  16.4418564  39.9003944
   6.4118185  16.9276981  39.9707489   7.1990428  15.0382509  40.4708786
   6.5201335  14.5322952  39.7844467   8.1010857  14.4304943  40.5420074
   6.5760708  14.8659935  41.8254509   6.7721486  13.8536673  42.1787872
   7.0921259  15.5712862  42.4768753   5.0996571  15.0936146  41.7444382
   4.5857964  16.0279675  42.3382912   4.3856368  14.2181396  41.2251816
   8.4434452  17.2981815  40.6558113   8.0721502  18.1028557  41.5121269
   9.7422771  17.0758095  40.3941803   9.9145823  16.2715302  39.8080521
  10.7956991  17.7217178  41.1232071  10.5602036  17.6302013  42.1835213
  12.1573172  17.0017090  40.9419937  12.3434734  16.7355309  39.9015160
  13.3589497  17.9027824  41.4062424  13.2659016  18.9069405  40.9925957
  13.4257317  17.9856663  42.4910355  14.2753468  17.4611588  41.0147209
  12.0915384  15.7066326  41.8234863  11.7952356  15.8941832  42.8555374
  11.2316046  15.2206573  41.3625717  13.3907490  14.9650917  41.6218758
  13.8035669  14.8764429  42.6267738  13.3607416  14.0619307  41.0123672
  14.1268892  15.4219532  40.9604607  10.7855988  19.2386436  40.7756386
  10.9329395  20.0124378  41.7306747  10.7213364  19.7027779  39.4866753
  10.5940571  18.9373646  38.8401146  10.8768969  21.0846100  39.2267189
  11.7033796  21.5125103  39.7941055  11.2274494  21.3589230  37.7504845
  10.4349575  21.0525093  37.0677185  11.3832197  22.4312305  37.6321907
  12.4518690  20.5440521  37.2291832  12.2656736  19.4814034  37.3847656
  12.6440001  20.7534256  35.7922935  11.7468910  20.3587055  35.3153305
  12.7188206  21.8295383  35.6358147  13.5024738  20.1813183  35.4404221
  13.6676006  20.8080444  38.0898895  14.5144682  20.3057384  37.6223450
  13.8458748  21.8743515  38.2288437  13.5545053  20.4087219  39.0977898
   9.6417656  21.8867989  39.6596718   9.7737589  22.9335423  40.3017311
   8.4317360  21.3824081  39.3495445   8.4333200  20.5917358  38.7211037
   7.1439061  21.9243069  39.8275909   7.0992398  22.9201736  39.3867378
   6.0068016  20.9930706  39.2727280   6.0486565  20.9161282  38.1862526
   6.1333122  20.0452538  39.7959290   4.5886178  21.5313416  39.7572174
   3.8512783  20.7754440  39.4869461   4.5810008  21.6376610  40.8419952
   4.2485409  22.9062767  39.0990601   4.9798388  23.4398918  38.2998123
   3.1950331  23.5969791  39.5104828   2.6505418  23.2994328  40.3074112
   3.0105231  24.5162983  39.1350899   7.1449375  22.1314754  41.3564796
   6.9324150  23.2307358  41.7344856   7.4381347  21.1296062  42.1584969
   7.5555625  20.1974659  41.7877884   7.5593400  21.1969528  43.6327629
   6.6880398  21.7119083  44.0374298   7.6305294  19.7309780  44.2121086
   8.4964609  19.2511864  43.7559700   7.6987486  19.8765202  45.2901955
   6.2997994  19.0053673  43.9828491   6.0072885  18.9997921  42.9328461
   6.4353938  17.9700356  44.2955933   5.1848373  19.5436401  44.8874397
   5.4886436  19.6170540  45.9316673   4.9725165  20.4855175  44.3815880
   3.8695190  18.6484985  44.7804375   4.1250691  17.7467976  45.3369713
   3.0867643  19.1429806  45.3556633   3.3777034  18.2947483  43.3772469
   2.4891362  17.8148003  43.3913689   3.2627532  19.0726967  42.7434654
   4.1266012  17.7746525  42.9427872   8.6749191  22.1251316  44.0310707
   8.4600105  22.9487629  44.9405556   9.8664379  21.9988880  43.4570618
  10.0464163  21.3193684  42.7318306  11.0201759  22.8911228  43.9162407
  11.1272697  22.9280128  45.0003395  12.4094238  22.5131207  43.3193359
  12.4106922  22.7369366  42.2525558  13.5895624  23.2337494  43.8616104
  13.2740517  24.2700539  43.7406464  13.6614780  23.1735878  44.9475708
  14.5364199  23.0334797  43.3601570  12.6378422  21.1527328  43.6549416
  12.0957470  20.5660076  43.1225090  10.7219515  24.3901653  43.5932655
  11.0532665  25.2526588  44.3782654  10.1534872  24.7033710  42.4164886
   9.9698229  23.9646053  41.7527161   9.6252899  26.0140038  42.0618820
  10.4227104  26.7528286  41.9820786   8.8417635  25.8966236  40.7153816
   9.5602407  25.6733418  39.9266891   7.9866462  25.2249565  40.7911568
   8.1306763  27.1379414  40.3407059   7.6356931  27.5869007  41.2018280
   8.8064575  27.8858414  39.9258995   7.0368562  26.9980698  39.2942581
   6.1640606  26.7003288  39.8753586   6.8826981  27.9710846  38.8278046
   7.4633098  25.9931240  38.2156067   8.3461037  26.3684998  37.6980438
   7.8187509  25.0841007  38.7008247   6.4160352  25.6473217  37.2443542
   6.8409591  25.1479359  36.4761429   5.7446685  25.0197067  37.6632462
   5.9174967  26.5011139  37.0379601   8.6858816  26.4895821  43.1365013
   9.0249357  27.5537338  43.6816940   7.6095715  25.7726402  43.4838333
   7.4256625  24.8897686  43.0290680   6.6846757  26.2544899  44.5407410
   6.2258611  27.1833496  44.2019043   5.4978843  25.2273293  44.6276894
   5.7866435  24.1774349  44.6771126   4.8865514  25.3475132  45.5220757
   4.5048118  25.2486820  43.3486328   3.8499236  26.1152954  43.4392014
   5.1555367  25.3067474  42.4761162   3.5812380  24.0469742  43.2588196
   3.9726353  22.9930992  43.7589684   2.3557067  24.2045135  42.8095055
   2.0304549  25.1450710  42.6372833   1.7518102  23.4136753  42.9826660
   7.3257499  26.5340176  45.9243431   6.9789062  27.5837879  46.5575256
   8.3493500  25.7189655  46.2852402   8.6455193  24.9078407  45.7613525
   9.2428026  26.0028992  47.4493713   8.6325951  26.0716820  48.3499374
  10.1939383  24.7713528  47.7443123   9.5849667  23.9049091  48.0022469
  10.6975565  24.4689217  46.8261604  11.3228807  24.8766975  48.7881203
  12.0406818  25.6235294  48.4488487  10.6090021  25.2940140  50.1522408
  10.1014643  26.2578316  50.1126938   9.8209314  24.5506763  50.2726402
  11.4163303  25.3313885  50.8836288  12.0546131  23.5515423  48.9921532
  12.3024178  23.1757908  47.9994316  12.9741402  23.7714310  49.5345726
  11.4280090  22.7668991  49.4161911  10.0693760  27.2314396  47.2558250
  10.0800848  28.1063271  48.0942154  10.7098064  27.3735542  46.0963364
  10.6373796  26.6087990  45.4405899  11.6415873  28.4855118  45.7981491
  12.3938351  28.4914665  46.5869408  12.3334198  28.3693733  44.4413490
  11.5791874  28.1618690  43.6822853  12.7986727  29.3301525  44.2210083
  13.3295155  27.1803589  44.4050713  12.9891891  26.3687248  45.0481300
  13.5263281  26.6653290  43.0026054  12.5446692  26.5255928  42.5499306
  14.0132637  27.3976898  42.3586769  14.1452665  25.7873936  42.8175468
  14.6297178  27.6442108  44.9931793  14.6080036  28.1487827  45.9591179
  15.1307535  26.6947556  45.1818504  15.1520586  28.2483540  44.2513733
  10.8690538  29.7924271  45.8533592  11.2765789  30.6662502  46.5627937
   9.6858635  29.8728905  45.2076836   9.4946070  29.0900612  44.5988312
   8.8631582  31.0222569  45.1891632   9.3905191  31.8203640  44.6666451
   7.6041203  30.6453972  44.3673096   7.2050757  29.6656055  44.6297417
   6.8819003  31.4586430  44.4389420   7.8006177  30.4648285  42.8771248
   8.7978086  30.0718002  42.6790161   6.9947562  29.7517815  42.7031937
   7.6083541  31.7503681  41.9545135   8.3206520  32.7500381  42.0471764
   6.6723943  31.6924362  41.1199036   8.4592161  31.5027695  46.5885925
   8.6031361  32.6794624  46.9183502   8.0253887  30.5492821  47.4471893
   8.1223860  29.5912933  47.1423187   7.6878786  30.8152237  48.8498917
   6.9888206  31.6478882  48.9279022   6.9561610  29.6358185  49.4408646
   6.1316519  29.4231567  48.7603760   7.6122761  28.7654171  49.4449310
   6.6111717  29.9714966  50.8310699   6.3649673  29.0515938  51.3614120
   7.4088101  30.4174976  51.4251709   5.3481026  30.8286190  50.8631248
   5.6147585  31.8761005  50.7224922   4.7105947  30.4847698  50.0485916
   4.6772499  30.6109562  52.1528511   4.4274330  29.5528297  52.2307053
   5.3588557  30.7653522  52.9893150   3.4692025  31.4283524  52.3242149
   3.6592555  32.4190025  52.2732849   2.8798194  31.2980347  51.5144310
   3.0825028  31.3400574  53.2530670   8.9834042  31.1584816  49.6418991
   9.0054121  32.2208939  50.2213173  10.1294260  30.4442978  49.4815292
  10.1241970  29.6567421  48.8492088  11.4050131  30.8332539  50.1343422
  11.3233814  30.7623005  51.2189636  12.4880066  29.8924389  49.5427666
  12.2066183  29.7658901  48.4973450  13.9848404  30.4092503  49.4933891
  14.0637140  31.4450474  49.1632347  14.4560013  30.2764797  50.4672852
  14.5392189  29.8392048  48.7478638  12.3733339  28.5143890  50.1866913
  11.3212433  28.2441101  50.2769928  12.7334318  27.7548313  49.4927826
  13.0682974  28.3723259  51.4898491  14.1299992  28.3416939  51.2450066
  12.9714813  29.1863899  52.2081985  12.6439362  27.4932461  51.9748688
  11.8035488  32.3153000  49.8798599  12.1155605  33.0274391  50.8788719
  11.6719952  32.8867531  48.6929665  11.2915945  32.2407379  48.0161629
  12.0047731  34.2335968  48.1778603  12.9577484  34.4763031  48.6479988
  12.1995983  33.9435387  46.6614647  11.3002567  33.4355774  46.3132286
  12.2875776  35.2776756  45.8906021  13.1881275  35.7547722  46.2772369
  12.3620453  35.1439285  44.8114052  11.4563513  35.8983421  46.2251892
  13.4081783  33.0654564  46.4271927  14.3344812  33.6341896  46.5084496
  13.3653316  32.2919121  47.1939430  13.4601564  32.4416771  45.0746040
  14.4075747  31.9034634  45.1032295  12.6032181  31.7734928  44.9892540
  13.5875282  33.2343636  44.3373718  10.9359188  35.2341003  48.6016922
  11.3274584  36.3026466  49.0853500   9.6312304  34.8826904  48.5448456
   9.4164734  34.0803909  47.9701309   8.4807119  35.7511063  48.9396629
   8.6086159  36.7422409  48.5044594   7.1822524  35.1680489  48.4085732
   7.2742224  35.1099281  47.3240166   7.0666347  34.1505852  48.7820702
   6.0097570  36.0687675  48.7072487   5.0872302  35.7137756  48.2478752
   5.8094106  35.9805908  49.7750435   6.1722078  37.5244942  48.3113670
   5.9904232  38.3726006  49.2117310   6.5561309  37.8004684  47.1331635
   8.5087013  35.9099922  50.4431152   8.4966183  37.0131454  50.9392433
   8.6468019  34.8249969  51.2357330   8.8821020  33.9548111  50.7802010
   8.6320744  34.8798409  52.7538185   7.6729794  35.1713295  53.1819191
   8.9935102  33.4571648  53.1845322   8.2504234  32.7452202  52.8252907
  10.0081043  33.2563324  52.8404922   9.0160332  33.3091087  54.7378769
   9.6455383  32.4487953  54.9652214   9.5647125  34.1725273  55.1141167
   7.6193624  33.2037430  55.4276085   6.5421696  33.6012497  54.9415016
   7.7565103  32.6679230  56.5425720   9.6664667  35.8882141  53.2596931
   9.4931631  36.6501465  54.1943550  10.7973528  36.0320702  52.5155182
  10.8718033  35.5806046  51.6151085  11.9056711  36.9477882  52.8727570
  11.8250065  37.3154373  53.8957100  13.1283331  36.1840439  52.6550827
  13.0621319  35.5888748  51.7443199  13.9436274  36.9009972  52.5582352
  13.4106760  35.1692619  53.7713814  13.6556711  35.4420967  54.9794884
  13.2288294  33.9446640  53.5129471  13.3992100  33.2416229  54.2177887
  12.7902260  33.6721458  52.6449242  11.9295750  38.2835999  52.0706215
  12.8392286  39.0813675  52.1672554  10.9612856  38.4333153  51.1803970
  10.1664295  37.8185692  51.2823448  10.9052954  39.5075340  50.1727257
  10.1200724  39.1779366  49.4923668  10.5250683  40.8054161  50.8572235
  11.3738728  41.1769257  51.4313431  10.4205828  41.5102005  50.0323219
   9.3554420  40.7660713  51.7269440   8.0881033  40.3889618  51.3354645
   7.8169537  39.9273720  50.4790115   7.2309742  40.5180702  52.3916779
   6.2065392  40.1885986  52.4832573   7.9215794  40.9103966  53.3796158
   7.5713167  41.1807594  54.2875366   9.2738705  41.1034241  53.0090294
  10.0158787  41.5051079  53.6831741  12.2067127  39.6978340  49.2642670
  12.5787764  40.8270721  48.8703880  12.9201422  38.6227608  49.1060753
  12.4923153  37.7641602  49.4220924  14.2339087  38.5372887  48.4667511
  14.9218397  39.1988983  48.9931755  14.6841440  37.0389137  48.5896416
  13.9705305  36.3637123  48.1174469  16.0907688  36.7957382  48.0309181
  16.7815342  37.5096169  48.4796028  16.3887043  35.7730560  48.2621307
  16.1664600  36.8105049  46.9436493  14.7435808  36.8747864  49.9244843
  15.1722698  37.6250000  50.3428268  14.1346607  38.9387398  46.9991074
  13.2029314  38.6560898  46.2821732  15.0979042  39.6039162  46.4806709
  15.7975073  39.8516121  47.1657295  15.4017591  39.9244499  45.0593224
  14.7067776  39.3431015  44.4533997  15.0769224  41.4839096  44.8967056
  15.0069637  41.7341042  43.8381157  14.1489305  41.6532898  45.4428215
  16.0926456  42.4164314  45.5361023  16.0454216  42.4168015  46.6250763
  17.0970860  42.0667229  45.2975464  15.8676987  43.8848114  44.9626350
  15.9518595  43.8151054  43.8781242  14.7946892  43.9497414  45.1430092
  16.8630161  44.8237419  45.5161057  17.8584824  44.5364265  45.1775818
  16.6581478  45.8078156  45.0945282  16.7792244  44.9071045  46.9862328
  17.0454082  43.9782524  47.2803078  17.4867764  45.5318756  47.3455887
  15.8720350  45.1750221  47.3402519  16.8078461  39.4965973  44.6518326
  17.6955757  39.4646873  45.4526100  16.9804592  39.1068687  43.3642159
  16.0624695  39.2306404  42.2815895  15.6491699  40.2217979  42.0947914
  15.1674728  38.6484947  42.5010986  16.7223740  38.7637024  40.9632607
  17.1214752  39.6802368  40.5287666  15.9819851  38.2448883  40.3543625
  17.8981762  37.9511070  41.4468117  18.8417740  37.9735298  40.9016342
  17.6126442  36.9014091  41.5153999  18.2056961  38.4410667  42.8958435
  18.3879108  37.6250839  43.5951881  19.3447990  39.4101753  42.8933296
  20.4622421  38.9346390  43.0669250  19.1287270  40.7479782  42.8647766
  18.1524296  41.0032616  42.8225670  20.1666622  41.7829323  42.7840347
  20.7909412  41.5844765  41.9128342  19.4805927  43.0833473  42.6419945
  18.8089409  43.0409584  41.7845612  18.9807186  43.2840157  43.5895996
  20.5538120  44.1173439  42.1561623  21.1612587  44.4944839  42.9788857
  21.1808548  43.6635056  41.3887329  19.8938313  45.3100243  41.5015297
  19.1085682  46.1051788  42.1530952  20.0660496  45.4894981  40.3027344
  21.0519333  41.7919998  44.0403900  22.1782227  42.2336807  44.0982437
  20.5642090  41.2811356  45.1765518  19.5791607  41.0639305  45.1255226
  21.2945862  41.0969734  46.4896774  22.1876945  41.7195091  46.5436096
  20.2518730  41.3899841  47.6228256  19.3826427  40.7799454  47.3770752
  20.7218685  41.0327454  48.5391197  19.7849941  42.8759155  47.7919312
  20.5918236  43.7986679  47.5450211  18.6358700  43.1929855  48.1400146
  21.8595886  39.6915817  46.7892685  22.4100876  39.4917412  47.8999901
  21.8042698  38.7378540  45.8354874  21.2792416  38.8419762  44.9789772
  22.1163521  37.3029633  46.1212425  21.9777584  37.0558510  47.1737785
  21.0680218  36.3143616  45.4465218  21.2118206  36.5481300  44.3916397
  21.3012600  34.8260002  45.6451988  22.2686138  34.5878830  45.2029037
  21.3300362  34.5496597  46.6991959  20.4525719  34.3514099  45.1526604
  19.6388340  36.5907097  45.8930511  19.3118134  36.0811958  46.7994461
  19.4698563  37.6668510  45.9314308  19.0815525  36.1151505  45.0859680
  23.5553761  37.0119667  45.6801224  23.9410038  37.2859077  44.5492363
  24.3328152  36.4614410  46.5961494  23.9312248  36.3596115  47.5172691
  25.6592503  35.8872910  46.4137917  26.2443104  36.7374992  46.0631409
  26.2336140  35.7049408  47.8291740  25.6550961  34.9746666  48.3949623
  27.6772385  35.2765236  47.8235283  28.2377491  35.9285545  47.1536140
  28.0782528  35.3129158  48.8364258  27.8363762  34.2883148  47.3919983
  26.1605186  36.9956055  48.6548080  26.6480522  36.8103600  49.6119385
  26.5211716  37.9327164  48.2307243  25.1041546  37.0818825  48.9092751
  25.7820606  34.5556297  45.6000328  26.5202351  34.5021019  44.6423721
  25.0164585  33.5106773  46.0422478  24.6289444  33.7237740  46.9502792
  25.0155354  32.1116676  45.5726128  24.9622192  32.0771751  44.4844627
  26.2894211  31.3904438  46.1097870  26.3672638  30.3899517  45.6842804
  27.1509418  32.0120201  45.8657951  26.2917557  31.2933254  47.6813545
  26.8984795  32.0656929  48.1540451  25.2852993  31.4261246  48.0782280
  26.8246193  29.9267426  48.1828384  27.3519135  29.1036911  47.4917755
  26.7347565  29.7310886  49.4610138  27.0853901  28.8509922  49.8111343
  26.2941055  30.4684467  49.9922676  23.7142487  31.3108826  45.9182816
  23.0478992  31.5588894  46.8856239  23.5520096  30.1854725  45.3518028
  24.1353645  30.0763950  44.5345497  22.4987679  29.2081318  45.6572723
  22.0903549  29.4549122  46.6372719  21.2254944  29.3044472  44.7551117
  20.8749065  30.3356895  44.7966728  21.5314980  29.1364441  43.7225227
  20.0836239  28.2725983  45.0242310  19.5319862  28.1516972  44.0919342
  20.5342789  27.2895222  45.1605453  19.0204010  28.7052822  46.4255257
  17.5126553  29.3683128  45.5897865  17.7050018  30.2673264  45.0042191
  17.2248497  28.6997128  44.7784653  16.7411251  29.5830784  46.3291893
  23.0325947  27.7608891  45.7409821  23.5112114  27.2353001  44.7193336
  22.6617756  26.9839649  46.7285919  22.2507744  27.5215645  47.4783669
  23.1046848  25.5594044  46.9121361  23.5136433  25.2540874  45.9489975
  24.0618973  25.3913708  48.1605873  23.3975143  25.5836639  49.0030365
  24.2258797  24.3146954  48.2051277  25.3348770  26.1995029  48.4165459
  25.0488548  27.2481327  48.3348923  25.8817005  25.8468151  49.8151703
  26.3674927  24.8744316  49.7341118  26.6075764  26.5458717  50.2305336
  25.0213375  25.8116932  50.4834900  26.3742638  25.8945675  47.3026390
  26.0453243  26.3758545  46.3816299  27.3036156  26.3974247  47.5701103
  26.5236645  24.8316574  47.1129074  21.8353863  24.6613274  47.1996498
  21.0178814  25.0117569  48.0760460  21.7196693  23.4807453  46.5002480
  22.4719162  23.3060207  45.8493271  20.5152569  22.6450729  46.4444275
  19.8303642  22.9536495  47.2342415  19.7452965  22.8351688  45.1159821
  20.4608326  22.6856232  44.3074341  18.9126453  22.1454582  44.9778099
  19.1021137  24.2072563  44.8625984  19.8643818  24.9862709  44.8490906
  18.4609070  24.4323196  43.5062790  19.1977386  24.2288990  42.7292366
  17.6312637  23.7577152  43.2948494  17.9599953  25.4004040  43.5039253
  18.0909119  24.6561813  45.8873825  17.2370434  23.9797497  45.9255257
  18.5268154  24.6163197  46.8856316  17.7429924  25.6856899  45.8027954
  20.8581944  21.1063347  46.7421532  21.6739063  20.5995998  45.9824562
  20.3680496  20.5237026  47.7770233  19.6722507  21.0779762  48.2552986
  20.5409260  19.1217117  48.1968460  21.5208817  18.7890091  47.8546524
  20.4529629  18.8843555  49.7363396  21.1117268  19.5602264  50.2816162
  19.4330139  19.1191673  50.0407562  20.8458290  17.5152168  49.9211349
  20.0831413  16.9510612  49.7740402  19.5330009  18.2225285  47.5408630
  18.3488007  18.5347118  47.7081375  19.8667412  17.0322056  46.9844398
  20.8426456  16.8248577  46.8272171  18.9588451  15.9672852  46.5355492
  17.9437981  16.2649803  46.7985191  19.0456448  15.8706398  45.0452080
  18.4018879  15.0775251  44.6648865  18.7669334  16.7834587  44.5187302
  20.0335102  15.5421810  44.7221985  19.3054657  14.6063995  47.1891289
  20.4751053  14.3222580  47.3960190  18.4254551  13.7494726  47.5290642
  17.4437351  13.8757935  47.3281441  18.6253548  12.3691931  48.1969223
  19.3538704  12.5969095  48.9750671  17.3638592  11.7920408  48.8283501
  17.4871044  10.7591476  49.1539917  16.9567223  12.5306349  50.0332108
  15.9491434  12.2604370  50.3492470  17.6341553  12.2665472  50.8452721
  17.1381035  13.5763855  49.7850151  16.2678413  11.9796429  47.9418182
  16.0518894  11.1151667  47.5845413  19.1606159  11.3152447  47.1774788
  19.0504208  11.5380011  45.9407921  19.7864208  10.1900177  47.6090469
  20.1178074   9.8863029  48.9939499  19.2796383   9.3691616  49.4610023
  20.2306385  10.7780218  49.6105576  21.3487053   8.9731674  49.0245438
  21.4269104   8.2346563  49.8224068  22.2894650   9.5236311  49.0162277
  21.2419052   8.2110271  47.7034035  20.7203503   7.3243670  48.0638428
  22.1716862   7.9457455  47.2001839  20.4473057   9.1588182  46.7897606
  21.1925755   9.6090231  46.1340256  19.5179939   8.3624134  45.8784943
  20.0152588   7.4401913  45.1347771  18.1812153   8.5196009  45.8892403
  17.8500214   9.2771406  46.4693642  17.1972427   7.9037242  45.0164413
  17.5895958   6.9543796  44.6518784  15.8322001   7.5393853  45.8244972
  15.0189009   7.4824505  45.1010323  16.1081543   6.6086059  46.3200836
  15.4510221   8.4272289  46.9744949  15.9184799   9.6072206  47.0471992
  14.4660883   8.1636791  47.7243576  16.7331562   8.8307514  43.9143829
  16.1063614   8.3604450  42.9315071  16.9831791  10.1580133  44.0393639
  17.5354290  10.5046406  44.8107071  16.6003704  11.1396847  42.9477310
  15.6189117  10.8264723  42.5917244  16.4022388  12.6124573  43.5099106
  17.3473549  12.9476728  43.9370956  16.1359501  13.3151808  42.7203751
  15.3324299  12.6466084  44.6812210  15.6158342  11.9987869  45.5107460
  15.1152859  14.1075621  45.2476120  15.8079805  14.3007364  46.0667381
  15.2689295  14.7729788  44.3980751  14.1021452  14.2837057  45.6090240
  14.0011177  12.1332321  44.1455154  13.7875490  12.3568001  43.1002884
  14.0645161  11.0459862  44.1899948  13.1695557  12.4674597  44.7659111
  17.6993828  11.1389666  41.8396873  18.8360252  11.5547295  42.1668854
  17.2183952  11.0174208  40.5740280  16.2115021  10.9673700  40.5127068
  18.0651283  10.9581833  39.3709373  19.0444069  11.4002562  39.5544662
  18.3428249   9.4451389  38.9807625  17.3915195   9.0032339  38.6843796
  19.1282520   9.3831692  38.2275238  18.7827511   8.6347466  40.1557961
  19.8525295   8.9072113  40.9343987  20.4804668   9.6844606  40.7871628
  19.8300705   8.0512047  41.9795456  20.5324516   8.0653982  42.7998238
  18.7524033   7.2278361  41.8619080  18.4260063   6.5618167  42.5474586
  18.0975685   7.5685954  40.7283363  17.1472054   7.1961436  40.3755035
  17.4610386  11.4895496  38.0893440  18.1428432  11.4978371  37.0314980
  16.2436256  12.0437441  38.1021652  15.7376003  11.7346525  38.9197845
  15.5380077  12.6449919  37.0419769  15.4767017  11.8375435  36.3123398
  14.0983458  12.9291477  37.4444504  14.0426750  13.6036711  38.2988625
  13.6729307  13.4205503  36.5694351  13.5639668  12.0336447  37.7616463
  16.2621841  13.8647804  36.4089241  16.2005806  14.0446033  35.2048874
  16.8404961  14.7298994  37.2931557  16.9045582  14.5262499  38.2803345
  17.0085258  16.1022396  36.9099770  17.5203457  16.1531048  35.9489594
  15.6508579  16.8792801  36.8403969  14.8927317  16.2771378  36.3396263
  15.0716791  17.1352158  38.2317085  15.1497021  16.2523060  38.8661308
  15.6631756  17.9542274  38.6409187  14.0080385  17.3571777  38.1451073
  15.8244400  18.2341919  36.0770760  14.9948111  18.9267292  36.2192116
  16.7674885  18.7298412  36.3074913  15.8690281  17.8889542  35.0441589
  17.9877243  16.7977161  37.8650856  17.9603443  16.4431343  39.0103722
  18.8400192  17.7203445  37.4531479  18.8797016  18.0250530  36.4910278
  19.5660915  18.6086006  38.4170685  19.8281498  17.9740353  39.2636833
  20.8808231  19.1286469  37.7409935  20.7915974  19.6742458  36.8015976
  21.3088493  19.8739643  38.4113693  22.0286198  18.0329113  37.5895996
  22.6415348  17.5235386  38.7636681  22.2864933  17.9764385  39.6775780
  23.7037430  16.5719280  38.6752510  24.1661282  16.2584953  39.5995674
  24.1492882  16.2282925  37.4003143  25.0300026  15.6053867  37.3480530
  23.6453705  16.8838120  36.2297249  24.1752548  16.7854900  35.2938004
  22.5188255  17.6813622  36.3264961  22.0544682  18.1023941  35.4470062
  18.6661167  19.8290920  38.7901878  18.3736343  20.7407513  37.9639549
  18.2735119  19.9816856  40.0936394  18.6594086  19.1618404  41.2874031
  19.7455578  19.1945934  41.3728676  18.2066135  18.1725864  41.2206841
  18.0364132  19.8976707  42.4209862  18.7012978  20.6357689  42.8695831
  17.7823658  19.1833477  43.2041245  16.7792606  20.5977974  41.7830315
  16.4687004  21.4311790  42.4132118  15.9347067  19.9087582  41.7904205
  17.1939583  20.8859215  40.3872490  16.3452721  20.8186417  39.7065811
  17.4722290  22.3913002  40.2917366  16.4784832  23.1319714  40.4031982
  18.7003174  22.8199215  40.0430870  19.4072762  22.0994911  40.0790138
  19.0712242  24.1771088  39.6350174  18.9281540  24.9020767  40.4363022
  20.5509720  24.2862377  39.2538834  20.6809616  23.5509892  38.4597740
  20.6814232  25.3132877  38.9129219  21.0975933  24.0263710  40.1604004
  18.2267151  24.6326313  38.4209633  18.1701260  25.8549919  38.2868271
  17.6287670  23.7926025  37.5248566  17.7564335  22.8309574  37.8059959
  16.6508369  24.1115074  36.4809036  17.0962143  24.7851219  35.7487984
  16.2272415  22.8116779  35.7281342  15.9333067  21.9966049  36.3894653
  15.3810520  23.1828709  35.1499634  17.3813992  22.2948093  34.8206558
  17.7792244  23.0168800  34.1075974  18.1076698  21.8839245  35.5219498
  16.8403435  21.1199207  33.9723358  16.3793373  20.3594379  34.6026077
  16.0297642  21.5052357  33.3537941  17.8107319  20.4441128  33.0081139
  18.3394051  21.2591534  32.5138321  18.5789890  19.9733543  33.6215210
  17.1886311  19.5157700  32.0162010  16.4629288  18.9228611  32.3929138
  16.8373432  20.0420303  31.2289581  17.9034061  18.9473991  31.5847473
  15.3696556  24.7809582  36.9934731  14.7517481  25.5609188  36.2945824
  14.9793530  24.5261745  38.2527122  15.6333952  24.0111027  38.8245773
  13.9006891  25.2110081  39.0117302  13.0358353  25.2539768  38.3497009
  13.5017958  24.3226967  40.2692642  14.3220234  24.2827282  40.9860077
  12.5777512  24.6349659  40.7558136  13.2621746  23.2871819  40.0276222
  14.3154879  26.6033001  39.5185547  13.4384327  27.3477898  39.9366226
  15.6018696  27.1157894  39.3548088  16.2746067  26.4678860  38.9704323
  16.0339985  28.4349861  39.7227211  15.3132925  29.1084080  40.1865997
  17.3607750  28.3680305  40.6557884  18.1739693  28.0921822  39.9844284
  17.7457962  29.6959667  41.2004013  17.6225471  30.4364204  40.4100609
  17.2449684  29.9683743  42.1294136  18.8118153  29.5855484  41.3991852
  17.1783810  27.4019222  41.8250542  17.0386868  26.4061584  41.4042969
  18.0794697  27.4310989  42.4376602  16.3478699  27.7924709  42.4131203
  16.3743649  29.2260704  38.4466743  15.9173775  30.3456554  38.3235359
  17.0786591  28.5716686  37.4616852  17.4167747  27.6276455  37.5825081
  17.5529156  29.3181953  36.2626762  18.1454010  30.1850777  36.5552101
  18.5144749  28.4817352  35.3673096  17.9283504  27.5876522  35.1547623
  18.7122841  29.0385799  34.4513969  19.8854713  28.3829308  36.0943565
  20.2732162  29.3977509  36.1832352  19.7393322  27.7999668  37.0036926
  20.8425407  27.5438461  35.2395973  20.3621426  26.6228256  34.9093895
  21.0047207  28.0434628  34.2845154  22.0733509  27.4377251  35.9916878
  22.5502205  28.2694092  36.3094864  22.6478519  26.2614555  36.2997627
  22.0563507  25.0487690  36.1624908  21.1468487  25.0998917  35.7262573
  22.5509186  24.1811790  36.3134537  23.8352432  26.2574768  36.8561440
  24.3368568  25.3866749  36.9570961  24.3725033  27.0867863  37.0651855
  16.4255962  29.8480339  35.4036827  16.7314377  30.6810722  34.6046600
  15.2493420  29.2384148  35.5195999  15.1662483  28.4577293  36.1549950
  13.9420071  29.6872845  34.9277725  14.0370951  29.9856434  33.8837204
  12.9927406  28.4496555  34.9693451  13.5189295  27.5739365  34.5894241
  12.7080317  28.1676674  35.9830132  11.7621193  28.5456429  34.0543633
  11.1222324  27.6649113  34.1087227  11.1196346  29.3675518  34.3702469
  11.9975443  28.7229080  32.5772972  13.1704874  28.5704746  32.1181717
  11.0187540  28.7392502  31.7956486  13.1977367  30.8432503  35.5740547
  12.4463005  31.4394379  34.8686714  13.4387016  31.2502060  36.8431129
  14.0356150  30.6173363  37.3562126  12.9596014  32.5144653  37.5627594
  11.8732805  32.5857468  37.5086746  13.3187323  32.3709908  39.0892906
  14.3201323  31.9471016  39.1642570  13.1742506  33.3082542  39.6266518
  12.3565512  31.3266792  39.6520500  12.2851677  30.4418755  39.0194931
  12.7412529  30.8196011  41.0662613  12.9215641  31.5711117  41.8349075
  11.8934717  30.2575417  41.4579964  13.5920572  30.1536350  40.9222984
  10.8913717  31.9913883  39.6810875  10.4468889  31.9737301  38.6859856
  10.1766996  31.3408985  40.1852760  10.7780170  32.9892349  40.1048241
  13.5467386  33.8376999  36.9040565  14.7546024  33.8243294  36.6265373
  12.8328142  34.9407349  36.6991081  11.8357363  34.9257088  36.8594475
  13.3830452  36.1353531  36.0171585  13.8665247  35.7027969  35.1412315
  12.2346277  37.0622597  35.5586777  12.5475903  37.6913910  34.7253990
  11.4048777  36.4536819  35.1991653  11.8641014  37.8435783  36.6600075
  11.3979492  37.2423058  37.2454796  14.5036554  36.9405136  36.8419838
  14.2785530  37.2429085  37.9817505  15.6669025  37.1396980  36.2625313
  15.6865892  36.8363113  35.2993698  16.8617668  37.6750412  36.8412285
  17.4747906  38.1774559  36.0929756  16.6729450  38.4140244  37.6199112
  17.7758522  36.4823837  37.3600731  19.0264950  36.6440430  37.3794403
  17.2835655  35.2914696  37.6871147  16.3109875  35.1390038  37.4614067
  17.9922447  34.3101807  38.4219551  18.6088943  34.8125114  39.1672783
  17.1141739  33.3752937  39.1916504  16.4290962  32.9693260  38.4473648
  17.7066212  32.5771446  39.6389351  16.3018246  33.9843712  40.3723297
  15.2028446  34.7878685  40.2389565  14.8808680  35.0679970  39.2468567
  14.8038960  35.2568169  41.4925385  13.9599171  35.8016548  41.5971870
  15.7276611  34.8258018  42.4594307  15.7382135  35.0546722  43.8671646
  14.9267435  35.6820335  44.2053032  16.7029915  34.5596886  44.6697617
  16.7410870  34.8765488  45.7015305  17.6215763  33.7356949  44.0505753
  18.3556633  33.2337837  44.6634407  17.6473541  33.4975700  42.6575775
  18.4456959  32.9500771  42.1787262  16.6728344  34.0310631  41.7744293
  19.0077991  33.4346962  37.6730499  19.8690510  32.8753738  38.3191185
  19.0638981  33.4176712  36.3188248  18.3116226  33.8478661  35.8000603
  20.2417831  32.9896202  35.5338287  20.2682552  31.9228420  35.7560692
  19.9871750  33.1118736  33.9966202  20.7288437  32.4713173  33.5194206
  18.9563751  32.8465576  33.7617569  20.2892113  34.5911980  33.5619354
  19.6816158  35.3038368  34.1196747  21.3169594  34.9409256  33.6595268
  19.9324036  34.9500809  32.1386032  19.9252586  34.1379089  31.2328854
  19.5655651  36.2021255  31.9000244  19.4483261  36.9779091  32.5360374
  19.2286491  36.2831917  30.9513321  21.5804253  33.6154289  35.9706345
  22.5610161  32.8731842  35.8501472  21.6084461  34.8783684  36.4372177
  20.6958065  35.2538338  36.6521950  22.7902012  35.4604416  37.0022202
  23.5526180  35.1745987  36.2775650  22.8008041  36.9725456  36.8796501
  22.1608829  37.3986588  37.6523285  23.8080463  37.3869705  36.9223213
  22.3745174  37.4462013  35.4097557  23.1237621  37.0228462  34.3070259
  24.0742798  36.5123482  34.3550682  22.6948109  37.3978767  32.9952507
  23.2225990  36.9604073  32.1607132  21.6492672  38.3385696  32.8763809
  21.2491760  38.5903931  31.5721970  20.4489689  39.1180725  31.5190887
  20.9633484  38.8615913  34.0258141  20.1489487  39.5664520  33.9462547
  21.3265209  38.3430557  35.2764168  20.8527565  38.7313995  36.1658745
  23.2489491  35.0159187  38.3856468  24.3918781  35.2948990  38.8186836
  22.4459782  34.2496948  39.1448669  21.5554371  34.0644264  38.7058716
  22.8429108  33.5807953  40.4025421  23.3611221  34.3454475  40.9812126
  21.6222763  33.2712250  41.2778358  20.7989273  32.8932228  40.6717720
  21.7069168  32.3224640  42.4791069  21.0034103  32.4893646  43.2947769
  21.6872272  31.2737808  42.1824989  22.7046661  32.4280663  42.9050751
  21.1496372  34.6424828  41.8253670  21.9678631  34.9065056  42.4953651
  20.9818840  35.4177322  41.0777435  20.2747498  34.4900894  42.4573936
  23.6853161  32.2773666  40.1833267  23.0648327  31.3322601  39.6786537
  24.9676418  32.2078667  40.5995827  25.6830101  33.3083687  41.2200012
  25.0223961  33.8380775  41.9063683  25.8531132  33.9928207  40.3889236
  26.8690186  32.6760674  41.8612595  26.6312504  32.4244843  42.8948326
  27.7199287  33.3486252  41.9695129  27.1821766  31.4247723  41.0227966
  27.7551785  30.6218834  41.4866295  27.6671009  31.7581310  40.1052895
  25.8085403  30.9511204  40.5791817  25.8651047  30.5923920  39.5514603
  25.1409111  29.9465961  41.5267563  24.8567219  30.2400627  42.7262840
  24.7873726  28.8290844  40.9451103  24.9651031  28.6678963  39.9640274
  24.0554504  27.7268124  41.6030998  24.1727238  28.0290012  42.6437912
  22.5571175  27.7469978  41.1859741  22.1322231  28.6694489  41.5817642
  22.4203777  27.7162781  39.5618896  22.8852806  28.5675945  39.0646744
  22.9098797  26.8205585  39.1795616  21.4135151  27.8840694  39.1795616
  21.5959854  26.6444607  41.8059044  21.6387215  26.8808060  42.8691177
  20.5611973  26.8062611  41.5040169  21.9638367  25.6252422  41.6876755
  24.6792984  26.3996143  41.2266159  25.2505836  26.1086674  40.1767616
  24.6651783  25.5073032  42.2306175  24.2569122  25.8514729  43.0879173
  25.0792103  24.0399380  42.1016045  24.8980656  23.7787533  41.0589790
  26.5883503  23.8798237  42.3958969  27.1424236  24.5442734  41.7328682
  27.0428009  24.2740269  43.7755775  26.3398438  23.9811726  44.5554466
  28.1037426  24.0818024  43.9354248  26.8806210  25.3498306  43.8422508
  26.9264641  22.5305939  42.1674194  26.6442127  22.0755348  42.9641953
  24.2178154  23.1449165  42.9531364  23.8708096  23.4739475  44.0822830
  23.8463440  21.9888744  42.5120773  24.0389957  21.7433853  41.5514946
  23.2251072  20.9294434  43.2297630  22.7180920  21.4060593  44.0687370
  22.2186546  20.2012749  42.2979240  22.5772533  19.3736515  41.6859207
  21.5432777  19.7298069  43.0118446  21.1964989  21.3442612  41.3214760
  22.0811310  21.6912918  40.3823853  24.3196239  19.8888264  43.8045883
  25.3504181  19.6693115  43.0916595  23.9704437  19.1538754  44.8638153
  23.0723248  19.4012012  45.2540855  24.6909866  17.9785843  45.4186440
  25.0743332  17.5028343  44.5159760  25.8997898  18.4604797  46.1868973
  26.6012211  17.6311207  46.2777863  26.4966412  19.2354546  45.7059784
  25.5632744  18.9880276  47.6482735  24.9971809  18.2486687  48.2148323
  26.5148640  18.9945793  48.1798134  24.6814499  20.5967026  47.6207657
  25.8905678  21.7876205  47.1656990  25.2543774  22.6393013  46.9248352
  26.5445786  22.0384560  48.0008354  26.5811634  21.4509468  46.3925056
  23.9040623  16.8095207  46.1048355  22.6186523  16.8640404  46.1774368
  24.6498337  15.8247452  46.5780334  25.6242237  15.8435650  46.3128738
  23.9948387  14.6829996  47.2665787  22.9832230  14.5661669  46.8778801
  24.8025188  13.4755774  46.8732414  25.1287518  13.6586132  45.8494415
  25.6680946  13.3116531  47.5151215  23.9469051  12.2028084  46.8643951
  23.2985306  12.1810350  47.7403145  23.3624172  12.1308308  45.9471703
  24.9250984  11.0004578  47.0847816  25.5321293  10.4944267  46.1315079
  24.9381466  10.3799286  48.2683372  25.2884369   9.4539223  48.4681244
  24.5156040  10.8431396  49.0601654  23.9340858  14.8326645  48.7730789
  24.8561840  15.2717667  49.4467239  22.7676163  14.4120436  49.2393837
  22.0101738  14.1719990  48.6158791  22.5548592  14.0249252  50.6233902
  22.7511711  14.8468056  51.3119240  21.0703297  13.5512562  50.7362022
  20.4320641  14.2323256  50.1732979  21.0343399  12.6176872  50.1747246
  20.4272156  13.2224636  52.1108627  19.6383152  12.4717655  52.0640678
  21.2391262  12.9756203  52.7949486  19.8664799  14.5032911  52.7198868
  18.8418694  14.9071741  52.1252632  20.4693851  15.1325798  53.6220894
  23.4624233  12.8639746  51.0839081  23.7265244  11.9670877  50.2610588
  23.7573757  12.7917280  52.3539619  23.4657040  13.5570049  52.9450493
  24.5339146  11.6666346  52.9722290  25.4285774  11.4694309  52.3816452
  25.0609932  12.0755568  54.3497849  25.5756130  13.0114889  54.1323051
  24.1738815  12.2888727  54.9461327  25.9306145  11.0521259  55.1424446
  25.3549480  10.1266432  55.1563034  26.8514023  10.7902040  54.6212502
  26.1987247  11.6001997  56.8092155  27.1532707  10.1254978  57.1551933
  27.9097366  10.0503082  56.3740387  27.6424160  10.2032309  58.1261749
  26.5334778   9.2294436  57.1228867  23.6090126  10.4669714  53.0571480
  22.4022655  10.5615282  53.3079796  24.0684872   9.2773342  52.7470055
  25.0332241   9.2564783  52.4487648  23.3268356   8.0386906  52.8741035
  22.3038578   8.0892229  52.5011940  24.0014858   6.8801727  52.1739426
  24.0090847   7.2535348  51.1499100  25.0311871   6.6823678  52.4717445
  23.1758671   5.5997882  52.2085228  23.7636185   4.5283847  52.0835075
  21.9057045   5.6796427  52.3751411  23.1654892   7.5650315  54.3561668
  23.8287487   6.6489549  54.8884392  22.2791233   8.3046465  55.0898209
  21.9168186   9.1542320  54.6811180  21.8423767   7.9222994  56.4820137
  22.5556870   7.2011757  56.8811150  22.0009918   9.1982965  57.3627243
  21.5275993  10.0344276  56.8480568  21.2118053   9.0732336  58.6774559
  21.2903404   8.1503630  59.2521286  21.3366566   9.9126520  59.3614807
  20.1634846   9.2082539  58.4111938  23.4470825   9.5770502  57.5932999
  23.8299122   9.5045109  56.5753250  23.6206608  10.5589561  58.0335655
  23.8376446   8.7683325  58.2109871  20.4155655   7.3266745  56.5889969
  19.4331646   7.7806401  55.9415665  20.3583012   6.3054118  57.4289780
  21.1835442   5.9764042  57.9094238  19.1672096   5.4881678  57.6930847
  18.7621651   5.2551646  56.7083282  19.4568214   4.1745529  58.3064499
  18.4843979   3.6908817  58.3989487  20.3969555   3.2889693  57.5527573
  19.9399338   2.9862258  56.6106415  21.3139591   3.7752039  57.2199287
  20.6459713   2.3788941  58.0985146  20.0237770   4.2694950  59.6274643
  20.3539848   5.1610861  59.7602348  17.9975700   6.1879954  58.4303474
  18.3085499   6.9520912  59.3698463  16.7635307   5.8784213  58.1016312
  16.6268902   5.2436600  57.3279991  15.5535307   6.3627682  58.6455612
  14.7386637   5.6445189  58.5549507  15.7053089   6.4051952  59.7241096
  15.1023073   7.6971903  58.1359711  14.0075827   8.1261578  58.4578896
  15.9460087   8.4788656  57.3443718  16.9098492   8.2039213  57.2197990
  15.4834967   9.7196407  56.7804222  15.1689901  10.4562435  57.5197487
  16.4168110  10.1451368  56.4116631  14.4359274   9.6398258  55.6831360
  13.9071875   8.5529270  55.3268394  14.0819788  10.7848692  55.1547050
  14.7089472  11.5629702  55.3015938  13.0142326  10.9714365  54.1595001
  12.0991201  10.5251646  54.5487442  12.6496096  12.4720335  54.0353432
  13.5225220  13.0716124  53.7772179  11.9186878  12.6874914  53.2559624
  11.9914827  13.0782642  55.3125801  12.6019192  12.7753649  56.1632957
  11.8931999  14.5828228  55.2376366  11.1548586  14.8515034  54.4821472
  11.7514315  14.8217945  56.2916260  12.9220266  14.8785324  55.0322723
  10.4929752  12.6534557  55.4861183  10.5461588  11.6502914  55.9091263
  10.0919333  13.2829275  56.2804947   9.8452682  12.6959229  54.6104622
  13.5326767  10.5623102  52.7606850  14.4844856  11.1330042  52.2553062
  12.7586403   9.6437483  52.1001282  12.1179476   9.1443510  52.7003059
  12.9442377   9.2878132  50.6270027  14.0258274   9.1769381  50.5496826
  12.0951595   8.0702896  50.2390251  11.0356827   8.3203497  50.2945518
  12.2589636   7.8088045  49.1936111  12.3238230   6.8922968  51.1443329
  12.1443357   7.2141094  52.1701622  11.5812626   6.1234150  50.9309692
  13.7204752   6.2214551  51.1105347  14.4977160   6.9391408  51.3730698
  13.7342100   5.4299889  51.8598633  13.9915342   5.6672568  49.6724930
  13.4862080   4.7149892  49.5114594  13.4870272   6.4370770  49.0885849
  15.4593496   5.4857635  49.2913284  15.9017153   4.6612740  49.6716309
  15.5521078   5.2905464  48.3047218  16.0190067   6.2980790  49.5081863
  12.6109161  10.4716444  49.7198029  11.8411903  11.3430891  50.2073288
  13.1714354  10.5630960  48.5375366  13.7725248   9.8068295  48.2428284
  12.8335161  11.6077585  47.5964127  13.7317581  11.7819386  47.0040169
  11.5881205  11.0816116  46.8374100  10.7606421  11.0749807  47.5468750
  11.4694862  11.8022137  46.0282402  11.7519608   9.6382313  46.1517754
  12.6410990   9.5709867  45.5248680  11.7965755   8.8503265  46.9036598
  10.4104795   9.4688368  45.4203300   9.6045618   9.4799061  46.1541367
  10.3260527  10.3415194  44.7727203  10.2990236   8.0561008  44.7767487
   9.4466467   8.0087528  44.0990219  11.0187244   7.9575987  43.9640808
  10.2130756   6.9113522  45.7137833  11.1548891   6.7022696  46.0127335
   9.6354065   7.1064653  46.5189743   9.9073868   6.0824451  45.2243271
  12.6887465  13.0760908  48.1083450  11.6325550  13.6849127  47.8367462
  13.7808619  13.6846056  48.7840271  14.6103172  13.1110182  48.7283592
  13.8514872  15.0391235  49.4249382  12.8764963  15.5203466  49.5018539
  14.3135586  14.9791641  50.9297638  13.5738621  14.3185806  51.3820648
  15.2756233  14.4864006  51.0702095  14.1349325  16.5014687  51.8738823
  12.9561768  16.9703045  51.4548035  14.8225279  15.9753904  48.6605148
  15.9446669  15.6170607  48.3768120  14.3630409  17.2045269  48.4780197
  13.5001926  17.5139446  48.9021111  15.1536655  18.2906456  47.8425446
  16.1391544  17.9048061  47.5817032  14.4632521  18.8517761  46.4798889
  13.5262384  19.3911209  46.6184959  15.3588743  19.8882332  45.7953949
  16.3433743  19.4490013  45.6343384  14.8569860  20.1473408  44.8631554
  15.3648911  20.7868023  46.4123535  14.3404846  17.6711960  45.4616127
  14.4067955  17.9812527  44.4187508  15.0861750  16.9146233  45.7058372
  12.9992399  17.0506554  45.5968361  12.1887789  17.7634411  45.4445763
  12.8997488  16.1070518  45.0603485  12.8558922  16.7674847  46.6396027
  15.2742081  19.3392048  48.9244308  14.2535229  19.6580925  49.5972557
  16.4391861  20.0389786  49.0131569  17.1869946  19.7325974  48.4073410
  16.6661205  21.0419636  50.0386009  15.7139788  21.3512173  50.4697533
  17.4795036  20.5540810  51.3307571  18.5430470  20.5451584  51.0922241
  17.2484741  21.3285370  52.0621567  17.0368843  19.1543293  51.7769051
  15.9551754  19.0582619  51.8705826  17.2105923  18.3926334  51.0168114
  17.6174927  18.7667656  53.1594505  18.5744419  19.2668915  53.3085289
  16.9355965  19.0957775  53.9435883  17.6418076  17.2659416  53.4783173
  17.9612656  16.6738491  52.7250099  17.1627636  16.6365166  54.5365753
  16.8034344  17.2970104  55.6104317  16.5559845  16.8397293  56.4763184
  17.0929375  18.2631130  55.6646004  17.1168060  15.3093872  54.6438980
  16.6177731  14.9617262  55.4502525  17.3749027  14.7250204  53.8615913
  17.2995319  22.3663139  49.5015717  17.7775345  22.3821220  48.3082123
  17.3945007  23.4448261  50.2816963  16.8677330  23.3358231  51.1365280
  17.7197723  24.7484455  49.8217812  18.2666397  24.8086319  48.8808174
  16.5074482  25.6297665  49.7163124  15.9561501  25.6349297  50.6566010
  16.8382282  27.1840076  49.6205978  17.0311871  27.6632824  50.5803719
  17.6736813  27.3595409  48.9428749  15.9994965  27.8216496  49.3412323
  15.6098661  25.0755405  48.5800171  14.6502132  25.5703392  48.4305420
  16.1867981  25.1494656  47.6581802  15.4086533  24.0160847  48.7386284
  18.6404076  25.4326801  50.8195267  18.5237179  25.2927723  52.0114403
  19.6349144  26.1397839  50.3192825  19.9991302  25.9852505  49.3899994
  20.5528603  26.9721260  51.1455612  20.0183907  27.4321060  51.9767418
  21.6725807  26.0021992  51.6490974  21.1527004  25.3199692  52.3216972
  21.9128208  25.3285465  50.8265533  22.8974247  26.6129684  52.2590828
  23.6792717  25.8536091  52.2729111  23.2984390  27.4315872  51.6614609
  22.8867760  27.2995453  53.9476166  22.3421001  29.0067673  53.7720909
  22.1307850  29.3265972  54.7924614  23.1219101  29.6143188  53.3128815
  21.4616394  29.0913200  53.1351089  21.0354080  28.1559658  50.3468590
  21.9501286  28.0657768  49.5045319  20.3080978  29.2567825  50.4686012
  19.4755898  29.2603550  51.0404549  20.5730572  30.4869366  49.6348038
  20.9813461  30.2643070  48.6489868  19.1553001  31.0309601  49.3382072
  18.4434204  30.2581177  49.0483055  18.7013283  31.4958744  50.2133446
  19.1197472  32.1931496  48.4110298  19.6120281  33.0560226  48.8595886
  19.7612896  31.9165001  47.5743752  17.4485493  32.5674553  47.7141838
  16.4927692  33.0760841  49.2012520  17.2074184  33.8072586  49.5790863
  15.6136665  33.6398277  48.8890419  16.2449265  32.2048225  49.8075333
  21.3517056  31.5361004  50.4489403  21.1497726  31.6121826  51.6751404
  22.3137684  32.2799454  49.8352013  22.3527164  32.0528526  48.8518333
  23.0674152  33.3749428  50.5705681  22.7948914  33.2859154  51.6221886
  24.5738239  33.0049248  50.4568977  24.8626423  33.0714493  49.4079628
  25.4702702  33.9725952  51.2030830  26.5192070  33.6857452  51.1286278
  25.1892643  34.9827614  50.9052582  25.2397060  33.8230286  52.2578659
  24.9052639  31.7396488  50.8457756  24.2088165  31.4545383  51.4418259
  22.7999229  34.7913361  49.9638901  22.9611492  35.0159760  48.7975197
  22.4335041  35.7809219  50.8200226  22.6116219  35.5449219  51.7857742
  21.8621140  37.1093216  50.4888954  22.1270885  37.1885490  49.4345627
  20.2468529  37.0094681  50.6247368  19.8557301  36.0731163  50.2267799
  19.7424679  36.9407463  52.0902405  18.7358723  36.5313187  52.1753197
  20.4055958  36.2503853  52.6115532  19.9794502  37.8353958  52.6660347
  19.5359974  38.1839676  49.9117622  19.9698009  38.3475151  48.9252701
  18.4583378  38.0243454  49.8761253  19.8503304  39.0207100  50.5355949
  22.3943443  38.2410049  51.3293266  22.6659889  38.0815392  52.5333748
  22.5741978  39.4413338  50.7967567  22.4564705  39.5730057  49.8023186
  22.7928867  40.6798782  51.5725212  23.4549084  40.4541817  52.4085197
  23.7823315  41.6613426  50.8097916  24.3217678  42.2677803  51.5373497
  24.6183014  41.1129532  50.3755951  23.0845413  42.4314194  49.5953712
  23.3562260  41.9557724  48.6530113  21.9992275  42.3693161  49.6749763
  23.5319118  43.8551025  49.4076195  24.5395355  44.3873634  49.8793678
  22.6748600  44.7146149  48.9536972  22.8077717  45.6706734  49.2510147
  21.8491650  44.4379082  48.4420700  21.5952015  41.2901993  52.1888924
  20.6288776  41.2840080  51.4536324  21.6532764  41.7240639  53.4951820
  22.4281387  41.4552689  54.0846214  20.4337616  42.2639809  54.1442719
  19.8940907  42.9732132  53.5167084  19.4307709  41.1066170  54.4091454
  19.2635384  40.5472260  53.4887009  19.8764896  39.9337349  55.2780685
  19.8742638  40.2545204  56.3197975  19.1231403  39.1466980  55.2443237
  20.8337269  39.5976181  54.8795433  18.1457500  41.4993134  54.9049149
  17.8175087  42.0530319  54.1926994  20.7253227  42.9792938  55.4464951
  21.7385464  42.7116661  56.0987549  19.8494358  43.9096336  55.7911682
  19.1406670  44.0977898  55.0966568  19.7593784  44.5156975  57.1713066
  20.6906433  44.8557701  57.6242905  18.9584656  45.8332748  56.9790764
  17.9275494  45.5988235  56.7138519  18.9741516  46.2731934  57.9762344
  19.6056747  46.8125916  56.0886002  18.8491058  47.6807518  55.5424385
  20.8896523  46.9211311  56.1094398  19.1006432  43.5803604  58.2106285
  19.5394897  43.6431427  59.3774147  18.1807175  42.6925392  57.8408203
  18.0887833  42.5579262  56.8440628  17.4993210  41.7232323  58.7553940
  16.9402409  42.2967949  59.4946938  16.4658031  40.8346939  57.9803467
  16.9695625  40.1866264  57.2631683  15.6973486  39.8768616  58.8767662
  15.4934368  40.4441032  59.7849274  14.7719564  39.5624847  58.3941498
  16.3023262  38.9821434  59.0236969  15.3943834  41.5865898  57.1215973
  15.9493637  42.1882896  56.4018326  14.7659988  40.8129539  56.6803207
  14.9015703  42.3728638  57.6934433  18.5001774  40.7968216  59.4073601
  19.1909561  40.1692581  58.6449852  18.6222916  40.6231194  60.7748756
  18.0491982  41.4790421  61.7959709  16.9761086  41.2990303  61.8605690
  18.3374443  42.5125313  61.6038284  18.5793400  41.1188126  63.1516113
  18.2063465  40.1443291  63.4668198  18.6616039  41.8615265  63.9451561
  19.9494553  40.6228409  62.7085686  20.3984108  39.9574432  63.4459915
  20.6272545  41.4654846  62.5720177  19.6931381  39.8758430  61.3768578
  20.6025410  39.9698143  60.7833443  19.3845844  38.3741798  61.6111221
  18.2450676  37.9465446  61.4113770  20.3467636  37.5920105  62.0037003
  21.2461319  37.9981651  62.2188225  20.3028908  36.1281433  61.7902756
  20.2853775  35.8807678  60.7288551  21.6709156  35.5760536  62.3120384
  22.4769173  36.0089149  61.7195091  21.7170029  35.9677277  63.3281975
  21.8416824  34.0908737  62.3230515  20.9355030  33.6109581  62.6926727
  22.0443077  33.7384682  61.3116913  23.0181751  33.6495552  63.2354164
  22.9555187  33.5893173  64.4770050  24.1923962  33.2959480  62.6895599
  25.0532322  33.0249481  63.1430168  24.2501202  33.1851730  61.6873169
  19.1010971  35.5503311  62.4981995  18.5436230  34.5035744  62.0158234
  18.6792507  36.0935669  63.6178322  19.1799889  36.8700676  64.0257721
  17.6017017  35.4968834  64.3019867  17.6904163  34.4108772  64.2734070
  17.8119125  35.8658829  65.7822647  17.2512627  35.3044090  66.5296097
  18.8523102  35.6924171  66.0571899  17.4503098  37.2935524  66.1559753
  18.3603001  38.1029205  66.3957443  16.2100887  37.4826279  66.3594742
  16.1724453  35.7816048  63.8219299  15.2503967  35.0028038  64.1468201
  16.0904541  36.7822113  62.9335785  16.8971882  37.3736572  62.7940331
  14.8340769  37.2957077  62.3369179  13.9650040  36.9220543  62.8783951
  14.9442301  38.8327599  62.3058205  15.8716106  39.0223999  61.7653580
  14.0591955  39.2769547  61.8502960  15.0168972  39.4881325  63.6729965
  15.7372513  38.9505844  64.2896271  15.2623100  40.5501366  63.6686974
  13.8075047  39.4430466  64.3832092  12.8947001  40.1134186  64.0227127
  13.6320982  38.6516418  65.4263458  14.4999695  38.2789078  65.7840729
  12.7409296  38.6628189  65.9015198  14.4768124  36.8756027  60.9389648
  13.3031559  36.8176422  60.6615143  15.5105581  36.3647385  60.1865082
  16.4634819  36.5324783  60.4761581  15.3430204  35.6156578  58.8990250
  14.9535475  36.3485870  58.1924667  16.6868820  34.9193230  58.4806366
  16.8407631  34.1690292  59.2561874  16.5437984  34.1724281  57.1395111
  15.7969398  33.3789520  57.1659470  16.2617989  34.7636185  56.2682648
  17.5456257  33.7736588  56.9800148  17.8954754  35.8953400  58.5368156
  17.9750519  36.3591995  59.5199776  18.8499851  35.4045830  58.3466301
  17.7853470  36.9784698  57.4693756  18.4966164  37.8000259  57.5544319
  17.9512444  36.5759811  56.4700851  16.7756310  37.3876877  57.5028801
  14.2738552  34.4728508  59.0230522  14.2177019  33.8291397  60.0647545
  13.4987288  34.1717148  57.9122086  13.6283598  34.6554947  57.0351410
  12.5140934  33.0554657  57.9316673  12.5283527  32.5893784  58.9168930
  11.1440010  33.6604309  57.6140633  11.1180658  34.1035995  56.6185608
  10.5262680  32.7654381  57.5399361  10.6122770  34.6660271  58.6135864
  11.2439890  35.5535126  58.5760536   9.5753689  34.9306526  58.4064713
  10.6587181  34.3342323  60.1433678  11.6114740  33.9486008  60.5061951
  10.5442028  35.2308464  60.7525215   9.6085987  33.3505020  60.5335999
   8.7229328  33.4884338  60.0681190   9.8339834  32.2407532  61.2085724
  10.7437620  32.1066017  62.1069984  10.8967762  31.2261009  62.5775337
  11.3829384  32.8240128  62.4182472   9.1250772  31.2331104  60.8535690
   9.2404280  30.3648033  61.3564034   8.5420113  31.2264099  60.0288963
  12.9569330  31.9959774  56.9196472  13.1947012  32.2669182  55.7391243
  12.8718691  30.7684250  57.4170532  12.7099075  30.7495556  58.4138031
  13.0913095  29.4778404  56.8134308  13.6200762  29.6550102  55.8768806
  13.8954334  28.5154972  57.7007637  13.2136898  28.1202965  58.4538536
  14.2308693  27.6546078  57.1224480  15.0718575  29.2092247  58.1993484
  16.2014694  29.4832420  57.4360847  16.8745422  30.3635006  58.1949921
  17.8442497  30.8036785  58.0152397  16.2815132  30.5135117  59.4028969
  16.5939293  31.1792603  60.0951920  15.1971922  29.7074757  59.4252281
  14.5609055  29.5360699  60.2808952  11.7135401  28.8002644  56.3712196
  10.7563944  28.8341713  57.1350479  11.6109056  28.1619415  55.2081032
  12.4241095  28.0964203  54.6127014  10.3464375  27.5832901  54.7175980
   9.5116606  27.6661472  55.4135704   9.7811584  28.2936306  53.4644279
  10.6526432  28.2430782  52.8116951   8.5242004  27.5941868  52.9130287
   8.7581749  26.5360775  52.7957687   7.6657343  27.8000278  53.5523758
   8.3488235  27.9036884  51.8827095   9.4299965  29.7453041  53.8904953
   9.9943666  30.0959625  54.7545700   9.7041531  30.4108982  53.0720062
   8.3500710  29.7988701  54.0283165  10.5619879  26.0165691  54.5729828
  11.4579096  25.6382732  53.8563118   9.6592922  25.1990795  55.0600739
   8.8664074  25.6546593  55.4888878   9.6083441  23.7115917  54.9475403
  10.3293562  23.4569092  54.1707687  10.0882807  23.0241623  56.2309494
   9.4621439  23.2564468  57.0923996   9.9521914  21.9669533  56.0031509
  11.5428019  23.1685486  56.5795174  12.1181984  24.4072666  56.8635712
  11.4780617  25.2696629  56.9771385  13.4767179  24.5792789  57.0070839
  13.8948812  25.5407829  57.2660217  14.3107615  23.4510822  56.8283539
  15.6296110  23.6130238  56.6774559  16.0788288  22.8024864  56.9281235
  13.7143240  22.1720753  56.6115685  14.4670324  21.4017296  56.5315819
  12.3092966  22.0054150  56.6090469  11.8341627  21.0481682  56.4530640
   8.2807350  23.1818504  54.5280914   7.2384653  23.4372387  55.1695709
   8.2298193  22.5341702  53.3538246   9.0369825  22.5179939  52.7469254
   6.9869475  22.0723133  52.6971664   6.2039175  22.3972435  53.3822823
   6.8959527  22.7547112  51.2945633   7.6835046  22.4620209  50.6001625
   5.9859757  22.4451752  50.7805290   6.7245240  24.2723522  51.2786026
   7.6703839  24.6129379  51.6998482   6.7849793  24.9120903  49.8942680
   5.8376555  24.6099739  49.4477310   6.8511295  25.9942684  50.0065804
   7.6644979  24.5432281  49.3665504   5.5197949  24.8645592  52.1004677
   5.6436396  24.6252499  53.1566391   5.6593504  25.9332581  51.9376602
   4.5518742  24.4975739  51.7590637   6.8680325  20.5048885  52.6873055
   7.7489414  19.7814903  53.0748558   5.7345929  20.0195503  52.3691978
   5.0376201  20.7369270  52.2288437   5.2817903  18.5665779  52.3789825
   4.1979742  18.4857769  52.2958298   5.9272914  18.0265141  51.0967598
   6.9918156  18.2545109  51.1506577   5.7111278  16.9658623  50.9687042
   5.4539704  18.6659088  49.8142967   5.5797124  19.7486267  49.8111572
   6.0846953  18.3884258  48.9697304   3.9395874  18.3705330  49.5663719
   3.1087270  19.3376675  49.7774582   3.6081526  17.1730099  49.2896881
   5.6516681  17.6883221  53.6258774   5.3256059  18.0430527  54.7557983
   6.3835502  16.5009441  53.4627495   6.6299000  16.3317032  52.4979858
   6.7480397  15.6304197  54.6239014   5.8838983  15.4387665  55.2600060
   7.2607250  14.3139820  54.0584793   8.0943785  14.4508514  53.3697205
   7.9280076  13.8217602  54.7659760   6.1533918  13.3957787  53.5481071
   5.5389280  13.1776905  54.4215927   5.5007582  13.9282112  52.8562393
   6.7783427  12.2271481  52.8171616   7.4095578  12.5884371  52.0052872
   7.3535094  11.6437111  53.5361099   5.6370583  11.4680452  52.1673393
   4.9956536  11.0499420  52.9431534   5.0336809  12.1420908  51.5593109
   6.0761137  10.2190475  51.4450150   6.7383738   9.7598438  52.0538216
   5.3315678   9.5503798  51.3084946   6.4885783  10.4584551  50.5547028
   7.9243722  16.2644939  55.3666725   8.0192833  15.9025402  56.5346947
   8.7680607  17.1345673  54.7651634   8.5801849  17.4216347  53.8152199
   9.8641081  17.7099400  55.5672989  10.2301636  16.9341698  56.2398186
  11.0554476  18.0920486  54.6390038  11.5826445  17.2496395  54.1912155
  10.6028223  18.5915146  53.7824059  11.7357426  18.7779865  55.1437683
   9.4897795  18.8751717  56.4965210  10.3606291  19.3856049  57.1546898
   8.2915506  19.3760624  56.4878922   7.6275916  18.9963360  55.8282967
   7.8233681  20.4642735  57.4078484   8.2649117  21.4299374  57.1616173
   6.3001575  20.6437969  57.2347336   6.2213693  20.7598057  56.1537933
   5.4440579  19.3725662  57.6038132   5.7782311  18.4579639  57.1139870
   5.3482709  19.2538967  58.6830902   4.4419794  19.6232491  57.2558327
   5.8212051  21.9084015  57.9938927   5.5584545  21.7012577  59.0312653
   6.5232754  22.7316055  57.8614807   4.9074454  22.3352318  57.5804176
   8.2252264  20.2597485  58.9607658   8.5399780  21.2034740  59.5846596
   8.2652349  19.0390873  59.4503288   7.7939892  18.3428764  58.8905830
   8.7617416  18.6325951  60.7940521   8.1152687  19.0877590  61.5443878
   8.4693232  17.1286221  60.9819641   8.7587633  16.8472519  61.9944687
   6.9590821  16.7482052  60.7756004   6.6288486  17.0365314  59.7776375
   6.7459188  15.6978407  60.9740868   6.3101478  17.4518433  61.2970161
   9.2485876  16.2054729  59.9599533   8.8694572  16.4598217  58.9701691
  10.3241501  16.3818340  59.9471664   9.0379934  15.1894855  60.2938957
  10.1777601  19.0888939  61.1644554  10.4652672  19.3562698  62.2856598
  11.0388393  19.1637325  60.1307144  10.7037086  18.8254681  59.2400055
  12.4709005  19.6044655  60.2661133  12.9459047  19.1993980  61.1596413
  13.2180166  18.9567966  59.0225945  12.7102270  19.2713394  58.1108322
  14.2262087  19.3636818  58.9445534  13.2020817  17.4543152  59.0142975
  12.2295227  16.9785442  58.8883209  13.8799028  17.0688419  57.7046623
  13.3593216  17.5270996  56.8637733  14.9379301  17.3308468  57.7103615
  13.7956247  16.0048199  57.4836273  13.9140911  16.8491173  60.2423019
  13.3516521  17.0844669  61.1458321  13.8282127  15.7627325  60.2644844
  14.8930063  17.2539425  60.4990959  12.6129103  21.1202526  60.2761307
  13.7391586  21.5070286  60.2167702  11.6148415  21.9372101  60.3122444
  10.7136631  21.4847126  60.3690224  11.6721163  23.4317989  60.3178520
  12.2946978  23.7352562  59.4761848  10.3141041  24.0253448  60.0565262
  10.3510857  25.0499477  59.6864967   9.9860125  23.4304199  59.2041626
   9.3271990  23.8502884  61.2475777   9.3520203  22.8179607  61.5965500
   9.6568279  24.5774326  61.9896736   7.9423504  24.3018818  60.7966919
   8.1177902  25.2961922  60.3860016   7.6278605  23.7597389  59.9049034
   6.9033117  24.1228104  61.7774353   6.5472298  24.9103184  62.3000603
   6.2992535  22.9637508  62.0583839   6.6056666  21.7924290  61.6460457
   7.0521221  21.7299423  60.7422333   5.9732013  21.0345707  61.8599129
   5.3416142  23.0970592  62.8627205   4.7897296  22.2752209  63.0629921
   5.0148096  23.9766312  63.2364197  12.3480005  23.7914886  61.6099968
  11.9677715  23.3288784  62.6751900  13.3646269  24.6665802  61.4589691
  13.6469126  25.4535866  60.3436928  12.6890268  25.7435112  59.9118309
  14.2448292  24.9227314  59.6028900  14.4543438  26.6118851  60.7672119
  13.7092962  27.3731995  60.9983101  15.1636410  27.0245628  60.0497894
  15.1185627  26.1275883  61.9902077  15.2616549  26.9059772  62.7396965
  16.0741825  25.6654396  61.7425766  14.1687317  25.1179752  62.5713425
  14.7335253  24.2738075  62.9669266  13.3469133  25.6834469  63.7464981
  13.8237782  25.7557755  64.8472443  12.1910448  26.2127705  63.3943367
  11.9700880  26.2757816  62.4108162  11.3306513  26.7903347  64.4755096
  12.0033121  27.4785480  64.9873581  10.2150116  27.6889191  63.8430901
   9.6133251  27.0333691  63.2135429   9.6742535  28.2364159  64.6150513
  10.8011799  28.9108887  63.1609764  11.4741030  29.7237282  63.8723106
  10.6758299  29.0782413  61.9343185  10.7941532  25.8648815  65.5388107
  11.0815401  26.0123692  66.7370300  10.1247034  24.7764587  65.0958481
  10.0099792  24.5617504  64.1156235   9.6882334  23.6610413  65.9896698
   8.9084196  23.9659767  66.6875229   8.9077501  22.7308273  65.0464401
   7.9901819  23.2038612  64.6965714   9.4320974  22.4639568  64.1288681
   8.3202667  21.4767933  65.8111801   9.0863018  21.0139141  66.4333038
   7.1951523  21.9080639  66.6998367   6.5066013  22.6580544  66.3106003
   6.6324844  20.9938545  66.8888550   7.5141573  22.2226658  67.6934967
   7.9311619  20.3983974  64.9014359   7.1717615  20.8181400  64.2417145
   8.7522955  20.0681820  64.2651978   7.6175203  19.4870377  65.4105072
  10.8762522  22.9928265  66.6352844  10.7986650  22.6900387  67.8239212
  12.0121927  22.8581390  65.9206390  11.9371748  23.1501255  64.9566803
  13.2502489  22.2206364  66.4711380  12.9422407  21.3167782  66.9967575
  14.2438393  21.8398037  65.3371277  13.7475195  21.0015373  64.8481750
  14.2984400  22.6685429  64.6312180  15.4520597  21.4068775  65.8645096
  15.9607191  21.1745052  65.0842056  13.8460836  23.0893993  67.5732803
  14.1103277  22.5740852  68.6840363  13.9518909  24.3940220  67.3088150
  13.6315603  24.6733131  66.3925858  14.3030710  25.3949203  68.3247604
  15.2547731  25.0970383  68.7647934  14.4244633  26.7965412  67.6718750
  15.4076176  26.7514763  67.2033920  13.5576544  26.8065872  67.0110855
  14.3058662  28.0811577  68.5514679  14.6149836  27.8731060  69.5757980
  15.4106503  29.0844269  68.0365677  15.1901054  30.0721874  68.4412689
  16.4611759  28.8378716  68.1905060  15.3734112  29.1685314  66.9504547
  12.9350719  28.6696434  68.5230560  12.5800610  29.1337223  67.6028900
  12.1985054  27.9315681  68.8405685  12.8764534  29.4914188  69.2367477
  13.3993673  25.2798195  69.5399017  13.8904772  25.3114910  70.7002106
  12.0968838  25.2626667  69.3535919  11.8090448  25.2641602  68.3854752
  11.1330795  25.2763309  70.4003143  11.4773989  26.0217819  71.1171494
   9.6956310  25.5932293  69.8535233   9.4635096  24.7203732  69.2433243
   8.7310381  25.7879868  71.0708771   7.6883860  25.7304287  70.7583542
   8.8676872  24.9480076  71.7519531   8.8766975  26.7594109  71.5433502
   9.6510859  26.7185230  69.0576324  10.2220039  26.7796574  68.2882690
  11.1346769  23.9596043  71.2174759  11.1414671  23.9275665  72.4132309
  11.3528614  22.7920380  70.5956116  11.3240280  22.8374043  69.5870438
  11.7622347  21.6074429  71.3377228  10.9712896  21.4437294  72.0696487
  11.9716721  20.3929653  70.3800125  12.7547483  20.6121063  69.6541519
  12.3051281  19.5681095  71.0097122  10.7821493  19.8034859  69.6284714
  10.1294222  19.2261467  70.2832413  10.1891899  20.5372028  69.0824356
  11.1773233  18.8107433  68.4637070  11.5754814  19.3642693  67.6133118
  11.9104347  18.1208591  68.8816833   9.9620047  18.0609703  68.0135803
   9.6692104  17.4441719  68.8632431   9.0986614  18.7039108  67.8422089
  10.1105719  17.2238064  66.8665543  10.2574530  17.8441315  66.0831528
  10.8007984  16.4872189  66.9001999   9.2255917  16.8117332  66.6075134
  13.0575418  21.6776428  72.1993866  13.1050797  21.2628269  73.3283005
  14.1001263  22.0730057  71.5824203  13.9765291  22.2765694  70.6008987
  15.4367552  22.2376041  72.2010574  15.7809000  21.3212280  72.6805573
  16.3483276  22.6941299  71.0037231  16.0969467  22.0313301  70.1757126
  16.2366600  23.7388439  70.7135468  17.7914200  22.4933929  71.2531662
  18.2298203  22.0736809  72.3194122  18.6645851  22.8460503  70.3147430
  18.3270054  23.3016968  69.4789581  19.6566391  22.8488045  70.5042877
  15.5124331  23.1953697  73.3514099  16.1084270  22.9315758  74.3995438
  14.7251749  24.2893925  73.2796097  14.2507544  24.4084320  72.3959503
  14.4931860  25.2851677  74.3429642  15.4001026  25.2742863  74.9475174
  14.3315573  26.7125130  73.7326508  13.9157543  27.3520947  74.5112000
  15.6094170  27.3261662  73.1693268  16.2384033  26.5897675  72.6691360
  15.2918081  28.0252209  72.3956680  16.1195011  27.9172516  73.9299469
  13.3506069  26.7472668  72.7201309  13.6517420  26.0110626  72.1826172
  13.3495340  24.9198799  75.2718353  12.8398037  25.7837009  75.9683380
  12.7721186  23.7131195  75.2942123  13.0014696  22.9526386  74.6703796
  11.8460274  23.3741436  76.3609085  10.9798594  24.0356693  76.3454895
  11.2729301  21.9767342  76.0659714  11.1715937  21.9400501  74.9813156
  12.0178013  21.1970654  76.2253036   9.9043121  21.6388874  76.6381454
   9.4142323  20.9504261  75.9497070   9.9838381  21.1047554  77.5849762
   8.9232483  22.8346043  76.8467560   8.6427326  23.1396713  78.0015640
   8.4325399  23.3994484  75.8099442  12.3848372  23.4712048  77.8255310
  13.5839949  23.2119465  78.0636292  11.4868174  23.7090797  78.7410812
  10.5182533  23.6082897  78.4730835  11.7213688  23.7881813  80.2457199
  12.6342993  23.2232189  80.4340897  11.9294453  25.2030354  80.6697998
  12.6558104  25.6988525  80.0258560  10.9280529  25.5705853  80.4456863
  12.1821814  25.3782120  82.1681442  11.6219473  24.6410427  82.7433167
  13.6595154  25.2492638  82.4095688  14.0459709  24.3198872  81.9912262
  14.1957531  26.0376282  81.8813324  13.8060741  25.2552109  83.4896545
  11.7411070  26.7677002  82.5992889  10.6596422  26.7616673  82.4632950
  11.9766426  26.9286499  83.6512985  12.2121964  27.5651646  82.0246429
  10.5834885  22.9647884  80.9471512  10.7262211  21.7715073  81.2760086
   9.5339422  23.6316376  81.1711044  25.0475044  20.6423912  35.5454903
  24.3968735  20.0067577  34.9486847  26.0214310  20.2127132  35.7699242
  24.6618061  21.8376350  36.0133781  25.6196022  22.7388210  36.7790070
  25.2129707  23.8509712  37.1558533  26.7821083  22.5058212  36.8759079
  23.3401623  22.2990665  35.8347282  22.7865467  22.4908848  34.5337830
  21.9814243  23.2346706  34.5755959  22.1684303  21.1906452  34.0659637
  21.4902821  20.6517601  34.7241783  22.2258015  20.7283268  32.7764740
  22.7995815  21.5041504  31.7369480  22.6806736  21.2050762  30.6973248
  23.5321922  22.5590324  32.0526123  23.9555435  23.2019653  31.2838879
  23.8610458  22.9556522  33.4431114  24.8481407  22.5031395  33.5982437
  23.9578857  24.3613567  33.5453949  24.7386169  24.6192970  33.0251503
  21.6267014  19.3779030  32.3332405  21.2684059  18.5541477  33.1709251
  21.5288620  19.0289841  31.1670094  42.6524429  17.0845604  52.6725082
  43.3791962  16.4620037  52.1550255  43.1056213  17.8879642  53.2493057
  41.3367538  16.9140892  52.7198715  40.4587135  17.8103561  53.5551453
  40.9683723  18.7023659  54.1766548  39.3173065  17.4282913  53.9117813
  40.7294388  15.8584175  52.0097961  40.1699753  16.0401001  50.6745834
  39.9377480  15.0078115  50.3853760  41.2292480  16.5341072  49.8001900
  41.9654808  15.8366098  49.4065094  41.4017715  17.8527603  49.4493828
  40.4048347  18.8515530  49.9766121  40.6278381  19.9130020  49.8872261
  39.3033676  18.4377041  50.6166267  38.7039375  19.1221733  51.2130470
  38.9508324  16.9201031  50.6910706  38.5147133  16.8016987  51.6905556
  38.1186905  16.5249653  49.7028999  37.2675056  16.4222469  50.1629677
  42.6817856  18.2255707  48.7702179  43.6049538  17.4142666  48.5087090
  42.7859306  19.4154682  48.4850540  17.2411480  19.5094681  59.8993111
  16.7464046  20.4265938  60.2117805  17.4235382  18.8422012  60.7389641
  17.4836712  19.2252979  58.6085167  17.1610031  20.2001019  57.5088043
  16.7368164  21.3201733  57.7596359  17.5637989  19.9772320  56.3753357
  18.0422287  17.9564400  58.2076530  18.6168823  16.9484997  59.0296440
  18.7076836  16.0732574  58.3747444  17.6211395  16.4171772  60.0526123
  16.6382675  16.1815891  59.6501350  17.9752693  16.0506954  61.3567810
  19.3427753  16.2976208  61.7958336  19.6019039  15.9746904  62.8022957
  20.2550621  16.9866695  61.0536385  21.2716484  17.1777363  61.3906479
  20.0207043  17.4468117  59.6253357  19.9037437  18.5366840  59.6664848
  21.0890999  16.9649487  58.8150597  20.6776543  16.1643429  58.4456406
  16.9718552  15.4556856  62.2945557  17.3415012  15.2158680  63.4426117
  16.0119267  14.9158449  61.8465080  44.9366798  32.3700600  63.6972961
  20.3413773   6.8036218  19.6579494   5.7182274  50.3182831   9.3721161
  35.1823807  61.8034821   1.3828847   8.2427330  22.0108337  80.0134888
  32.9753838  25.5350304  85.2501297  12.0543413   3.0133111  70.8784027
   2.9371903  36.9694481  39.6379013  27.7767010   0.7434620  37.9459076
   0.4971212  23.5191212  78.4284286   1.2785347  23.6983967  77.9054718
   0.3931281  24.2960625  78.9777756  17.5135345  24.8428440  65.6768799
  17.0108109  24.4202709  64.9805069  17.7350178  25.7043762  65.3234100
  28.8664417  28.8326073   2.0699842  27.9348869  28.9857121   1.9118804
  29.0099945  29.1347637   2.9668260  37.1292686   0.7203781  44.4756966
  37.1097641   1.5504829  43.9994850  38.0602798   0.5430081  44.6098099
  49.0089989  10.2060385  60.8723068  49.5075645  10.4186392  60.0833397
  49.6117096   9.6856813  61.4035339   2.4129682  17.0692444  54.0460472
   3.1413267  17.4938431  54.4993057   2.2230687  17.6454220  53.3056488
  76.4862137  20.5321007  24.3278217  77.1524658  20.9327431  24.8862324
  75.6591263  20.7125969  24.7745762  34.2803078  41.5738029  64.0587311
  33.3956413  41.2772789  63.8450203  34.8461456  41.0957375  63.4524994
  30.3124657  37.5148926  82.9081039  30.4954205  38.4008904  83.2207794
  30.0190926  37.6354408  82.0049744  46.0972519  46.5969810  73.8570328
  45.8292236  47.5157661  73.8420334  45.8787193  46.2981148  74.7397308
  63.4114151  53.6641464  57.8546562  64.0365753  53.6871414  58.5791397
  63.6484451  52.8806190  57.3585396  64.4986954  12.7184172  50.1127968
  63.8221893  12.3397512  49.5513878  65.1814194  12.0485535  50.1502838
  21.1569881   3.1575904  25.8023663  20.4791374   3.8021331  26.0056248
  20.7773247   2.3194304  26.0661354  69.0950089  17.9279232  63.5850334
  69.2725906  18.2253437  62.6927109  68.4670258  17.2133713  63.4788208
  44.8349113   5.9868832  88.2335739  45.1296921   5.0831718  88.3460007
  45.6041946   6.5173230  88.4410934   6.2562079  56.3720245  58.3160782
   5.5614729  56.3046761  57.6610680   6.6152630  55.4867630  58.3762779
  68.3512497  60.2879105  42.4227943  67.6879425  59.7244034  42.0243988
  68.0765457  61.1769104  42.1981888  10.9638577  59.2199059  40.8762512
  11.4139080  58.6291466  40.2723579  10.9669189  60.0666389  40.4298592
  40.8592873  58.0798607  35.9919586  41.6348076  58.6334190  35.9004478
  40.4882050  58.0398636  35.1105232  31.3652687  55.8749084  63.1201782
  32.2875557  55.6562881  63.2536888  30.9759674  55.0710449  62.7759666
  13.8520947   1.1550118  45.4368820  14.1387587   1.7409438  44.7363548
  14.5751543   1.1598612  46.0640907  38.1344757  62.2955475  32.3491936
  37.6661530  62.7853241  33.0252342  38.3301239  61.4518738  32.7568283
  77.4383698  42.2990074  80.5751648  78.2207565  42.5642166  80.0916748
  77.6713791  42.4242249  81.4950867  34.5484848  52.5144691  54.2362099
  33.6318970  52.3241501  54.0365067  34.5396919  53.4117317  54.5694885
  10.5872650  39.5306778   1.2322385  11.1624136  40.0605545   1.7842041
  11.1827927  38.9727325   0.7319646  46.8831711  31.2082138  85.3687973
  47.6912994  31.7127094  85.2758102  46.7454567  30.8154945  84.5068054
  85.9710770   3.6824582  15.4262686  86.4717255   3.0033753  15.8784037
  85.5742416   3.2313638  14.6811066  70.8675919  61.5324402  88.9876633
  70.6485062  62.0922508  89.7325439  71.7839584  61.7338142  88.7980652
  47.4987755  27.3587017  70.3844147  48.3803749  27.4620991  70.7426376
  47.1565132  26.5743027  70.8131485  85.0137253  53.8482742  34.8203392
  84.4518661  53.3715553  35.4313087  85.1698837  54.6911125  35.2463379
  69.0958252  48.1372414  40.9435959  69.6605606  47.8950005  40.2096825
  69.6910095  48.5220871  41.5869331  16.2161369   0.0722815  38.1075363
  15.5238371   0.5082861  37.6106949  16.6682358   0.7827905  38.5625267
  73.0238419  16.4295330  74.9462051  73.4383850  16.7356815  75.7528381
  73.4220123  16.9599705  74.2560349  72.7219238  57.1359253  63.9401474
  73.4548950  57.7340088  64.0860443  73.0277176  56.5458794  63.2512627
  85.4216843  62.7250137  82.8090820  85.1462936  61.8172188  82.9367676
  84.6469116  63.1630592  82.4568558  73.6101761  25.7154217   7.6842003
  72.7645264  25.4813557   8.0667124  73.9487610  26.4049301   8.2553110
  21.5416813  38.6734276   3.2772384  21.4304695  39.5663986   2.9509439
  20.7566013  38.2114639   2.9831824  58.4725647  36.2488632  21.4573421
  58.9859390  37.0350723  21.6432247  57.5652237  36.5142365  21.6074848
  48.4326744  57.0176010  82.7054138  49.1123123  56.8179359  82.0616302
  47.9504051  57.7515984  82.3247604  65.3101501  55.1095352  59.9926033
  65.2969360  54.7021255  60.8586731  66.0404892  54.6872406  59.5403824
  40.0145874  22.2049465  81.1711578  40.9124527  22.5319557  81.1151733
  39.6022797  22.4967384  80.3580856   7.0998187  54.9686356  19.2051640
   7.2326875  54.3993225  19.9630985   7.0645547  55.8519135  19.5723267
  44.4241753  31.9942284  18.2096157  44.8137436  31.2092571  17.8245335
  43.4927368  31.7869835  18.2851372  57.9038353  51.3750420  50.1357307
  57.7740288  50.7735519  50.8689384  57.8763962  50.8157768  49.3593941
  76.0603943  53.3513489  74.9798431  76.4859848  52.4957542  75.0351181
  75.7876511  53.4245491  74.0652542  30.5922585  67.4747314  71.0586548
  31.2475281  67.6636276  71.7303467  30.2531071  66.6103821  71.2912674
  22.2762432  23.4466476   6.6888800  22.3823986  23.9281979   7.5092893
  21.9465904  22.5885468   6.9557619  23.3628292   5.1916542  75.3758011
  24.1911335   4.7932210  75.6430054  22.6920090   4.5942845  75.7065277
   3.8017838  40.4538345  45.1698570   4.5377536  40.0891991  45.6614037
   4.1940823  41.1304245  44.6179848   6.7412925  29.1471672  34.7122192
   7.5933967  29.0376778  34.2901268   6.8001494  29.9940071  35.1545219
  77.8779449  29.3363495  78.6361847  77.9537811  28.6517448  79.3008575
  77.3236923  30.0032864  79.0414352  67.2545624  38.8032837   7.9106727
  68.1801834  38.5679054   7.8470740  67.1584015  39.5566063   7.3280158
  48.9005661  17.3277378  16.8693256  49.7526512  17.3005352  16.4340763
  48.2855873  17.5699768  16.1769753  34.5976753  43.1051064  27.8023472
  33.6607018  43.0336838  27.6201229  34.9841270  42.3421860  27.3724136
  83.9958649  29.6996670  36.7703514  83.1904907  29.2147961  36.9506187
  84.6953812  29.1287060  37.0880280  30.0168819  14.9958763  24.4157066
  29.3438969  15.0172911  25.0960484  30.5182133  14.2014780  24.5996437
  20.1726322  32.5673752  15.1314182  21.0095005  32.2533150  15.4738331
  19.6702824  31.7709980  14.9591942  77.9146652  45.8731689  34.5987854
  78.7530670  46.3277321  34.5169983  78.1464539  44.9963875  34.9049835
  82.3448029  45.7946739  85.4334641  82.1008453  44.8815155  85.2822800
  81.5516281  46.1995201  85.7844696  24.4031067  18.5681877  25.1822834
  24.5909901  18.8656940  24.2921028  24.6786022  17.6515369  25.1916218
   3.1425135  11.0383930  57.8097382   2.5863874  10.6257401  58.4705505
   3.2281237  11.9459820  58.1016045  16.8660831  11.0691900  65.2790909
  16.8334198  11.5877380  64.4751816  16.0792084  10.5252037  65.2453537
  63.9419937  45.7285576  37.9090729  64.3752823  46.3805542  38.4598846
  64.2160339  44.8869400  38.2735062  31.2603817  62.5633202  67.5568466
  30.6662979  63.0429688  66.9795761  31.0018711  61.6469383  67.4586182
  76.0975952  29.1978550  86.1859055  76.5332870  29.2332630  87.0374603
  76.8131943  29.2055168  85.5502243  12.6290474  20.7648926  83.1649475
  12.4192886  21.4972343  82.5853729  12.4128361  19.9851837  82.6535416
  83.4454651  45.6194038  43.6036377  83.6977844  46.4827080  43.2761040
  83.0162277  45.7968330  44.4405975   1.4820942  62.8651009  30.7860889
   1.0407958  62.0263977  30.6516838   1.9995390  62.9935875  29.9911213
  19.0513248  37.8195190  68.9398575  18.7008591  38.6167336  69.3371658
  19.0139313  37.9849968  67.9978104  16.7473221  51.5915070  71.9520645
  16.3608723  51.3144608  72.7828064  16.1414089  52.2509956  71.6141663
  82.3157806  30.3720417  77.3125076  82.1593857  29.8546276  76.5225296
  81.7835083  29.9481468  77.9857330  72.0574799   0.8276379  80.0776596
  71.8445892   1.6491814  80.5203476  72.9603806   0.6431175  80.3364105
  52.6608353  35.9078064   9.2810011  53.0928345  35.0748215   9.0919495
  52.7463799  36.4111557   8.4713383  57.9439888  38.3911934  72.4633255
  57.8482208  37.8396034  71.6869202  57.4078445  39.1619835  72.2771454
  81.9154053  49.9387131   3.4334373  81.7808914  50.5105057   2.6776650
  82.8184509  49.6337891   3.3453624  53.5598793  12.5284586  73.4989243
  52.6891174  12.6405582  73.8802948  53.9908295  11.8915977  74.0689392
  63.4709778  20.2895241  48.2548981  63.6025925  20.8041725  49.0511703
  62.8891411  20.8259563  47.7164421  70.8396225  21.0397072  82.4509735
  70.6241226  20.1079674  82.4916153  71.6902618  21.0699215  82.0130997
   5.8205342  14.3465281  21.1114082   5.2548923  13.9132862  20.4722042
   5.6998010  13.8443289  21.9172935   7.7271929  38.1594124  65.7788010
   7.7169366  37.2031746  65.8204880   6.8532643  38.3949623  65.4673538
  37.0466766  39.2119408  15.8406143  36.8703117  38.5541153  16.5132160
  36.2854652  39.1725349  15.2616167  72.5638199  11.2152090  83.7131119
  71.6122208  11.1893988  83.8132324  72.7815704  10.3897991  83.2800827
   7.4989796  67.0879593   2.9197619   8.0312099  66.5896530   3.5399704
   7.3234563  67.9162598   3.3662302  60.9219017  32.7126350  60.7112617
  60.4461823  32.7635498  61.5403175  60.2382088  32.7275543  60.0415039
   9.1285248  26.4233990  19.5047245   9.2975979  27.3601170  19.4037075
   9.9347572  26.0740795  19.8844566  45.1030312  42.1003075   0.7116088
  44.4044342  41.9214973   1.3410699  44.6470718  42.4125862  -0.0699376
  56.3919525  20.5911617  35.6194954  55.7260094  20.2017536  35.0528297
  57.1364403  19.9924107  35.5606155  47.3868408  30.2301216  78.7489700
  46.5732422  30.3966866  79.2249374  47.1465111  29.5876999  78.0813141
  67.1259689  30.4584064   9.2866373  67.8364258  30.5471420   8.6513348
  67.4616013  30.8740253  10.0808935  20.0540905  69.6714935  45.0133896
  19.6571388  68.8376236  45.2650299  20.3262196  70.0668106  45.8415833
  36.9914513  47.7079430  13.9853954  36.2165985  48.2369652  14.1750507
  36.7673302  47.2332687  13.1849651  11.0376205  27.0432072  25.5672817
  10.6476669  27.3318634  24.7421474  10.4476109  26.3596230  25.8848248
  40.4457283   3.7649174  22.3125858  40.1259117   2.8808665  22.4925919
  40.0157814   4.0131521  21.4941998  67.0850525  34.5401268  56.2765350
  68.0233841  34.4603958  56.1050377  66.6889420  33.8250961  55.7784882
  38.6948853   4.6999846  26.3690395  39.4448700   4.6750221  25.7747898
  38.9020462   5.4011569  26.9868374  15.1628141   6.5506253  65.1903000
  14.3293839   6.1384120  64.9629135  15.7592421   6.2875714  64.4893723
  78.9792175   4.6453605  10.8427563  79.0542450   5.5219145  11.2199240
  78.7940369   4.7983527   9.9161844  38.8548927  41.4727859  85.1061325
  38.7484169  42.2384682  84.5416565  38.0359268  40.9871025  85.0079575
  17.5723057   1.1038351  12.0007992  18.2644978   0.8209461  11.4032412
  17.9797840   1.0822960  12.8666687  25.0658321   3.5077350  45.0038490
  25.8654366   3.8239872  45.4243851  24.3564320   3.9097753  45.5051956
  67.5592270  29.3708172  48.6524048  68.1140594  29.6821651  49.3675652
  66.8867645  28.8431854  49.0832443  19.6828346  70.1486588  85.1648178
  19.4326286  71.0154953  84.8450928  18.8948326  69.6163788  85.0554276
  77.5312653  22.4850998  52.9126396  77.5959473  22.1765366  53.8164291
  77.2962494  23.4096470  52.9914474  85.8588486  44.4295082  42.0827332
  85.4578171  43.5614357  42.1257439  85.4481277  44.9186821  42.7956505
  60.9212952  22.5980167  57.7248077  60.4184875  21.8852787  58.1190414
  60.2952156  23.0472641  57.1569710   8.9204445  16.7495842   7.1937227
   8.9197702  16.7355232   6.2366261   9.7191887  17.2233009   7.4257383
   2.2382765  71.2920990  25.4419403   2.7047575  72.1126556  25.6010189
   2.0244725  71.3150711  24.5092068  61.4057007  51.1406631  21.8900032
  62.0797844  50.5934830  21.4869728  61.4840775  50.9654808  22.8277683
  49.2690353  69.8787003  48.3051033  50.1364670  69.4740448  48.2983780
  48.7415428  69.3052673  48.8611259  16.8533764  11.1883564  79.1544113
  16.1125431  11.1539965  79.7595673  16.7760487  12.0425320  78.7294006
  56.1421700  19.6394901  51.2947540  56.8721504  19.2504864  50.8130531
  55.9164505  18.9857903  51.9565392  22.4854126   9.7484026  79.0052948
  23.2884369   9.6415606  78.4954224  21.9310226  10.3104620  78.4640198
  32.9154701  40.2905846  16.4944077  33.4151421  39.6208649  16.0274677
  32.1851578  39.8133888  16.8883133   7.4266696  63.5454865  46.1947021
   7.8402758  63.6897736  45.3436203   7.7079120  62.6674309  46.4518967
  50.5561867  21.7815208  75.1366501  50.0651245  21.3714657  75.8486557
  51.4708633  21.5705910  75.3240204   5.8751054  64.9175262  39.0582924
   5.8129320  64.4641037  39.8989868   6.7070603  64.6225815  38.6880341
  16.0201969  30.0671654  62.8953819  15.7963829  30.9763355  62.6965103
  15.3756742  29.7996502  63.5505600   0.2104207  39.4039993  68.4562225
   0.5355771  40.3041801  68.4429169  -0.4220732  39.3883972  69.1745148
  77.3626251  44.6774025   1.7603716  77.1980133  44.7389870   0.8194447
  77.7893524  45.5046539   1.9835132  42.7097588  59.7028389  58.8822632
  43.3078423  59.2767601  59.4962540  43.1254158  60.5426254  58.6867561
  53.8769455  13.4940090  18.5381413  54.3160133  12.7007494  18.8450470
  54.5852432  14.0483627  18.2106667  39.5984535   1.0071961  74.8395157
  39.8709335   1.5627658  74.1092224  39.4541740   0.1469960  74.4452133
   5.5568409  22.2880344  35.6863747   5.6260285  21.8618202  36.5406494
   6.4626789  22.4663734  35.4336166  75.0330048  68.6628647  68.7115021
  74.4494019  68.1900101  68.1181641  75.2857361  69.4470901  68.2243195
  55.5859222  20.4590683  77.5713654  55.8927383  19.5604172  77.4508514
  55.5527306  20.5755157  78.5208740  47.5722580  66.0178223  30.1771908
  47.4819756  66.5620193  30.9594517  48.2747459  66.4327011  29.6765747
  34.9240036  41.4317055  66.9279022  34.7532272  41.8706551  66.0946045
  34.5382233  40.5618858  66.8238983  51.1365776  67.0275116  20.1594067
  51.3447380  66.4843750  19.3992100  50.3176727  67.4640961  19.9248276
  85.5542297  41.0812187  35.8958549  86.4982910  41.0313873  36.0458450
  85.3950043  40.4786758  35.1693420  16.2144127  53.9213791  40.6180496
  16.2866402  53.0102654  40.3336372  16.9665890  54.0524216  41.1953621
  21.9846420  44.9008484  45.6198692  22.1680775  44.2526245  44.9398766
  21.3280830  44.4836349  46.1776276   6.5034618   2.3098750  17.9298038
   7.0504093   1.6666461  17.4788742   6.3786540   3.0096138  17.2886963
   3.7559328  65.7737045  48.8535843   4.3348064  65.0840836  48.5286980
   3.2673612  66.0596619  48.0817299  66.9323044  49.5879745  28.6320610
  66.5393753  49.7219734  27.7695732  67.8688278  49.7288513  28.4931068
  48.8258476  40.7394257  77.2047119  48.5618286  41.1039772  76.3599396
  48.4639664  41.3458366  77.8508835  51.3943367  43.9754868  49.7335739
  51.9902000  43.2557945  49.9414787  50.5998421  43.5450211  49.4178047
  14.1603918  71.3954391   9.7000370  13.4493895  71.8672028   9.2662773
  14.9363871  71.5988617   9.1778488  26.4271126  48.4592323   3.9473214
  27.0202084  49.1960716   3.8005679  26.8678284  47.7125740   3.5417302
  37.8202057  15.0370998   6.1533208  37.5893936  14.1094456   6.2024589
  38.7769928  15.0475607   6.1793962  55.8611832  19.9154797  23.7081947
  56.1646309  20.3092270  24.5261879  56.1948013  19.0187263  23.7358208
  39.8008690  38.8613510  87.7677994  39.1562767  38.8173218  88.4740524
  39.8933830  39.7965508  87.5859222   4.8826447  56.0873108  55.8681297
   4.1347427  56.5799561  55.5302353   4.8864970  55.2776337  55.3576012
   3.3379772  29.7389908  60.6627617   3.2864611  29.9423084  59.7288246
   3.1799188  30.5761108  61.0991974  48.3602562  38.6764183  26.9631538
  48.2430000  37.7267265  26.9393005  47.5641899  39.0056305  27.3804474
  80.0268784  62.9973564   9.8302794  80.3338547  63.5779953   9.1339617
  80.7852554  62.8900375  10.4043674  13.6768341  15.4610071  79.3323898
  13.2491245  14.6161852  79.4722900  14.1788559  15.3446417  78.5257492
  19.4480782  64.0318909  62.0104370  18.5778198  64.4225006  62.0898285
  19.8180351  64.4294128  61.2221870  28.1473217   3.5096433   0.8784105
  28.8116989   3.6555190   0.2049454  28.0278893   4.3671021   1.2867395
  21.1439285  64.8177185  56.6075516  21.0560017  63.9912987  57.0824509
  22.0794868  64.8861465  56.4170837   4.9322281  21.7658138  84.4142075
   4.9752841  21.6495571  85.3633423   4.1804776  22.3423386  84.2773743
  32.5238838  42.7266312  86.8331223  32.0109367  41.9207916  86.7719727
  32.7709160  42.9224663  85.9293213  67.8671112  53.5530739  12.9984388
  67.3867188  53.6100807  13.8243942  67.2597809  53.1216507  12.3974018
  48.0501976   6.8197570  54.9034004  47.4007607   6.8790140  55.6040802
  48.8755722   6.6459155  55.3559151  60.1064034   7.8946800  70.7639542
  60.6637306   7.1249719  70.6492004  59.2419662   7.5365343  70.9657288
  71.9833527  51.7177200  16.9559441  71.4893341  51.8937416  16.1552010
  71.4333420  52.0653458  17.6579990  24.0801296  64.4771652  40.5718384
  24.1908379  64.7434540  41.4845619  23.8246403  65.2799530  40.1174278
  77.3272095  21.8209553  74.9478912  76.8408432  22.5697021  75.2929459
  77.0690002  21.7711811  74.0275192  67.5128555  48.4155464  86.1673889
  67.5329819  48.2790108  87.1145935  67.5739288  49.3648376  86.0608902
  54.5514259  50.6226616  11.9693651  55.4527817  50.9152641  11.8345528
  54.0840759  50.9189377  11.1883144  13.5034933  70.9385529  71.9215546
  14.4532995  70.9357986  71.8028488  13.2772627  70.0194550  72.0640717
  45.5167122  58.0785446  46.1517639  46.2698669  58.6355820  46.3484840
  44.8281555  58.3906021  46.7389107  10.1229057  59.3880005  27.9901848
  10.3881235  59.5982132  27.0948067   9.2903395  59.8456078  28.1070576
  20.6949081  68.5382156   6.0184526  21.4430790  67.9433899   5.9669623
  19.9385357  67.9904556   5.8084617  79.7025909  48.5736198   4.4666781
  79.5964813  47.8075600   3.9026530  80.4286957  49.0598869   4.0760994
  68.7995529  12.2823801  19.9090691  68.7270432  13.2156906  19.7093048
  68.3067703  11.8492670  19.2120686  81.6168976   6.1471691  20.2271481
  80.9663010   5.9168935  20.8904171  81.1933746   6.8259950  19.7017384
  82.7861862  51.2533188  30.4584389  83.2740784  50.4327812  30.5285473
  82.3835602  51.2191772  29.5907059  28.8005772  44.1754913   0.1112302
  28.9348602  45.1134720   0.2468401  28.5771198  43.8376732   0.9785121
  29.8347874  57.0042648  13.4168901  30.6488991  57.4682846  13.6121817
  29.1444969  57.5922546  13.7234850  74.5542908  28.6057816  73.8654099
  74.2503128  28.9847221  73.0406494  73.7642441  28.5323391  74.4008255
  61.9878578  49.8549232  19.4230785  62.5736084  50.3646469  18.8633385
  61.1539307  50.3234024  19.3865986  37.1741333  36.7167168  78.6231155
  36.4548149  36.1263809  78.8474274  36.8836784  37.5756035  78.9300003
   0.4407239  62.6793671  38.1248093  -0.2876840  63.1629333  38.5144424
   1.0346179  63.3581543  37.8042374  42.7137299  49.2666054  70.3669968
  41.9126434  48.7427864  70.3770676  42.4070206  50.1733360  70.3672638
  35.5935326  66.8333282  40.4362030  35.8694305  66.7141953  39.5274048
  36.2835579  66.4168167  40.9525528  32.1089897  31.1304073   3.6527960
  31.1537685  31.0874310   3.6968145  32.3071480  31.1018353   2.7167680
  82.9429321  41.6419563  21.7533493  83.6262589  40.9784660  21.8485661
  82.1546631  41.2256927  22.1020470  61.2891121  45.7018929  37.3980522
  61.3725510  46.5607605  36.9837875  61.9343185  45.7132759  38.1050262
  58.7892456  22.5384884   6.7662263  58.2845573  23.2674828   6.4055490
  59.4473343  22.3487568   6.0975323  55.0546761  52.7191620  86.8548660
  54.5828362  51.9338188  87.1320572  55.9136810  52.3981476  86.5804825
  35.5486336  46.8010025  27.6371288  35.4837875  46.1969261  28.3768005
  36.2910805  47.3652420  27.8530750  63.4078979  33.3111267  43.8030472
  63.6273689  32.7890015  44.5747032  63.3796043  32.6780624  43.0856476
  49.3318901  33.5663757  86.5796890  49.5613518  32.9730415  85.8644638
  48.6821785  34.1583710  86.2006836  39.8210297   1.3394438  60.2722397
  39.7336960   0.4378327  60.5815964  38.9203453   1.6532733  60.1915321
  31.2996883  45.0791512  53.8872414  30.6912041  44.4172478  54.2156677
  31.2348461  45.0124283  52.9345741  68.9565582  62.2629089  37.9490891
  68.7107010  62.8660088  37.2476273  68.1783371  62.2109032  38.5039749
  76.7397537  44.6356010  77.0279617  77.0817795  45.4394913  76.6368027
  77.4109955  43.9773216  76.8481522  86.9712067  57.2792816  44.7621231
  86.2316284  57.6591797  45.2363853  86.7819290  56.3413811  44.7348251
  40.8181572  23.5334454  78.1233826  40.2216225  24.2036152  77.7898407
  41.5268135  24.0273876  78.5357590  51.2238655  43.4662819   8.1922703
  51.2889557  44.4162979   8.2895384  52.1022453  43.1917305   7.9290195
  10.7557306  49.4648552  43.7341156  10.2480869  48.8096733  43.2552986
  10.2839890  50.2852592  43.5904808   1.8207020  53.2935486   1.8692408
   1.6283659  52.3653793   2.0024271   2.7270713  53.3086205   1.5618334
  50.5066147  43.3335037  42.9055138  50.7621078  42.4684029  42.5852737
  50.8450623  43.3672638  43.8002434  13.1115751  59.7521172  84.0975647
  13.7608042  59.7697334  84.8007202  13.2967024  58.9429703  83.6208649
  56.8218422  10.0214062  60.0922356  56.4999466   9.6268454  60.9027519
  56.0304794  10.2193060  59.5914230   2.6703095  19.4694138  73.1987915
   2.4104633  18.5802498  73.4398270   3.6255553  19.4344921  73.1486053
  85.6383057  71.0713959  48.1047974  84.7395477  71.2620544  47.8362579
  85.6395645  71.2090530  49.0520477  57.0936432  68.0459213  18.3379230
  57.4251137  68.2386932  19.2149620  56.1514435  68.2036743  18.3979435
  47.8661499  47.0917397  45.5522766  48.7770844  46.8571968  45.7295189
  47.3730965  46.2917061  45.7341461  76.0163193   6.8297901  33.8761101
  76.4183350   6.0801969  33.4371071  75.9496994   7.4988871  33.1948586
  74.6349411  49.0286865  71.5765076  73.7879944  49.4746819  71.5754318
  74.4410400  48.1471863  71.8952332  47.6021156  61.7686272  83.7965927
  46.7511864  62.1951752  83.6955795  47.6681519  61.5848083  84.7336502
  37.1615143  62.2907639   6.3794465  37.8919830  61.7261848   6.6322255
  37.4605331  62.7263527   5.5812740  43.6848946  69.2744904  52.1930923
  44.3136024  68.9190216  52.8212624  43.8943634  70.2073212  52.1463432
  13.7201910   0.4011444  21.6389542  13.2514410  -0.0014595  20.9079170
  13.0583019   0.9279532  22.0868473  79.1956406  52.2019272  81.5585175
  78.4471893  52.7633553  81.7606277  79.2744904  51.6251526  82.3183517
   6.1732235  36.0885086  87.0259705   7.0678020  35.8584328  86.7749252
   5.7016549  35.2555389  87.0221939  80.9896622  64.0639877  76.2183456
  80.8332214  63.4939804  76.9712448  80.2653198  63.8764610  75.6213608
  18.7888718  57.5432701  17.4810066  19.0588722  58.2459755  18.0722256
  18.2796516  56.9489784  18.0321369  77.3488388  18.3126431  74.0179214
  76.7955780  17.7858162  74.5946274  76.7331543  18.7533035  73.4322739
  28.7886887  71.2553787  86.4816284  28.2280884  71.9932709  86.2418823
  28.4334869  70.9455032  87.3147202  73.6729813  10.7608128  28.7772827
  74.4468842  10.9149742  29.3190746  73.5679092  11.5684681  28.2744064
  75.4647903  12.4355841   8.4472866  75.1850662  12.2139883   7.5590968
  74.7225037  12.1913843   9.0001068  67.4235077  23.1069469  46.7773590
  66.9677124  23.2748489  45.9525604  68.3509827  23.2081203  46.5633812
  83.8756180  47.9555511   0.7714359  84.4863663  47.6355286   0.1075052
  84.3836899  47.9585724   1.5826609  55.4713211  10.1116524  71.8242111
  55.6114960  10.9553871  71.3944550  55.8147812  10.2336884  72.7092972
  78.9932327  68.6696472  59.2570343  79.6167145  69.2035370  58.7646255
  78.4509888  68.2547302  58.5861778  71.4764557  69.1818695  62.4082794
  71.1780701  68.4687958  62.9728355  72.4299774  69.0983582  62.4006729
   5.0670371  51.3366623  23.9371891   4.5731592  50.5262032  24.0615959
   4.5182476  52.0145111  24.3316288  67.1665192  63.4586792  45.0826988
  67.4023132  63.6766586  44.1809692  66.3536377  63.9388657  45.2404633
  22.8881454   8.2859936   2.9827352  22.3885345   7.4860601   2.8192525
  23.7975140   7.9928303   3.0404868  65.8088760  18.7944298  38.8798714
  66.3395309  18.0349503  39.1203537  66.0763855  19.4777985  39.4944267
  14.9509430  58.0003052  19.0731030  14.2507162  57.4129105  19.3575020
  14.6252546  58.3848267  18.2592831  16.1799450  43.0913963  84.2171783
  17.0054398  43.3188286  83.7893143  15.8047409  42.4057236  83.6646271
  69.5777359  24.1799831  41.8450470  69.4412842  25.1126404  42.0116730
  69.0248489  23.9886303  41.0874672   7.5446239  21.8695431  27.1490135
   8.4443626  21.5742474  27.0093613   7.6357150  22.7369633  27.5433693
  40.7171631   5.5590281  67.4556046  40.3188782   5.3368926  66.6140213
  40.1466789   5.1495662  68.1060791  48.0079384  14.1507950  30.4938793
  47.0953941  13.9877605  30.2553043  47.9943161  14.2386112  31.4469452
  17.4505386  35.5408401  75.0373993  16.9300194  34.7382393  75.0709991
  17.0745525  36.0988350  75.7182083  10.6768456  39.1199570  32.1563416
  11.4746819  39.6050186  31.9456215   9.9764328  39.7685013  32.0852966
  18.4108887  43.4984245  35.4577370  18.4627552  44.1579971  36.1494789
  19.3205509  43.2471809  35.2976646  62.0418167   5.8565865  70.5524902
  62.8416939   6.3823481  70.5503922  62.0122719   5.4620113  69.6809006
  67.7113266   8.2287617  33.1629944  68.1510925   7.5029206  32.7202797
  67.6370087   8.9082747  32.4929428  23.3688011  52.1114006  46.1979942
  23.1372147  52.4108772  47.0771484  24.2808113  52.3796349  46.0860901
  20.7943554  44.7432060  86.6920624  20.9315281  44.7118454  85.7452621
  21.2611618  43.9776917  87.0271912  33.1839066  62.5993576  40.7952118
  32.9996071  63.5386047  40.7862663  32.8865166  62.3051147  41.6561470
  62.4281044  45.2087479  59.6102066  63.3028564  44.9078674  59.3642273
  61.8614426  44.9019012  58.9024124   8.5917950  32.9434280  69.8777008
   9.0958910  33.7564430  69.8442001   9.1633253  32.2904243  69.4737549
  66.0431519  28.4317818  71.1832886  65.5942307  28.5276737  70.3433456
  65.8572845  27.5323391  71.4528885  37.0363426  34.0462494  72.6101379
  36.2910767  34.2534904  72.0463486  37.1650925  34.8352280  73.1366043
  70.0796661  39.5088615   8.4920168  70.3739548  39.2306595   9.3593283
  70.0360031  38.6994781   7.9828758  64.0323563  46.8060837  15.0193310
  63.4065285  47.3090706  15.5404606  64.8729324  46.9436722  15.4560566
  60.3032112   3.5230346  84.9603577  61.1844940   3.1799886  85.1083069
  59.8358231   2.8058848  84.5320129  50.8186302  24.8119373  65.2465363
  50.1877518  25.5282021  65.3185577  50.4800186  24.2648811  64.5378036
  19.1761055  53.0013771  19.4088268  19.5822906  52.1512680  19.2398129
  19.4723701  53.5560875  18.6871967  53.1715851  39.1397057  73.9359360
  53.8740425  39.7385483  74.1892624  53.2263374  38.4245110  74.5697556
  21.5961266   2.0282073  51.0085258  21.0497150   2.4485958  51.6725616
  22.4542809   1.9423513  51.4237747  53.9243317  66.9914169  11.9096727
  54.1057777  67.7777328  11.3948717  54.1359482  67.2401047  12.8094521
  71.1259918  69.8401337  88.7409973  71.2745514  70.1417542  87.8447876
  70.9766006  70.6420059  89.2419128  53.7033501   5.9832287  37.8715858
  52.8874397   5.9533558  37.3719559  53.5192795   6.5821295  38.5952339
  11.8050528  40.3493004  54.9069214  11.9468222  40.9588814  55.6311722
  12.3930616  40.6563377  54.2168427  11.7475119  34.7193604  28.3894691
  11.1702995  34.9778824  27.6709824  11.6175432  35.3941727  29.0557785
  44.1974030  52.8182640  17.8124657  44.3495407  52.6369324  16.8849945
  43.9343185  51.9750900  18.1813507  19.6949692  52.2643471  43.3890915
  19.0721073  51.5378075  43.3686943  20.5142937  51.8864670  43.0694885
  61.8474274  20.7001934  85.3411407  61.6081314  21.4962215  84.8664703
  62.6309624  20.9421349  85.8348694  77.9229736  32.9587555  51.5309677
  78.8722610  33.0644035  51.4682655  77.5679626  33.7868958  51.2078857
  62.0833969  10.4653130  61.5929260  62.8067284  10.6859674  61.0061264
  61.6045494   9.7752380  61.1338692  38.3613434  42.7062531  70.6300278
  37.5034218  42.8875237  71.0138779  38.1849861  42.0654182  69.9412155
  17.3078747  71.7050552  59.9734306  17.3742275  70.7820740  60.2182541
  18.0203018  71.8388443  59.3483086  25.2916775  61.5582695  58.3091850
  25.8558006  60.7915421  58.4098015  24.6241436  61.4551430  58.9874153
  34.2717133  14.9484091  15.9102859  33.8679123  14.2433605  16.4163342
  34.2902107  15.6938019  16.5105171  66.2070923  51.5750961  61.9769135
  66.8097839  51.3327904  61.2738609  66.3807373  50.9392395  62.6710052
  68.3550339  12.5822449  30.6574364  68.7762833  12.4352188  29.8105793
  68.0681686  13.4949417  30.6270065  20.6977921   4.2986913  64.3299179
  20.5198479   3.5709951  63.7340736  21.5962543   4.5596375  64.1276703
  10.3644304  50.5768929   2.0343072   9.9586868  51.1769066   1.4085363
  10.0549984  49.7103691   1.7704499  65.3537979  28.7513065  59.0499725
  65.7609024  28.0908031  58.4894066  65.8689957  28.7314892  59.8564529
  78.7107544  32.9823341  65.3793793  79.4232941  33.5582504  65.1021805
  77.9778976  33.5736427  65.5511398  20.5369930  55.7840729  40.1663818
  21.3624859  55.6405983  40.6292076  19.9020519  55.2430077  40.6357727
  32.2960968  47.7201462  55.0223427  31.9410362  46.9050179  54.6677589
  32.6734505  48.1667175  54.2644424  33.4757271  35.5993690  29.0672455
  33.4657059  34.9711075  29.7893372  32.6555481  36.0840569  29.1600761
  50.2350082  29.8862572  30.6593304  49.6502113  30.0935154  31.3882275
  51.0876541  29.7422867  31.0698166  15.8389864  12.7803621  30.8829060
  16.0418110  11.8549929  31.0199661  15.5447063  13.0904608  31.7393341
  48.4562836  41.4246445  32.4811974  47.5428123  41.1390076  32.4666710
  48.4097595  42.3789825  32.4237328  67.9768372   7.5104065  75.4543762
  67.9650192   6.9113679  74.7078857  67.3861771   8.2199154  75.2014771
  13.5502262  38.1827316  18.9462414  13.8208160  38.1962242  19.8642979
  13.9965734  37.4211273  18.5761528  50.8755608  22.1017170  35.0680618
  50.4939537  22.8713398  34.6458168  51.7096748  21.9701214  34.6173210
  22.1296692  37.7755966  41.2257462  21.6589260  38.1526260  41.9690361
  21.8357162  38.2868614  40.4718018  52.8493729  22.7878819  39.5319595
  53.5070267  22.1259117  39.3186111  52.4747772  22.4943867  40.3624840
  49.8488045  26.8807411  55.1877670  49.3612289  26.7197075  54.3799515
  50.7206345  27.1438198  54.8929176  40.5895042  28.0082932   0.0480709
  40.6993294  27.0853119   0.2767048  40.6767082  28.4731979   0.8802323
  36.7394104  29.0573025  28.9491768  36.1029549  28.3912582  28.6892967
  36.2187386  29.8510056  29.0723305  39.6689453  70.2781906  57.4173622
  38.8420639  70.3301086  57.8967361  40.2187424  69.7032623  57.9497299
  24.8161716  50.7515373  75.5189667  24.7886696  49.9679794  74.9698639
  24.6302567  51.4723473  74.9172134  42.5565147  19.9754372  86.0437012
  43.1550369  20.1610508  86.7672729  42.1488571  19.1416645  86.2779465
  59.1541367  56.0659599  27.5648956  59.2354660  56.6301308  26.7959175
  58.2255783  55.8356361  27.5958500  71.2098312  55.9301529  65.7991180
  71.8741455  56.3082581  65.2229614  71.0714340  56.5949554  66.4737396
  47.0360985  10.2515888  73.1870117  46.2788429   9.6709661  73.2623291
  46.9580994  10.6348391  72.3133621  16.5581875  43.2506638  77.5949020
  17.0664177  43.6645241  76.8973007  15.6856203  43.1344872  77.2189255
  81.8034286  11.5591011  27.2526569  82.0028458  12.2247877  26.5943813
  81.3776474  10.8565025  26.7614346  42.5300713  13.8660488  24.8360939
  43.2027321  14.5007429  25.0829144  41.7199860  14.2210360  25.2021236
  56.8378754  60.4746552  25.6251755  55.9164925  60.3966942  25.8725853
  57.3165665  60.3656731  26.4468861  69.1125946  65.4090576  38.8723145
  69.7268753  65.2027893  39.5768318  69.6674957  65.6961517  38.1471291
  40.8593788  24.5897427  16.7785797  40.4375992  25.3748970  17.1276741
  40.4237976  23.8645916  17.2265263  60.7100105  14.2653379  61.8927002
  61.1597824  13.4209204  61.9226151  61.3049507  14.8365192  61.4068718
  18.3713284  47.0193787   3.6508768  18.5430431  46.9844170   4.5918994
  18.9045105  46.3142738   3.2837572  15.2165680  69.5313187  78.5786972
  14.8817215  69.2087708  79.4154053  15.1171799  68.7913666  77.9796753
  37.7474442  67.6534729   7.4900970  36.8741188  67.8504715   7.8288088
  38.2835312  68.3982925   7.7622752  10.5987530   9.2731018  10.6129761
  10.3257875   9.6943817  11.4279890  10.4714155   9.9440155   9.9422359
  80.1373291  34.1911163  41.4970284  79.9224396  34.6705284  42.2971687
  79.3003998  34.0969849  41.0421410  37.0540581  71.2501602   2.0126221
  37.3954926  70.8124924   1.2328126  37.5841827  70.9063950   2.7316666
  40.4149399  47.7719345  69.8883667  40.6113205  46.8357086  69.9221649
  39.4715614  47.8132782  69.7316513  54.0315361  53.1500931  63.9193115
  53.2732353  53.3465805  64.4694061  54.6149139  53.8994675  64.0390625
  72.6540527   4.8060203  61.8515205  73.5912933   4.9673643  61.7429962
  72.5616760   4.5363035  62.7652779  66.7681808  70.0689545   8.1224289
  66.0429306  69.5964432   8.5310555  66.3448792  70.7255402   7.5693102
  85.7427292  40.4222908  31.1488094  85.1941833  41.2005768  31.2467976
  85.5530701  39.8962364  31.9256802  57.7692871  68.3432541  10.3982201
  56.9640770  68.0975571   9.9426994  57.7427864  69.2994690  10.4326038
  14.5867596  51.0925255  12.4488754  15.1905584  51.8206177  12.5956411
  14.4146099  50.7440796  13.3236237  30.3051376  64.8519669  52.1586914
  29.8553066  64.3844757  52.8624878  29.7747822  64.6810074  51.3804054
  69.9614410   1.2430326  49.2038879  69.5756149   0.6608564  48.5493317
  70.3773346   0.6537147  49.8331490  27.5460567  41.8673973  66.6699677
  27.2586136  41.6123581  65.7932892  27.3759708  41.0966339  67.2114716
  75.4825211  54.8153267  64.4360809  74.9208755  54.3866386  63.7903137
  75.9562912  55.4808578  63.9372368  83.0711594  43.8455505  23.3573723
  83.4599380  44.6324120  22.9753628  83.1107788  43.1944962  22.6568089
  13.1303978   5.2496953  63.0602989  12.3843813   5.7591395  63.3767776
  12.7375641   4.5408473  62.5509377  41.0341263  55.0111198  66.3733749
  41.9873543  55.0203819  66.2867813  40.7402153  54.3785477  65.7178574
  29.9118176  64.6030197  16.6844387  30.0571995  64.9148102  17.5776806
  29.7986679  63.6569901  16.7764091  44.0496941  57.1200981  67.1453400
  43.9087601  56.1828690  67.0112762  44.8412857  57.3173027  66.6446152
  43.7841492  64.2215347  17.0379524  43.1765518  64.2489624  16.2988281
  43.3443756  64.7180939  17.7280693  24.4497757  29.6286373   6.5674696
  23.5271759  29.8815861   6.5999618  24.6689358  29.4054337   7.4721146
  31.8400345  51.7616348  53.5110588  31.5393829  51.3221283  54.3064651
  32.0526962  51.0484200  52.9091187  54.5970268  60.5934486  52.6429329
  54.7528839  60.8159943  51.7251015  55.2572021  61.0910072  53.1254654
  63.6061211  19.4948273  20.4420013  64.3723450  19.9859619  20.1454849
  63.6154785  18.6955280  19.9154415  72.1164474  58.2298622  29.3127728
  72.0152893  57.7521400  28.4895000  71.2368698  58.2458954  29.6900234
  10.9664202  71.0015259  31.8849545  10.8550434  70.2113342  31.3563442
  11.3285389  70.6865845  32.7131538  43.3518944   4.7717028  69.9735565
  44.0766296   5.2380295  69.5569916  42.9150467   5.4355893  70.5070801
  41.5476227  66.5087814  73.3034439  41.8400803  66.9167023  72.4884033
  41.4174538  67.2419128  73.9049454  22.4199619   7.0116363  30.0969696
  21.8171272   6.2690516  30.0596752  22.2510777   7.4147000  30.9485855
   2.5631232  49.2739792  26.3547039   3.3703129  49.3866272  26.8566875
   1.9338864  49.8573837  26.7788887  48.7960320  38.0250168  35.5810242
  48.6346359  37.7435036  36.4815445  49.7386894  37.9112663  35.4598274
  68.0515671   7.0144119  53.5474358  67.2860413   6.4746914  53.3502045
  68.7567749   6.3845320  53.6963043  45.6590996  67.5523834  18.4697895
  45.2679291  67.3365555  17.6232452  45.7478638  66.7094269  18.9145069
  29.6838531  40.2918510  83.8799515  28.8724098  40.6844139  84.2019577
  29.8528728  40.7379189  83.0500793  49.2500610  29.2860756  17.4066658
  49.9348526  29.9115467  17.6434765  49.4627724  29.0259991  16.5103703
   3.1776690  25.2641354  57.6157951   4.0350761  25.1220875  57.2146606
   2.5516140  25.0655022  56.9194946  55.2425270  14.9031115  73.2751465
  54.8149910  15.2930031  74.0376587  54.7834015  14.0739908  73.1410065
  67.6391983  37.7611885  85.2795029  68.1084290  37.6876678  84.4484482
  67.9144669  36.9923286  85.7788086   4.6182489  59.7387619  35.3254509
   4.6911831  59.3924332  34.4360886   3.8063912  60.2457924  35.3192062
  35.4353142  70.1671143  26.8835926  35.1276207  70.1707611  25.9772034
  34.6803322  70.4598846  27.3940067  44.6506042   4.1023374  28.5160294
  45.2328949   3.8074772  27.8158703  44.4018250   3.2997808  28.9745541
  80.8907623  31.7141171  42.8368340  81.7908630  32.0392570  42.8186722
  80.3570786  32.4947205  42.9854088  82.8752518  48.0644531  69.7764511
  83.2898712  48.8392982  70.1558456  83.0112762  48.1574669  68.8335419
  27.8468819  70.0890961  38.0579109  27.0214672  69.7952576  38.4433670
  28.4205761  69.3245621  38.1088181  80.6098557  40.7310410  83.1291275
  81.2170715  40.3372726  83.7555923  81.0296783  40.6065025  82.2779694
  75.3162766  29.1693306  31.3462982  75.8719788  29.9238644  31.1510983
  74.5999222  29.5285015  31.8698139  14.4313736   1.6194201  27.3105698
  13.9650564   1.1849856  28.0247459  14.8416071   0.9051699  26.8229351
  12.4505072  60.7601585  15.1855869  12.8963032  61.6042480  15.2563896
  12.0024519  60.7960739  14.3404903  57.2080345  64.8518982   8.5009079
  57.0614777  64.7838516   9.4443712  58.0414696  64.4042892   8.3550930
  72.2162399  47.4871407   4.0605249  71.5208054  47.2756805   4.6833296
  72.3583221  48.4273491   4.1702900  77.7431107  22.7508717  65.2457504
  77.7475586  23.2804852  66.0430679  76.9122467  22.2766666  65.2778320
  29.2088928  55.7777481  66.0071411  28.5143051  56.2791939  66.4341431
  29.7635632  55.4761963  66.7266083  74.3742676  25.2723312  67.5356293
  73.8538132  25.5562916  68.2871170  73.9824448  25.7243614  66.7883835
  32.4001656  51.8609467  18.6318169  32.5142937  52.1160202  17.7163143
  33.2120171  52.1335373  19.0593948  59.1592751   6.3078604  34.6437454
  59.1013145   7.2403598  34.8518715  60.0823479   6.1662612  34.4336967
  14.4295473  46.8003616  70.6639099  13.9974184  47.5381889  70.2336731
  14.8793468  47.1901970  71.4135437  85.6722412  23.7033978  61.0010490
  85.5630341  24.0612125  60.1199837  86.6013565  23.4796886  61.0552406
  32.6451530  36.9758186  80.1000366  31.8697453  37.0959244  79.5518188
  32.3356094  36.4567719  80.8423309  64.7259521  39.8425179  54.4744644
  64.6651535  39.6270981  53.5438004  65.4990845  40.4029922  54.5405617
  16.5495110  41.6449547  48.9107094  17.3010578  42.1978683  48.6969490
  16.8763981  41.0452652  49.5813408  83.3766022   0.6992714  69.3370285
  84.1987152   0.8776057  69.7937088  83.2033691  -0.2264038  69.5083466
  68.9144058  31.8142376  21.8445835  69.4185257  32.6136665  21.9962807
  69.1004410  31.2655582  22.6065369  45.3945122  14.7116041  22.1980972
  44.4646187  14.5997906  22.0005283  45.4130325  15.3531475  22.9082451
  46.5248947  34.2554398  33.0049706  45.9939957  34.7988396  32.4226532
  46.9828606  34.8817177  33.5655708  15.5252485  17.1072559  31.7658253
  14.7139521  16.6777573  32.0370483  15.8080893  16.6186485  30.9928474
  81.0207901  13.8214016  45.8896217  80.8957672  13.6247435  44.9612198
  81.2868652  12.9876680  46.2773361  72.1062546  37.1863632  73.9194946
  72.9567947  37.2433243  73.4840927  72.1142883  37.9018326  74.5553207
  81.1628189  20.8771229   0.8984063  80.6923752  21.6002293   1.3131665
  81.9643326  20.7859821   1.4136757  36.5369339  58.6615982  16.2704773
  36.5470428  59.6012306  16.4527359  36.4973526  58.2505341  17.1340122
  76.6103363  14.3114328  40.4051895  76.2152100  13.4907751  40.1108704
  76.5839844  14.8795938  39.6352997  72.5489807  52.9703484   2.3470161
  72.6304855  52.3785858   1.5990813  71.7020416  53.3985901   2.2224233
  39.6927795  39.5840225   6.8370376  39.9036026  40.5150795   6.7669353
  40.0251884  39.3272781   7.6971664  73.6716461  55.5373955  31.6660404
  73.9120178  54.9677696  32.3967819  73.8545532  55.0151138  30.8850136
  71.0716019  17.8045502  44.8617020  70.7280350  17.1157837  45.4307289
  71.7351074  18.2450905  45.3926582   3.8914080  56.7062988  67.9417725
   4.3368421  56.0963898  67.3536987   3.9576337  56.2981720  68.8050690
  46.2601051  32.9262581  87.6399307  45.9366951  32.1121674  87.2540512
  46.4203339  33.4995346  86.8903198  52.8901482   5.8907905  41.8627625
  52.2039833   5.9292116  41.1964798  53.2304955   4.9980183  41.8048630
  52.6338921  16.6938610  84.3872528  52.2996483  15.9952621  84.9498138
  53.5611763  16.7616291  84.6148224  56.0315819   1.6304287  53.4550781
  56.8394279   2.0424602  53.1487389  55.3323631   2.1604767  53.0724869
   6.6960111  69.8392715  63.5459595   6.9200721  70.7673874  63.4779892
   5.9653597  69.8138962  64.1638107  54.5578918  21.5520935  19.5174007
  53.8950539  21.5254498  20.2074471  54.6493835  22.4818287  19.3089428
  49.2933846  22.9126797  71.7916870  49.9069939  23.5905247  71.5084076
  48.6927452  22.8097019  71.0535431  34.5107307  55.3949738   0.8178093
  34.9862671  55.2978821   1.6428354  35.1958771  55.4549713   0.1520732
  60.7641716  33.1341629  18.6378803  60.2472763  32.9704247  19.4267025
  60.2798843  33.8153305  18.1712914  79.8031540  31.5971851  73.9729080
  79.4799194  31.4003544  74.8521194  80.7407303  31.4089165  74.0147018
  75.9269562  70.9977570   4.0038300  76.6838989  70.4208755   3.9014664
  75.3544846  70.5353928   4.6159835  12.1516962   0.7133974  70.1548080
  12.4225349   0.0426690  70.7817078  12.2344217   0.2899829  69.3003464
  83.5807037  32.3324394   3.3977809  83.4753036  31.3896675   3.5254710
  83.6800156  32.4363403   2.4514332  58.9352036  53.9280701  24.5737858
  59.0565147  53.0330849  24.8908272  59.4499664  53.9684906  23.7677956
  82.0959702  20.2048149  84.8672028  82.3555679  19.5190315  85.4824600
  81.6480713  19.7371483  84.1622849  76.4716339   8.9523802  74.1919022
  75.9729691   8.1407194  74.0982666  77.1985703   8.7215023  74.7702637
  44.4320221  67.5816040  23.5482235  43.9162560  68.2250595  23.0622406
  44.4204178  67.8982010  24.4514732  77.7553024  20.0672607  11.9740419
  77.8460236  20.1739063  11.0271368  77.9208603  19.1370201  12.1272507
  16.0445194  39.6601105  85.9869843  15.2600746  40.2071457  85.9465790
  15.8886995  39.0721588  86.7260818  24.0193062  26.3804951   5.7789016
  24.9391403  26.5857544   5.9462495  23.8522701  26.7267876   4.9023108
  49.2040405  30.1406116   4.6435328  48.4048920  30.1153183   5.1697989
  49.2352180  29.2856884   4.2141528  52.8588676  20.9575558  33.8373985
  53.2349434  20.8687191  32.9616661  53.5464478  20.6461964  34.4260559
  63.5670586  21.3442631  50.7763329  64.2441101  21.9693546  51.0353584
  63.2904434  20.9369583  51.5971985  24.2165031   1.4785036  78.4640732
  23.4438591   0.9284890  78.3347092  23.8902264   2.2414391  78.9412613
  46.6435623  37.9083366   4.6131396  46.4679031  37.1195488   4.1001229
  47.1960106  38.4453773   4.0451412  44.6941071  46.3700562  33.4785004
  44.3451767  47.1171570  33.9646301  45.6362724  46.5328064  33.4330406
  16.5564365  63.6995583  12.9780636  16.9135189  64.3746796  12.4010553
  16.9628754  63.8710403  13.8275537  37.2696228  43.0732079  56.1729927
  37.9648514  42.4250031  56.0602303  37.7309494  43.9084244  56.2492447
  82.7498627  67.1534653  59.0003815  82.6243362  67.0429840  59.9428596
  82.2787704  66.4182816  58.6082001  32.3562737  68.2107162  46.6394272
  32.1506577  69.1446228  46.5973053  33.2794571  68.1798096  46.8904343
  65.7157288   9.4519653  34.5685501  66.3234558   9.0517702  33.9466629
  65.1095200   8.7476406  34.7980461   3.7415457   3.0868542  80.8749924
   3.6130042   2.8195457  79.9649124   3.1251097   3.8080122  81.0021515
  64.4790039  58.5073776  16.6268559  65.1913605  57.9158134  16.8694210
  64.9030151  59.3575325  16.5098610  59.6438446  61.5644798  10.0433092
  58.9651070  61.6794128  10.7083921  59.6957741  62.4137611   9.6048326
  23.6439133  46.8575897  45.2569656  23.0654106  46.1135712  45.4243050
  23.0628052  47.6182060  45.2598419  59.0599365  65.7909317  21.2846603
  59.0331039  64.8378143  21.2005081  58.2280197  66.0182190  21.6999741
  43.5253868  47.5397377   5.7011919  44.4474640  47.2829666   5.7096372
  43.3194389  47.7231789   6.6177983  55.6097031  45.0057259   4.1748071
  55.4592514  44.4131012   4.9112802  55.2095070  45.8317375   4.4464345
  33.8344917  36.6226768  11.5465384  34.2543373  37.4828796  11.5435190
  32.9578896  36.7852287  11.8949337  78.1584930  55.7004890  55.2433243
  77.7806244  55.4144821  56.0749817  78.8803940  56.2769432  55.4939003
  71.2743149  22.8608189  70.9471283  70.5321198  23.1778660  71.4617767
  71.0816269  21.9358730  70.7935867  15.5284195  51.6187973  57.7001839
  16.1440315  52.3364220  57.5509491  14.9808388  51.9198532  58.4252701
  86.9538193  12.6825256  16.5080280  86.1048813  12.2404413  16.5175743
  86.7381668  13.6145210  16.4747295  17.8687363  69.2720337  74.3214951
  18.3019524  68.5142822  73.9285965  17.5416756  69.7744980  73.5753098
  17.7781487  25.0296345  25.0315647  17.2556572  25.8259983  24.9364815
  17.1830425  24.3218021  24.7844734  12.0559797  68.5540848  85.0388260
  12.4590454  69.3735428  84.7520142  12.3609324  68.4393311  85.9388657
  52.3138351  48.7570457  50.5413094  52.4779358  47.8325958  50.7275734
  53.1721191  49.1733551  50.6204834  81.7898712  19.0783291  34.1105156
  81.2411423  19.5449352  34.7409172  81.8959579  19.6928482  33.3843307
  49.2643967  27.5324097  78.2946854  48.9594688  27.8139820  79.1572266
  48.4652138  27.4431877  77.7754822  60.6165276  59.7548180  52.8671875
  60.2485313  60.6363564  52.9280052  60.1318512  59.2475014  53.5183029
  79.2930984  57.6581345  52.4006767  78.6571808  56.9436722  52.3635521
  80.0956421  57.2835617  52.0375595  84.1400452  61.5048752   1.2416630
  83.4777985  60.9762001   1.6868190  84.7619705  61.7394333   1.9304428
  74.7373199  40.0733948  66.2842255  74.0077667  40.3979988  66.8120728
  74.7462921  40.6407890  65.5133743  71.8097000  41.4263458   7.0507593
  72.6745529  41.0245018   7.1330948  71.1969223  40.6965981   7.1413140
  25.9759483  15.3794584  86.1364670  26.9138584  15.4931288  86.2902145
  25.6364918  15.0422068  86.9654846  14.1251955  42.6782913  69.9003983
  14.1819057  41.7619781  69.6295013  13.4111147  42.6959190  70.5375824
  65.7691650  60.3344650   8.6928053  66.4703751  59.8725700   9.1523514
  65.6847229  59.8726845   7.8586249  72.1125717   5.0104346  18.3961811
  72.4011459   4.3750553  17.7410126  71.2732315   5.3307228  18.0657959
  24.0877705  39.1286507   4.4265695  23.2228508  38.9027710   4.0843349
  24.0041370  39.0273094   5.3747087  13.1396437  33.5878372  33.2836647
  12.8340197  32.8264084  33.7766647  12.6891184  33.5244865  32.4414978
  24.2885876  39.2187691  42.8155861  24.2056084  38.5288315  43.4738693
  24.1924706  38.7641640  41.9787331  63.5178070  19.4295444  69.6431656
  63.0250320  19.3771667  70.4621048  64.4227371  19.5785446  69.9172668
  32.5075607  40.9448586  73.8122864  31.8614845  41.2385750  74.4545822
  33.3148422  40.8392868  74.3156586   6.0760779  38.1577415  19.7452984
   6.8250132  38.2672386  20.3312492   6.3399882  38.5939941  18.9351959
  44.6235886  70.2789307  77.6883850  43.7228432  70.5999603  77.7311172
  44.7409706  70.0156250  76.7756271   1.8231634  58.8971939  42.7964363
   1.0087752  59.2002563  42.3949928   1.8508753  59.3392220  43.6450081
  66.5011597  67.9897690  61.5184174  65.6967926  68.2926407  61.9397240
  66.9075089  68.7864838  61.1773071   7.8353271   5.3795528  36.0360031
   7.0845642   5.7095795  36.5296326   7.5035739   5.2614942  35.1459312
   1.9483143   8.4836664   5.6260967   1.9748887   7.8582282   4.9019756
   2.7604153   8.9831629   5.5410800  57.1447906  71.1760712   9.5269222
  56.6906624  71.9990997   9.3462915  58.0707283  71.4161453   9.5621090
  14.5181274  10.7447577  75.5877457  15.1928244  10.0668573  75.6260452
  14.4465399  10.9591484  74.6576157  67.9605942   6.8954782  18.8102016
  68.4712982   7.4661736  19.3844147  68.4440842   6.8922997  17.9840889
  37.4768143  57.3886566  34.8290482  37.9911270  56.6144409  34.6003494
  37.3219872  57.3040199  35.7698441  85.2230301  46.9174995  60.9596939
  84.5976181  46.4102745  61.4771957  85.8246231  47.2871132  61.6059914
   6.5146661   5.7240090  26.8885460   6.3983078   6.4955835  26.3341408
   5.9370589   5.8770757  27.6363258  61.4616547   8.0204248  16.3611374
  60.7958641   7.5737400  16.8840408  61.4818916   7.5368061  15.5353432
  83.2931519  34.0084534  76.0544510  82.4720306  34.4150124  76.3313980
  83.2257767  33.9579926  75.1009598  85.2403030  12.1280308  38.4030228
  85.7017822  12.0943689  39.2409592  84.3246002  11.9621353  38.6270599
  50.5396233  49.5111389  73.1720581  51.3228340  49.3835716  72.6367645
  50.8763199  49.7009621  74.0477448  16.0240231  53.4741364  85.3704071
  16.9301167  53.3617973  85.6578217  15.5943336  52.6518822  85.6059875
  62.2243576  61.7289314  10.6122141  62.4621353  61.7594643   9.6855202
  61.2769241  61.5925446  10.6120186  81.4649124   1.6393068  55.0566406
  82.1633835   2.1629846  54.6640396  81.5147629   0.7966640  54.6053085
  51.2279930  12.6571198  67.9890060  50.3334351  12.9923525  67.9288254
  51.6361275  13.1854658  68.6749420  56.3209419  70.2522812  48.0083504
  56.5900421  70.7988663  48.7466316  57.1261978  70.1074219  47.5115509
  73.2490616  26.1536865  65.0090714  73.5482330  26.4832993  64.1616745
  72.4039764  26.5813236  65.1476059  73.1325989   4.9783878  68.5717087
  72.9973602   5.4655509  69.3844833  72.5081482   4.2545142  68.6196060
   7.5419240  66.4824371  65.1987381   8.1927567  66.4798431  64.4968491
   7.5399857  65.5832443  65.5268936  51.5536804  71.4504547  83.7657471
  51.2446060  70.5705261  83.9812469  52.3716469  71.3071060  83.2897110
  39.4422646  58.6967239  74.3651199  38.5988731  58.4361115  74.7352676
  39.2199249  59.1136665  73.5326843  62.4361763  70.1933670  55.8419876
  62.4222870  70.7371674  56.6295929  62.0162277  69.3754501  56.1082268
  56.9842491  17.5719662  74.0105743  56.4409294  17.6015797  73.2230759
  57.8569756  17.3429909  73.6909637  35.4387398  61.4518890  88.2926483
  35.7713051  60.6460304  87.8973923  34.9480553  61.8784447  87.5901413
   4.7863603  11.2634516  29.0990410   5.2975278  11.9736919  29.4869804
   5.2752337  10.4698515  29.3168316  45.2984428  23.0781345  48.3286934
  45.2225685  24.0316772  48.2936325  44.4051056  22.7723999  48.4858589
  68.8961487  36.9649353  27.3758812  68.6766663  36.3140106  28.0424786
  68.1753693  37.5939217  27.4088230  70.5470352  65.4766159  43.3633728
  70.9912872  64.6665421  43.1130524  70.9020996  66.1379013  42.7693520
  49.0956345  36.2358398  41.2989197  48.6027527  35.6896172  41.9112434
  49.3401489  37.0075417  41.8097229  53.1695633  69.2410126   3.6456349
  53.4722137  70.0747910   3.2858365  52.3101158  69.1057816   3.2465179
  67.0903015   9.7621975  36.8958054  66.5500488   9.6734743  36.1106415
  67.4477921  10.6484833  36.8416672   4.5062437  13.8821526  67.4594193
   4.6951137  13.1905708  66.8251724   3.6112165  13.7042189  67.7483826
  30.2035294  20.6635532   0.8115175  29.6277466  20.7461338   0.0513296
  30.1122646  19.7502117   1.0830115  76.7175140  35.8643265  88.2699280
  77.2033234  36.5093155  87.7559128  77.3572006  35.5266762  88.8968506
   9.1290617  70.2043915  36.0605927   9.4211092  70.5861511  36.8883629
   8.5546656  70.8687515  35.6798935   9.6363277  28.9526882  75.2672653
   8.7465630  29.2892590  75.3734283   9.6667709  28.6368599  74.3641815
  69.6327438  49.5517616  27.8726654  69.8497925  48.6823387  28.2091522
  70.4344482  49.8490791  27.4424133  40.7339897  57.7325211  11.6632767
  40.7652512  57.0800133  12.3629103  41.6487007  57.9770546  11.5227814
  75.3299713  22.8758774  29.1602840  76.0997696  23.3033047  29.5357113
  74.7617264  22.7034950  29.9110317  73.2795868  26.1504822  85.3766785
  73.0402908  25.5942173  86.1179886  72.9070358  25.7071686  84.6145020
  78.8232040  36.2278442  29.0002384  79.3530502  36.5079803  29.7465763
  78.3269577  35.4773941  29.3270340   5.1352639  33.8488045  52.4853668
   5.3948979  34.5934982  51.9429131   5.5787430  33.9949875  53.3209419
   5.1370468  44.1828194  84.0860519   4.2003169  44.0789185  84.2533035
   5.2744002  45.1300240  84.0730057  19.8986721  30.0857544  38.8620796
  20.0406914  31.0294495  38.9362450  20.7787590  29.7095089  38.8730240
  59.2819977  16.7117786  32.3989067  59.4059868  16.7606716  31.4510288
  59.7204361  15.9007578  32.6562881  77.6881332   5.9437346  56.9114304
  78.6409531   5.8623967  56.8696175  77.5041733   6.8027782  56.5313873
  66.9639893  23.5630741   6.4299340  67.3968887  24.2799053   5.9662747
  67.6489029  22.9044971   6.5456958  48.8295441  15.9731445  87.1045303
  48.5327301  15.1148901  86.8019867  48.1664047  16.2461128  87.7385406
   5.0281811  70.2966690  72.8086014   5.9619269  70.1316223  72.6777954
   4.8634367  70.0356216  73.7146606  46.0884323  44.7059708  14.8707447
  46.7693672  44.4086266  14.2672987  45.9318275  45.6176605  14.6247206
  28.9957886  20.3574162  83.7287674  28.3931313  19.7812176  84.1989059
  28.8808765  20.1239014  82.8076324  26.2725925  56.2753220   3.5457017
  26.8451290  56.4674454   2.8030565  25.5928249  56.9479599   3.5043590
  68.5414886  59.5611000  74.9600296  68.7897644  60.4832649  74.8951569
  67.6013794  59.5529404  74.7801437  84.3796768  47.9748230  22.9270306
  84.5797272  47.2207947  22.3723660  84.4952316  48.7319107  22.3528347
  79.9083176  44.1652794  24.9757633  79.9433136  43.9171982  25.8995934
  79.4253311  44.9916534  24.9678020  17.5302448   4.9483919  42.9311028
  17.7142105   4.0572486  42.6340294  17.5566978   4.8926883  43.8863144
   3.9404979  33.7400627  45.7434845   4.3693557  34.5579491  45.4917488
   3.0765178  34.0088882  46.0557404  65.5696716   5.5910020  53.0461922
  65.3496704   5.3872933  53.9552231  64.8131790   5.2892714  52.5432892
  79.2424850   8.9040585   7.1541920  78.8223495   9.5202379   7.7542272
  79.0438156   9.2455463   6.2823286  10.0069656   5.1825538  64.4432449
  10.1668501   5.7559142  63.6936264  10.1378756   5.7446151  65.2069092
  44.1082344  60.9123802   7.8678775  43.9231415  60.2173767   8.4994965
  44.7590866  60.5325394   7.2776723  80.3074646  53.1865273  68.4183426
  79.3514099  53.1534271  68.4513092  80.5749207  53.2966194  69.3307953
  85.6224899  69.5482788  40.2296257  84.6955032  69.6210709  40.0024033
  85.8685913  70.4277573  40.5163116  78.7486267  26.8081207  41.3460579
  78.9626236  27.5242596  41.9440384  78.9079361  26.0141850  41.8564644
  57.4574471  45.6638489  43.4377060  56.8868713  46.0659180  42.7827148
  57.4567680  44.7325325  43.2166252  66.4666824  41.4191475   4.0742884
  65.7261963  40.8127174   4.0616717  66.4832993  41.7582855   4.9692416
  23.1275673  33.7167282  22.6933498  23.4017258  34.3307571  22.0121460
  23.9087143  33.1933250  22.8724937  86.2717667  10.0835094  28.4367123
  86.0835114   9.6123829  29.2483959  86.6762161  10.9023447  28.7233429
  85.3445206  34.8210869  55.2673645  85.4559402  35.7677155  55.1795654
  86.0635910  34.4470367  54.7581978  54.2559433  45.7430267  41.7795219
  54.7406273  45.0657959  41.3076401  54.4830894  46.5571518  41.3302650
  43.1781921  40.9254875   7.3533430  43.3775101  40.0234337   7.1027303
  42.8809052  40.8617897   8.2609739  35.1534500  56.9782257  26.4133301
  35.5849190  57.4223938  27.1432476  34.7305832  57.6818352  25.9210415
  62.1495399  15.9936399  11.2019625  62.2417068  15.0410414  11.2190704
  62.5396500  16.2570858  10.3685112  42.9142952  23.9358463  84.2083206
  43.6055527  24.3161278  84.7503357  42.3063774  24.6588078  84.0534134
  80.4931793  61.7753830  55.5771103  81.3277206  61.5576553  55.1619415
  79.8307190  61.4816628  54.9517250  67.5645447  68.3579178  88.1011276
  67.6215973  69.0094376  87.4021988  66.7310257  67.9133606  87.9467010
  81.1839981  38.8147621  37.5312119  81.5554581  38.6000748  38.3868790
  80.4742661  39.4270897  37.7250175  64.0356445  60.5226898  83.5656128
  64.2626648  61.3798866  83.9260254  63.2334595  60.6774101  83.0668182
  66.5216141  29.6924438  75.8732071  66.6214371  29.0274830  75.1919632
  66.2199936  30.4711819  75.4054184  51.0684776   9.4144211  57.5668678
  50.8826561  10.2922802  57.9001350  51.1132736   9.5233707  56.6169434
  13.4922543  64.0079041  66.9287262  14.2683420  63.7268219  66.4440460
  13.1671457  63.2092743  67.3443222   0.8520401  20.4151192  18.3661175
   0.3663071  19.8800812  18.9938354   1.7462196  20.0755844  18.4034081
   9.7762032   1.5706973  85.4252243  10.3081951   1.2749132  84.6864929
   8.9737844   1.9045005  85.0240631  40.1591530  53.9064751  72.0199356
  40.4600983  54.8151321  72.0171814  40.0774803  53.6784172  71.0938950
  68.0232620  56.5646210  88.2727127  68.1964111  57.3233643  88.8299942
  67.6508026  56.9351425  87.4725800   3.2062004  19.9497337  16.8810959
   4.1345277  20.0550041  17.0893230   3.1495144  19.0878773  16.4685173
  34.7230835  23.0787201  80.8478317  35.2365456  23.5262089  80.1752701
  33.8131676  23.2093716  80.5809708  51.3963928  45.0206718  40.9433289
  52.3528252  45.0307350  40.9802589  51.1356964  44.4281960  41.6484833
  55.1626549  11.9733591  26.7619934  54.6470680  12.4927588  27.3789425
  54.7967949  11.0912495  26.8272762  56.1973381  71.0081787  80.8709259
  57.1152039  71.1385803  80.6327057  55.7488327  70.8800278  80.0350723
  36.5588722  20.7163887  71.5041428  36.1149139  19.9494305  71.8659515
  36.6584511  20.5183830  70.5729523   2.6968019  58.1551552  78.2928085
   3.2956922  58.8864365  78.1418381   2.8071413  57.9426117  79.2195663
  86.7769012  28.4392300  77.4043655  85.9316483  28.0398102  77.6098938
  87.3037491  27.7195301  77.0569534  58.2542305  46.1822929  31.0344124
  58.5642090  47.0535583  30.7873383  58.2037697  45.7026405  30.2075996
  42.6847534  24.6976929   7.3976426  43.5570793  25.0771599   7.2914052
  42.7086678  23.8934059   6.8792009  57.7311783  36.1754456  26.2117863
  58.6246300  36.0055237  25.9132919  57.8315926  36.8165245  26.9154663
   1.5424762  63.2412949   9.1338959   1.7232758  63.2849998   8.1949434
   1.7030321  62.3267479   9.3664074  50.9362373  11.6023560  42.1983986
  50.0964775  12.0617247  42.1940842  50.7411766  10.7503595  42.5886383
  58.6060219  22.3991642  13.7292690  59.0845795  21.5955772  13.9328909
  59.2778511  23.0055695  13.4175768  57.4514847  50.1122589  18.9756680
  56.9325447  50.6774673  18.4034176  57.2024384  49.2229996  18.7238255
  32.5904312  68.4863434  38.9200554  33.2540054  67.8651810  38.6199608
  32.7112617  68.5261688  39.8687630  79.1490097  48.3107185   7.5592060
  79.7722397  48.1125679   6.8602395  79.4299850  47.7637825   8.2927885
  64.7967224  56.9867058  79.3058701  65.6821594  57.1965714  79.6028290
  64.2493820  57.1051140  80.0821609  79.3661423   7.7874002  50.5751534
  80.2854080   7.5739179  50.4151001  79.2092438   8.5755539  50.0551262
  15.6814442  46.5646095   7.9177022  15.7308455  46.4377556   8.8651724
  14.7437515  46.5717430   7.7255778  82.1593094  27.4902840  44.8735313
  81.9258423  27.8380604  44.0128479  81.4112167  27.7064457  45.4301796
   5.9871364  56.0692711  61.1501160   5.3266468  56.6939507  61.4497223
   5.8893447  56.0555077  60.1980209  74.9155502  43.8785782  25.3957024
  75.3737869  43.0391693  25.3551407  75.2087173  44.2720299  26.2175751
  65.0487900  55.4264946  71.8708725  64.5704041  54.6578026  72.1815033
  65.3549652  55.8568077  72.6691895  59.1953201  51.8899841  20.5509262
  58.7251244  51.1362724  20.1944580  59.9267769  51.5083160  21.0362415
   2.2934475  19.3991718  82.6120758   2.9824321  20.0280342  82.3974533
   2.5736086  18.5849686  82.1939697  35.0370941  70.6233139  32.7891579
  34.5047302  70.0609436  33.3517914  35.9370346  70.3392334  32.9492531
  48.6786423  36.0881729  45.9685135  49.5360794  36.1749496  46.3850517
  48.0760193  35.9216080  46.6933136  86.4482574  37.4243813  61.8036690
  87.0304413  38.0576286  61.3837929  85.5862122  37.6069832  61.4298172
  65.4544296  46.0197754  85.7189941  65.9236984  46.8539238  85.7339249
  64.6939163  46.1626854  86.2823944  27.6583767   5.9287295   2.0687056
  27.2346516   6.7152753   1.7251455  27.0574131   5.6070275   2.7407041
  55.2986488  48.0417595  87.6748123  55.0411224  47.1575050  87.9355850
  55.6750259  47.9338226  86.8013611  61.8367233  23.7715340  53.7958832
  62.7255325  24.1230793  53.7442627  61.3151207  24.3576298  53.2475624
  61.9690361   2.6270149  38.2285538  61.8568497   3.1104393  39.0470581
  61.3566895   1.8945144  38.2971573  47.2667809   4.3102670  14.1019621
  46.9220428   5.0467601  13.5970192  47.6327209   4.7109017  14.8905125
   7.7327271  39.0969124   0.3653685   8.4914360  38.7672653   0.8469563
   7.1193089  38.3622055   0.3528111  69.9127960  52.1640930  88.1155853
  70.5690689  52.2677879  87.4265366  70.2544022  51.4608383  88.6678238
  47.9240608  55.3518677  30.7560921  48.8806343  55.3308334  30.7836304
  47.7163887  55.6457558  29.8691120  81.3963013   1.7678353  70.8679199
  81.1771164   2.6992724  70.8431702  82.1098175   1.6728399  70.2369614
  34.8192062  51.6000938  22.3471546  35.7518044  51.7298126  22.1749153
  34.3850288  51.8879051  21.5441055  35.1839600  53.5347214  51.7063217
  35.1850281  53.0075302  52.5052567  34.8535538  54.3892097  51.9836578
  28.8813076   0.2046857  12.0082674  29.1492920  -0.6393675  11.6449614
  29.7039185   0.6515381  12.2079325  68.0151749  69.9915161  79.1544113
  67.5593491  70.4812088  78.4698257  67.3833084  69.3304138  79.4371262
   5.5866733  51.7135277  51.6060867   5.8695369  51.3218307  50.7797737
   5.0099306  51.0572929  51.9971809  22.6326141  46.9852104  85.8505478
  23.2189350  46.2302284  85.8009720  22.2326679  46.9213219  86.7178421
   3.0543232  30.5038738  57.8647270   2.1274686  30.2648544  57.8582916
   3.5177388  29.6667976  57.8368034  75.0683365  65.4433212   7.7412791
  75.4935150  65.6392746   8.5761814  75.6227417  64.7731247   7.3416495
  60.0514641  45.3188553  60.7737236  60.9092598  45.0223351  60.4695969
  60.2480125  45.9838715  61.4335365  76.6472778  50.4326515  81.0471268
  77.2887115  49.7237129  81.0940781  77.1126938  51.1992912  81.3816147
  13.5337181  17.1998997  29.1918888  13.0139875  16.4828663  28.8286057
  13.2453623  17.2674789  30.1021175  10.6793051  40.9841232   3.7139025
  11.5063591  40.6456337   4.0568867  10.6318722  41.8809929   4.0449657
  54.7275162  26.5559368  29.6381969  54.0874062  26.3600845  30.3224010
  54.4654274  26.0053959  28.9003315  16.6178493   6.5375752  33.6289597
  16.4604073   7.3321037  33.1188927  17.0290527   5.9335656  33.0106430
  55.9338379  15.1922636  81.1386185  56.1297035  16.0066319  81.6019516
  55.0476799  14.9640779  81.4194946  74.1017914   0.5592186  38.8749275
  73.2971649   1.0615557  38.7466431  73.8444977  -0.1629265  39.4481087
  32.0250664  42.9855385  30.8739147  32.6288261  43.5813789  31.3174000
  31.1654892  43.3932533  30.9794064  10.5831385  21.5739918   5.2785521
  10.4530125  21.0835266   4.4669223  10.0172586  22.3407307   5.1884093
  78.2595444  37.8301506  63.0433388  77.8674164  37.9886589  63.9020271
  78.9854431  38.4520607  62.9930382   4.8432260  30.7754135  17.2070923
   5.2503619  31.3831005  17.8244953   4.5392723  31.3310089  16.4893475
  71.1334915  61.7669334   3.7740278  70.8535690  61.6881714   4.6859865
  71.1128159  60.8705635   3.4388716  73.6323776  59.4415474  72.1757355
  73.6359634  58.4877892  72.0946884  74.4003143  59.6392555  72.7118454
  29.0912075  52.5980835  31.1179142  29.0610809  51.7618980  30.6530304
  29.8593884  53.0433693  30.7603550  58.0219460  10.9256124  50.1163979
  58.8929901  11.0620384  49.7437019  57.6248627  11.7965441  50.1223030
  14.4471025  55.3753052  32.9750786  14.0047541  55.5963936  32.1555214
  13.9095402  54.6819878  33.3579292  77.0839767  39.3695374   1.9102411
  76.5411224  40.0631790   1.5355282  77.9195480  39.7958641   2.1007543
  72.7422180  28.0423546  15.5116625  72.8401489  28.7759323  14.9046144
  71.9584045  27.5838947  15.2088680  38.6902351   2.2944670   7.4531093
  38.2749977   2.4332762   6.6019077  38.3588638   1.4454383   7.7456422
  53.6864891  66.9259872  30.4795780  54.4117012  67.5202026  30.2866821
  54.1078835  66.1349640  30.8156395  61.5847282   1.2864783  54.6603241
  61.9415245   0.4119401  54.5050468  61.8418808   1.7906102  53.8883400
  59.8804054  35.8479042  77.2411118  60.4233665  36.4762573  76.7650833
  59.3181229  35.4606590  76.5702133  74.6366501  33.7071228  78.7732086
  74.0476990  33.7279091  79.5274887  74.5353775  34.5676727  78.3664780
  84.9952850  63.1342468  70.8714981  85.4179153  62.7219391  71.6249008
  85.2579880  64.0532608  70.9227676  38.3822098  62.3499031  45.6761208
  37.5843925  62.8728065  45.7554588  38.0718994  61.4711685  45.4575691
  55.4589691  55.9203720  36.1635666  55.9279518  55.2838249  36.7031021
  56.1442490  56.3554573  35.6562958  86.4579315  69.7693939  17.0745087
  86.0944138  69.1992798  16.3969688  85.7025604  70.0225906  17.6051083
  11.1473179  43.9336586   6.3631382  11.9258032  43.4365501   6.6142883
  11.1200762  43.8698616   5.4084554  64.5569687  30.4879475  17.7937965
  63.9391136  31.2033005  17.6429539  64.4160538  29.8908253  17.0590725
  69.3390427  39.2833481  68.8640823  70.2356339  39.1879539  68.5427628
  68.7917023  39.1475487  68.0906448  19.7878857  31.5688190  19.1854324
  19.7176228  31.3774014  20.1206627  19.1043282  31.0354996  18.7797832
  74.2693253  53.9012833  33.8025017  74.1979446  53.0149269  33.4482307
  74.1907806  53.7876816  34.7496872  21.5907516  70.7653122  19.6453896
  21.2783661  71.6286926  19.9159794  22.5448551  70.8413773  19.6568890
  31.3622246  13.6623497  14.0114317  30.6026230  13.5967941  14.5901709
  31.7644329  12.7943974  14.0448809  82.6079865  27.1342220  52.1860237
  83.5251999  27.1032238  52.4580307  82.6126709  26.7995834  51.2892380
   0.4496967  69.7189865  55.3880005   0.6027057  69.7540894  56.3322411
   0.4134643  68.7840805  55.1858253  40.2636185  55.5224762  59.3130569
  39.8410759  55.0607224  58.5888519  41.1952591  55.5105286  59.0936737
  48.2766304  18.3089905  51.4687729  49.1349831  18.3647766  51.0488281
  48.0526199  19.2159424  51.6773148  74.0403442  38.7116661  43.7575111
  73.5108948  38.4924507  42.9907875  74.6990356  38.0184402  43.7998772
  73.5812454  24.6412468  14.3634882  72.9232407  25.2649097  14.6705828
  74.0293961  25.0972385  13.6511211  79.9054108  13.2527571  31.7898922
  79.3562775  13.9372883  32.1721268  80.7859497  13.4437981  32.1129837
  64.1793137  29.8990154  88.6699600  63.8903427  29.4685287  89.4745865
  63.9892311  30.8262100  88.8128357  65.3402405  21.6788597   3.2110174
  64.7465744  22.4013710   3.0066395  64.7859650  21.0278473   3.6413562
  59.6588707  71.3077469  74.1124420  60.3349876  70.6758575  74.3570023
  59.1145134  70.8423233  73.4773941  53.7253036  60.2357216   9.8344049
  52.9708595  59.7978401   9.4403210  54.4501839  59.6233292   9.7088871
  82.8428497  24.9519062  41.6418381  83.5211334  25.0749340  42.3059387
  83.1409988  25.4721470  40.8957253  75.6252670  16.9687595   6.9194412
  74.6733475  17.0609875   6.9590955  75.8980179  16.9046040   7.8347125
  32.1318321  26.5878582  87.2948837  32.7609558  26.4135208  87.9949112
  31.2763901  26.4523716  87.7024307  23.5189266   4.4095125  17.0344772
  23.5133972   3.8170261  16.2827053  24.2376556   4.0943737  17.5825176
  78.6943207  39.6934967  41.1459274  78.3721466  39.8405647  42.0351982
  79.2954941  38.9532013  41.2283516  45.3827133  19.1660595  51.2050781
  44.9964905  18.3379097  50.9200668  46.2709503  18.9350815  51.4769516
  40.7569733  48.8884659  64.2169266  40.3255730  48.5144730  63.4486427
  40.7958908  48.1669388  64.8447113  62.3371353  39.1535873  41.9266357
  62.7343864  38.2950325  42.0726166  62.8185806  39.7422256  42.5079651
  54.8119812   9.2990465  36.7201195  54.0226898   8.9281616  36.3255386
  55.3583412   8.5395079  36.9221687  20.5795097  11.1208487   8.2311573
  21.1823101  11.8623705   8.2860136  20.5697060  10.8883286   7.3026805
  43.4509087  46.6358490  71.7880478  43.1371155  47.4511909  72.1791763
  44.1843338  46.9027634  71.2339020  32.7886543  68.5666580  16.5746632
  33.5202789  68.2360535  16.0534573  33.0854721  68.4877167  17.4812508
  29.5799103  54.1143112  37.1142807  30.2524357  54.1988754  36.4384193
  30.0416584  54.2875862  37.9346428   7.7141829  36.1033516   4.3921328
   8.3319044  36.7506447   4.0520396   7.2865930  35.7478676   3.6130121
   7.4532933  45.4355621  46.5811653   8.1786318  45.9030991  46.9953232
   7.1564994  46.0220451  45.8853302  77.8562622  64.7741241  13.1390371
  78.2670441  64.6061249  13.9871330  78.4619064  65.3657990  12.6925659
  23.3639774  13.7111120  77.6773376  22.5303650  14.0523634  78.0011673
  23.9213295  13.6636953  78.4540863   0.9587711   8.4090519  32.4918785
   0.4307096   8.1672792  33.2527504   1.6886520   8.9098015  32.8562317
  32.3860626  26.5375690  74.5782776  32.7023201  25.7851295  74.0782242
  31.5949478  26.2202950  75.0138245  80.4966812  24.0582867  51.6171227
  80.7961578  24.0477161  50.7080383  79.6072235  23.7065144  51.5803871
   1.6725352  53.4243622  56.9131927   1.5895720  54.0185776  56.1673660
   1.7979356  54.0015030  57.6664581   6.4359188  43.7795944  35.4370003
   7.3821239  43.8858566  35.3388405   6.2471433  42.9316711  35.0349770
  24.4061432  16.4865284  20.8187790  24.5438690  17.2603970  20.2725258
  23.6068039  16.6786213  21.3090744   0.9259547  25.8452930  37.3825302
   0.2661521  25.5864315  36.7391930   1.7603911  25.7397041  36.9255867
  81.2304306  38.4748154  16.3775387  81.2748032  38.7372589  17.2969875
  81.6570358  37.6183167  16.3520794  64.1305618  40.0025253  81.6988678
  64.6552887  39.4528885  82.2809296  63.8596458  40.7400169  82.2456207
  40.6984749  61.6983490  74.2836533  40.9551201  62.4203072  73.7099457
  41.4104424  61.0636520  74.2030487  10.8852262  37.3983078  20.4275875
  11.5256157  37.8791199  20.9519463  11.3563251  37.1670494  19.6270771
  81.6250458  16.1004887  24.8998451  82.4557953  16.5737000  24.8532505
  81.1858978  16.3056850  24.0744534  77.6007156  57.8625412   4.7428384
  78.1696930  57.3502045   5.3173070  76.8228455  58.0393600   5.2718801
  53.1141548  29.6256771  88.5728683  52.4640884  29.9620380  87.9560165
  52.6759758  29.6568775  89.4233170  29.7880096  23.0350475   2.2615232
  28.9944344  23.4228058   1.8925875  29.9317017  22.2438545   1.7422950
  64.5981369  61.1182022  69.9602127  64.9589233  61.8987617  69.5397491
  65.2582855  60.8674393  70.6063995  52.9897575  56.8250580  19.1071701
  53.5699196  57.5825348  19.0304947  53.4814911  56.1056709  18.7110481
  35.3428764  12.2869768  28.2928009  35.9300995  12.4499626  29.0309296
  35.9137306  12.3025780  27.5246105  42.1528435  64.2812042   3.8416967
  42.7133560  64.1998978   3.0700440  42.3119164  63.4788818   4.3388882
  70.2177048  57.2090950  59.9424820  70.0033569  56.9730110  60.8450089
  69.4307404  57.6450691  59.6156044  47.9667244  46.1017838  60.1686478
  47.2419853  45.9873199  60.7833672  47.9080315  45.3449440  59.5855675
  67.5160370  31.8085480  35.4055519  67.9398575  32.6244202  35.6719360
  66.9699402  32.0549698  34.6590347  40.1118813  51.6058693  16.0230980
  40.2559280  51.3560486  16.9358273  39.9024239  50.7836952  15.5799379
  45.4969406  33.6258278  49.4068260  45.9474487  32.9093704  48.9596519
  44.7158699  33.2199593  49.7828941  57.2174683  20.8534718  19.5043755
  56.2774544  20.9751816  19.3709698  57.5403023  20.5379868  18.6602917
  73.3108521  34.7111549  44.6841164  74.0169067  34.9530334  45.2834549
  72.5639877  35.2377510  44.9689217  77.3093948  56.8591309  22.4782372
  76.9926376  56.9683914  23.3748741  76.7072144  56.2262802  22.0869350
  15.8113356  59.8911896  33.1608810  15.6461067  59.1262932  33.7121201
  16.5411358  59.6289024  32.5997810  68.4132309  44.2038803  61.1602745
  68.5641022  43.6346245  60.4056778  67.4743729  44.1305008  61.3317299
  55.9234848  19.5465317  88.2169724  55.5973129  18.9277000  88.8703384
  55.2807045  19.5080490  87.5087433  34.7698975  21.8608456  13.6162043
  35.0085030  21.1180630  14.1707983  35.6065903  22.2041435  13.3026390
  39.8232841  30.4639893  76.2016983  40.7443390  30.6009293  76.4233627
  39.8378716  30.1616058  75.2936325   3.5340993  67.5828705  74.3055344
   2.8747122  67.8230591  74.9564896   3.7524152  66.6735992  74.5099869
  61.1458664  31.8085384  36.4514046  61.1668549  32.3845024  35.6871643
  60.5400276  32.2359047  37.0568352  41.0998764  71.6059265  29.6045284
  40.2509460  71.1643906  29.6290264  41.0521011  72.1743698  28.8358803
  83.4315186  10.2132654  31.8611259  82.5923004  10.5070467  31.5066719
  84.0160370  10.9622955  31.7448215   3.8460855   1.7805324  38.4691429
   3.8905182   2.4726152  39.1288986   3.1110034   1.2331717  38.7453346
  38.6524162  48.3964729  28.3033524  39.5477028  48.1818771  28.0413532
  38.4831314  47.8349648  29.0598450   7.6824570   4.4147310  21.3335838
   7.6452265   3.4726224  21.4987431   7.4971600   4.8143802  22.1833935
  79.7045822  60.1058617  69.6437073  80.5991135  60.2667427  69.3434372
  79.2105713  60.8691711  69.3444748  19.5341072  54.0839691  56.7098083
  18.6225567  54.1843147  56.9841042  19.4864578  53.5701485  55.9036102
  34.5775642   1.2591201  18.4753418  34.7566185   0.6414498  19.1843224
  34.9535446   0.8466654  17.6976852  58.7847595  49.9017525  77.5006485
  58.4166870  49.0342445  77.3327789  59.5648842  49.9420738  76.9474640
  20.6820488   9.6644020  83.6390152  21.3218155   9.1608849  84.1424026
  19.9296169   9.0788450  83.5541534   5.6401429  51.9944153  86.3647232
   4.9711518  52.1960640  87.0189590   5.1463075  51.8150215  85.5646133
  57.0840607  52.8287621  37.2496948  56.5192375  52.0587692  37.3154182
  57.9628258  52.4977303  37.4352264  12.9371920  23.5507412  11.2385750
  13.1183453  22.7802010  11.7767992  13.2528057  24.2877388  11.7615013
  17.5564709  49.4736900  26.6087284  18.1286697  48.7085533  26.5505161
  17.1217976  49.3837357  27.4567852   2.5558026  28.4387951  44.3332329
   2.2028844  29.3042679  44.1267509   2.3009195  27.8925648  43.5896568
  36.9416733  56.6944618  72.4080429  37.4040527  57.3161621  72.9701080
  37.4673576  56.6571426  71.6089783  55.0969963  70.4848022  78.3089828
  55.9922409  70.2409210  78.0738373  54.6229134  70.4863510  77.4774323
  24.2228527   4.0616121  30.5701866  24.3850327   4.4404345  31.4341450
  23.3302994   4.3315244  30.3540230  66.8360596  42.6002808  16.4345837
  67.2375336  42.4243393  15.5836449  66.0701141  43.1372643  16.2316055
  48.7962151  60.0985260  79.5898819  48.0969772  59.6909065  80.1009064
  49.1275330  60.7982674  80.1527557  75.7942810  43.5614243  33.7933235
  75.3143005  43.1969910  33.0496559  76.0511627  44.4377251  33.5063782
  28.3757401  26.8323154  16.1468849  27.5857277  26.9607391  15.6218891
  28.7241211  27.7145901  16.2751560  46.8551865  53.3504753  44.1442413
  46.4059410  52.9030724  44.8613472  46.5293198  52.9217339  43.3529015
  50.1870651  59.7833099  77.3953705  49.6790733  59.7777786  78.2066269
  49.5689125  59.4951859  76.7237320  40.7172966  43.9733543  48.1955452
  41.2374458  44.7201767  48.4920807  39.8508873  44.1189499  48.5755005
   9.5820503  56.0098610  31.4087276   9.9760904  56.1970673  30.5567188
   9.1474457  55.1651459  31.2912102  15.0499592  40.3136520  69.0645294
  15.7498484  40.3526421  68.4127121  14.6589298  39.4482346  68.9446182
  59.2375870  45.7984467  76.2295074  58.8403397  46.6191177  75.9380951
  58.5260887  45.1595535  76.1869049  42.0103340  42.8260193  79.1333237
  42.5186539  43.6362076  79.1712799  41.1407166  43.0739479  79.4472122
  62.1372108  51.3524704  84.6089172  61.3110733  51.2232208  84.1430588
  62.1250839  50.6953850  85.3048477  24.9762974   1.8984207  85.8840866
  24.5396538   2.6308126  85.4491425  24.3623829   1.1689497  85.7991714
  70.9090118  36.0346985  61.5127182  71.7927017  35.8033257  61.7987099
  70.7047577  35.3983955  60.8274155  50.4701347  68.7981262  83.3598099
  50.3735504  69.0462189  82.4403763  49.8816681  68.0511856  83.4694366
  15.7847672  27.9678860  84.7670441  14.9891691  28.1007996  85.2823944
  16.2952995  27.3359966  85.2733078  32.3343086  33.4641151  83.8054886
  33.0079308  33.1306267  84.3981552  32.3424339  32.8553314  83.0668716
  82.9549255  27.0519886  63.2176170  82.0943298  27.3592186  63.5026016
  83.3717804  26.7315102  64.0174637  26.4331684  57.3237343  17.5204258
  26.6082230  56.8195343  16.7258377  25.6992111  57.8919792  17.2866821
   3.2581842  63.7017708  52.2333374   3.3790359  63.2999496  51.3730087
   4.0269718  64.2606277  52.3467941  37.3771019  37.8395386  86.2501144
  38.1458015  38.1088257  86.7529297  37.0474625  38.6508255  85.8636169
  53.4306602  39.8228760  55.9218864  54.0391846  40.3982582  55.4583473
  53.2631874  40.2699242  56.7515411  65.9064865  55.7653770  68.2848892
  65.8972702  56.1403732  67.4042511  66.7723770  55.9841232  68.6293106
  62.6136017   2.6310935  52.4418831  62.7060814   3.2612031  51.7272911
  63.0077934   1.8267353  52.1044617  56.8365173   4.5386677  35.2087708
  57.7426529   4.7943282  35.0361824  56.7159538   3.7315421  34.7085266
  52.9640808  33.8219528  73.5545349  53.3630905  33.6517792  74.4078064
  52.5894852  32.9807396  73.2932510  32.9851952   6.8618717  72.6393585
  32.1814461   6.3424211  72.6196213  33.4091873   6.6790400  71.8008881
  16.7071419  65.3711014  22.3879967  16.3242550  64.7295456  21.7896366
  17.6117687  65.4664688  22.0900249  62.4896927  24.3572578  39.6054535
  62.7098618  24.5035305  38.6854744  62.9492760  25.0531540  40.0752869
  77.8573608  60.7802124  32.6800842  77.1371384  61.2055779  33.1454697
  77.7869644  61.1044044  31.7822094  81.1382980  68.3029633  21.0092678
  81.2459412  67.3853760  21.2596169  80.2352066  68.5119934  21.2479610
  61.5639114  13.0751514   8.2101784  61.8986893  12.6187639   8.9821014
  60.6250305  12.8887758   8.2101755  64.9617157  40.9570999  87.8948746
  64.2238541  40.6251373  87.3834229  65.7289886  40.5311050  87.5126953
  83.0905457  40.9382744  39.9387131  83.4400482  41.3369789  39.1417732
  82.1423187  41.0458908  39.8643837  33.1440697  26.8655586  78.0487442
  32.4006271  27.3706970  77.7195740  33.7863159  26.8948135  77.3395920
  10.0546236  64.0347672  77.6583405   9.1355038  63.9765625  77.3974533
  10.3208485  63.1265907  77.8017960  66.9885712  56.9078064   7.9366903
  66.5868607  56.1580696   8.3757315  66.7594528  56.7960663   7.0140572
  66.3231201  52.4349556  73.9833221  66.4251099  51.9361267  73.1727676
  65.5226822  52.0891724  74.3782501   4.2941999  41.0834808   7.1118736
   3.5223660  40.9569244   7.6636782   4.2968974  40.3261566   6.5264816
  13.0478125  52.5699615  17.3331165  12.7749176  53.3386955  17.8339252
  12.2662354  52.3129845  16.8439007  26.0266895   8.1928434  34.5161324
  25.6736012   7.4135036  34.9453087  26.2702103   8.7736425  35.2369690
  78.7746811  27.4578476  63.9473419  78.6329880  26.5139370  64.0193558
  79.6860733  27.5840549  64.2112885  43.3347130  45.3928261  79.0990601
  42.8642273  46.2178764  79.2180786  44.2431526  45.6546021  78.9492416
  73.8920517  18.3709984  84.2097015  74.3799744  19.1212540  83.8701706
  74.0735626  18.3727074  85.1495361  44.7833214  68.7241898  85.0157394
  44.8620262  68.3616943  84.1333313  45.2230988  68.0856628  85.5770874
  85.2971649   7.0531197  40.3117828  84.6548462   7.7568731  40.2202072
  84.7844467   6.2963400  40.5957489  43.0839386   1.3934188  17.7227383
  43.7099724   1.8032707  18.3196754  43.0003929   2.0149302  16.9995689
  84.3126450  67.5373840  10.2116489  84.0475845  68.3095093  10.7114458
  85.0624695  67.1867294  10.6923180  15.4225540  38.6031418  12.5589809
  14.6199560  38.0930519  12.6679668  15.2664080  39.1309624  11.7758751
  70.3474655  60.7637253  60.4253120  69.9116211  61.2538185  61.1225052
  69.7047195  60.1075745  60.1559105  80.1237488  58.9624481  29.5566616
  79.7000351  59.7419548  29.9159241  81.0589752  59.1135902  29.6935825
  61.2490654  36.4478760   6.2113423  60.7738266  36.5990410   5.3943167
  61.6725464  35.5982971   6.0884347  34.5670471  69.4929047  11.8670301
  34.6554680  69.4944916  12.8201361  33.6377106  69.3231049  11.7129850
   9.4865007  61.4164391  62.5735130   9.6882353  61.5104904  61.6425514
   8.6165781  61.0174904  62.5909615  74.8659668  51.2899666  83.5122452
  73.9385223  51.5179634  83.4481964  75.0386581  50.7669678  82.7293777
  48.5940475  46.9228516  87.5082169  47.9627037  46.2611732  87.7907333
  48.5319786  46.9207191  86.5530319  24.6538467  32.7332077  17.7916718
  24.6559029  32.0436172  18.4555187  24.7004471  33.5477333  18.2922821
  16.7504940   5.8382616  62.9245529  16.5628071   4.9209328  63.1233330
  17.6732521   5.8442612  62.6701622  70.3671188  25.1607037  85.0240860
  69.9045410  25.2190781  84.1881180  70.3091583  24.2363567  85.2658615
  22.2666378  21.2971535  64.4252701  21.7839012  21.7971668  63.7671013
  22.7172546  20.6162090  63.9257774   8.8644266   8.0790100  58.9341888
   9.2170830   7.6514106  58.1537895   7.9522071   7.7916665  58.9731789
  58.3690681  17.1992855  37.4400749  59.3199539  17.2871704  37.5058136
  58.2349243  16.3381824  37.0441704  56.1841888  21.6468372  82.2562332
  55.6484184  21.8542194  81.4906082  56.7521133  22.4096565  82.3648682
  30.9218349  12.7170811  81.4123611  30.4123440  12.8158741  80.6080627
  30.2652493  12.5997496  82.0989151  13.2614584  37.0748024  87.1994171
  13.7820139  36.2733841  87.2540512  13.0932713  37.3137703  88.1109161
  44.1027908  22.3398151  11.3608475  44.7065315  23.0346870  11.0983906
  43.8188248  22.5888157  12.2403898  17.2802963  29.7100334  10.4974594
  17.4490318  29.4754429   9.5849199  17.7910328  30.5072632  10.6381845
  57.3208466   5.4861693  14.0059795  56.3705444   5.4083505  13.9217119
  57.5773582   6.0714860  13.2933512  43.1206932  50.6268387  37.5339813
  42.6887207  51.4498711  37.7625618  42.4841843  50.1660080  36.9874229
  60.0481453  13.6281662  82.9854660  60.8151627  13.3478651  83.4848175
  59.3349342  13.6317101  83.6238632  83.1133728  36.1548615  63.4361115
  83.0151978  37.0581856  63.7371140  83.7143173  35.7565651  64.0657654
   8.3121462  35.7474709  29.6443844   9.1704712  36.0898209  29.8939972
   8.3566256  34.8143044  29.8528290  12.4539185  59.0961304  57.1690941
  11.9406939  58.5045776  57.7194519  13.3575039  58.9685822  57.4580498
  85.0194016  12.6240244  54.1583176  84.1598434  12.8606176  53.8098717
  85.4713135  12.2121744  53.4218483  51.3618584  60.1335907  40.0497704
  51.2214508  59.2682190  39.6655159  50.7555466  60.1683617  40.7896423
  61.7295189   4.9069200  53.8023491  62.0455780   5.0502715  54.6944199
  62.1480713   4.0909033  53.5281906  77.3567276  69.6774521  19.6026363
  77.5860748  70.5155945  19.2012024  76.8352890  69.9139938  20.3696995
  36.6007919  37.5830460  17.8771191  36.0939903  38.0548401  18.5380230
  36.6527367  36.6869926  18.2097225  20.5898399   4.9579220  49.5340843
  21.3712692   4.7497101  49.0219803  20.8781147   4.9004178  50.4450302
   9.9424610   7.5108223  20.0185738   9.9658823   6.9943085  20.8241158
   9.7075996   8.3929815  20.3064384   8.7619190   9.0058012   0.7650226
   8.4819784   8.2659588   0.2260436   9.0444002   9.6681967   0.1344128
   4.2880826  64.6974564  67.8226852   3.6054149  65.3273087  67.5914154
   3.8133206  63.8876839  68.0100479  26.5679150   5.9055314  75.0053864
  27.4769745   5.9121833  74.7057190  26.3360100   4.9777522  75.0463409
  60.7727318   3.2702622   6.0053186  61.1742592   2.6582601   5.3885040
  59.9093323   2.8978627   6.1844482  80.9162521  17.6703701  54.9427452
  81.7651825  17.5589886  55.3706894  80.3037338  17.8239975  55.6620865
  86.2550278  25.3218212   5.9013782  85.3172302  25.1307945   5.9180918
  86.4117813  25.8224850   6.7020011  60.4559975  12.1157751  36.6915703
  60.1812477  12.7211123  37.3802719  59.6454887  11.6943111  36.4057846
  49.2331161  39.0275803  62.8517036  50.1227112  39.0133171  62.4986458
  49.2116089  38.3024521  63.4761696  33.6100273  52.2282867   2.8236926
  33.2632523  52.4164581   1.9515859  34.5600395  52.2843704   2.7209198
   3.6108544  51.7995377  55.9909592   2.8334787  52.3334465  56.1548500
   3.2693357  50.9884415  55.6144981   8.6769114  64.7065887  39.2604637
   8.9065781  65.0139313  40.1374054   9.4620943  64.8672256  38.7370949
  43.3569298  20.7394600  50.8272743  42.9987984  20.3272076  50.0411301
  44.1281013  20.2149239  51.0426559   8.0707264  58.5484657  16.7732086
   7.3669968  58.7805367  16.1672897   8.6622162  58.0023193  16.2554283
   8.2010727   4.7981176  16.6433277   7.8722100   5.0504537  17.5061188
   8.7866459   4.0609722  16.8163948  18.4017925  17.9093685  15.4628344
  18.4179554  17.0316124  15.8443003  18.3943443  18.4983292  16.2173557
  53.3165245   9.5264740  18.6028366  53.1484032   8.5845146  18.6289082
  53.9418144   9.6778774  19.3115826  69.8802643   1.7964594  19.3185101
  70.2937088   2.6579151  19.3749771  69.0525360   1.8967664  19.7886639
  85.7342377  55.3735123  11.2521830  84.9354172  55.2290535  11.7593851
  86.4446106  55.2156372  11.8740139  31.1802425  33.8893204  88.7535477
  31.0833511  34.7800369  88.4166946  31.8040123  33.9725533  89.4748077
  37.5109901  18.7578526   1.9760166  37.6111069  18.1604309   1.2348709
  37.6089554  18.2003880   2.7479420  76.4667664  45.4141541  15.9850292
  76.5271912  45.4919930  15.0329151  76.7061539  44.5053558  16.1667156
  27.1994095   4.6188126  19.3029556  27.2569847   3.9785607  18.5937347
  27.0618553   5.4558272  18.8594284   9.3496742  66.0440369  50.4642792
   9.8555899  65.3896561  50.9460106   9.3067808  65.7034454  49.5707550
   5.6099396   7.4793172  73.5706635   4.6570311   7.5633502  73.5369720
   5.8635426   7.2667356  72.6724854  61.3796577  60.5457268  26.2335510
  60.5989952  60.1364212  25.8603630  61.1449585  61.4690781  26.3261261
  11.7599840  70.5873032   0.6838275  12.1656160  71.1772156   1.3192004
  11.7056437  71.1027679  -0.1208927  49.8088493  43.0044899  80.9755554
  49.8213158  42.5386353  80.1394577  50.7230415  43.0121002  81.2591553
  43.3110542  34.1262245  27.2495136  43.5646286  35.0172539  27.4903336
  42.3954849  34.2021065  26.9808064  73.7027130  71.4708328  83.6938705
  72.8011627  71.6563568  83.4311752  73.8764801  70.5941544  83.3511200
  43.8041534  24.4936333   0.5419096  44.3515739  23.7724113   0.8523980
  43.3696251  24.1463451  -0.2370674  47.7409706  62.5119629  63.7465401
  47.2684021  63.2766380  63.4176254  47.9704666  62.0159569  62.9607048
  17.9155483  64.6116867   6.3799829  17.8300133  63.7865562   5.9024105
  17.0673542  64.7300034   6.8075347  48.3638420  61.4807587  31.9426823
  47.8716164  62.2635269  31.6952572  49.1965752  61.5647049  31.4782028
  66.3021851  29.3631153  53.0893021  65.7954636  30.0688972  52.6876335
  66.3093338  29.5746784  54.0228004  69.3435822  24.8035965   5.5317454
  69.9548950  24.0799389   5.6690187  69.0907898  24.7322578   4.6112885
  38.8716507   2.1396863  27.7967777  38.7595978   3.0485964  27.5182838
  38.1084328   1.6844025  27.4411831  14.2771540  52.9732971  62.6850128
  14.3796959  53.2768631  63.5869904  13.4803200  52.4431381  62.6998558
  14.5969915  21.4605122   1.1427822  14.1764135  20.6009083   1.1221375
  13.9089775  22.0567417   1.4383806  44.6651649  36.3466606  77.1704330
  45.4880638  35.8625488  77.2390442  44.0394440  35.7081490  76.8283691
  74.8895187  71.3430634  29.7386150  75.3156967  70.6212997  30.2008514
  75.4230194  72.1097488  29.9479046  73.9740982  11.9461584  32.5261841
  73.7918243  11.3163109  31.8288326  74.8620758  11.7343979  32.8140984
  28.4769688  38.0496979  12.3359690  28.2117214  37.1846352  12.6482830
  28.3569183  38.0089951  11.3872004  80.2427216  44.4632301  47.6473885
  80.5897827  43.5796318  47.5247841  79.2996674  44.3710976  47.5117760
  19.2156773  39.8203697  14.4052725  19.2566128  40.5918312  13.8401146
  19.4013596  40.1558456  15.2823181  69.5993195  35.9499016  87.5695114
  69.8783035  36.7867050  87.9412079  70.1708603  35.3022079  87.9818954
  73.9061584   2.4317930  85.2405396  73.5016632   2.1016278  86.0427933
  74.0809784   1.6476315  84.7201996  60.8940163  25.3530426  71.9328766
  61.2367287  25.3420887  71.0391998  60.3217049  24.5871887  71.9793320
  16.1231842  60.3253708   3.2264137  15.1934557  60.3167877   3.4539273
  16.3148651  59.4238548   2.9680319   0.3487440  26.8240833  66.3921585
   0.7702216  26.6949482  65.5425034   0.1796794  25.9381618  66.7127686
  67.7970200  38.4980125  15.4626093  67.1914597  37.9587708  14.9539385
  67.3383560  39.3303490  15.5769796  64.0349884  35.8816071   1.5034305
  63.2970924  36.4069481   1.8128730  64.6035843  36.5078049   1.0553162
  42.0271683  38.2434425  85.6682968  42.6095200  38.7208557  86.2592010
  41.4113350  37.7960739  86.2486801  75.0678101  68.2986374  64.3281403
  75.7377243  67.6415787  64.1391220  75.4639282  68.8595963  64.9949493
  57.2408485  14.0268660  25.4722557  58.1076393  13.6298571  25.5576534
  56.6357803  13.3471251  25.7690296  34.2389793  41.5409851  69.5317917
  33.2974396  41.3719025  69.4979706  34.5365143  41.4204407  68.6300278
  22.9549904  60.9761124  21.9137173  22.1387463  60.7291756  22.3484612
  23.5767231  61.1091309  22.6292496  53.4627342  44.2455826  68.7890091
  52.9674530  43.4646950  68.5417404  53.2780495  44.3611679  69.7210846
   9.8394451  31.0708160  30.9458370   9.9278498  31.0846481  29.9928284
   9.8741179  30.1423817  31.1761417  52.8254776  37.3779564   6.7029948
  52.4419022  37.4753571   5.8314352  53.6476097  36.9115257   6.5520954
   8.7767220  57.1517143  43.4325256   8.2925949  57.3492851  42.6307640
   9.4410229  57.8387413  43.4866447   9.5156956   4.9786057   0.9656503
   8.8910408   5.3700504   0.3550692   9.9056559   5.7249961   1.4206932
  30.3777637  70.0492020  32.7438889  29.4724102  69.7984467  32.9274330
  30.8683014  69.7538452  33.5109406  14.9362078  12.7358913  85.6340408
  14.4051590  13.1058216  86.3392868  15.8214531  13.0559263  85.8076782
  16.8679790  61.7543030  73.4268723  17.5533619  61.2472725  73.8620834
  16.7073307  61.2860909  72.6076050  84.6688843  45.0265121  36.4872208
  85.4496384  44.9030533  35.9474030  85.0019989  45.3757210  37.3138542
  58.7846642  71.5349884  80.3672791  59.4382057  70.8564987  80.1976547
  59.2943153  72.2908249  80.6591644  78.2186050  42.8203011  88.3952942
  78.4153519  42.4147110  87.5508881  77.3301086  42.5288010  88.5998001
  64.2991409   7.3764653  71.0417709  64.1726456   7.9906421  71.7649689
  65.0907516   7.6852045  70.6010208  30.7190971  43.7041969  68.9481430
  30.9563122  44.6269646  69.0401306  29.8192406  43.7195702  68.6221695
  19.5911293  58.4741592  86.1091843  19.5880146  57.9084206  86.8812943
  20.1600838  58.0240479  85.4847488  46.2446213  66.1268387  86.2368622
  45.4071388  65.6782303  86.1202393  46.8687973  65.6032944  85.7343292
  38.1601334  63.5071411  64.4876022  38.6237602  64.1413803  65.0344391
  37.2452660  63.7868195  64.5196304  69.7163010  17.1482964  56.9249611
  69.0505142  17.8344269  56.9716682  69.6126633  16.6580715  57.7405396
  25.6723309  39.1795464  16.3265228  26.5519924  39.0638580  15.9672947
  25.1196232  39.3361015  15.5608625   8.3355341  39.6714668   6.4284935
   8.0516195  38.8471718   6.8236690   7.8013105  40.3395348   6.8580523
  58.1138000   8.5193377  38.7959900  58.9578094   8.0678339  38.8010826
  57.6455269   8.1433458  38.0506172   8.3504887  60.2400017  10.7701931
   7.6899352  59.5476265  10.7929916   9.0822315  59.8570747  10.2862988
  13.2339182  69.0874252  17.4975109  12.7762814  68.5416794  16.8580112
  13.9918690  69.4283752  17.0226440  81.7845001  13.9207935  76.8119278
  80.9600754  14.2671490  76.4704819  82.4609680  14.4375935  76.3742752
  11.0299082  53.0565071  48.2380791  10.6888180  53.2627907  47.3678284
  10.6528940  53.7266693  48.8081436  79.5463562  33.1184540   0.3365463
  80.5001831  33.1471291   0.2616022  79.3013687  34.0008049   0.6152338
  51.9264488   4.4997807  10.7139406  51.6151543   4.1479259   9.8799591
  51.9942894   3.7353547  11.2860270   4.2949958  18.3758755  66.9371719
   3.6712029  17.6699562  67.1068573   5.0218091  18.2021732  67.5353394
  73.1589279  54.5795097  85.1288986  72.3745346  54.7262878  84.6003036
  73.2316055  55.3639603  85.6725845  14.3348608  45.7904663   0.0175339
  14.0579615  45.6217041   0.9181325  14.0828485  45.0015221  -0.4623534
  70.0748291  43.4998283  67.7404633  69.3336563  43.0333862  67.3540344
  69.8905334  43.5060387  68.6797333  59.2378387  10.3583612  84.6066284
  59.1126289  11.1191998  85.1737976  58.4672432  10.3534822  84.0388336
  12.0534830  54.6416550   8.4255981  12.1251078  55.0297165   9.2976694
  11.8012257  55.3707314   7.8589911  64.4147415  45.3868637  83.3408661
  65.0212631  44.7380333  82.9839554  64.7819824  45.6135025  84.1952667
  28.9835110  28.1331768  84.1671600  28.8796043  28.6828270  84.9439011
  28.7378712  28.7013741  83.4370651  69.9029617  39.9445496  21.3141270
  70.7307663  39.4940948  21.4816151  69.2619171  39.4733391  21.8463478
  71.4872513   3.5576289  80.9841614  72.1947556   3.9935141  80.5091095
  71.5107193   3.9464829  81.8585052  54.5389748  56.6049042  59.8227005
  55.2374115  56.6736107  60.4736252  54.1867828  55.7228165  59.9414978
  77.7866898   6.5952768  30.1293259  78.1827240   7.4308200  29.8818188
  78.5086975   6.0889387  30.5015583  59.2882309  43.7527428  32.4073219
  60.0707779  43.7423820  32.9584503  59.0619354  44.6795959  32.3300819
  70.6725388  22.3720150  85.0729523  70.8814316  21.7001896  84.4239120
  71.3893127  22.3249302  85.7056046  24.8734131   6.9752526   9.9983463
  25.4774189   7.4477186  10.5712185  25.2443371   6.0952806   9.9328070
  45.7390556  16.5640507  87.0767288  45.5289612  15.7032900  86.7145386
  44.8959122  16.9161720  87.3619537   4.0833778  69.7947235   3.1643512
   3.2938573  69.7810211   2.6233323   3.8107309  70.2243347   3.9751089
  38.8046303  21.5588379  72.6835556  38.1378403  21.0707436  72.2004623
  38.4557343  22.4483356  72.7409821  23.0388374  52.3610878  84.3316345
  22.6777458  51.9993896  83.5223007  23.0958214  51.6116753  84.9243927
  77.9290009  25.5512505  83.2624741  77.5069733  25.7980213  84.0854187
  78.8029022  25.2576942  83.5200729  58.1969528  12.6633148  45.1411362
  58.0749893  13.6126900  45.1478004  58.6672325  12.4879675  44.3260765
  61.2540550  17.6179752   1.2912339  61.3628159  18.4517651   0.8338525
  60.3863258  17.3116474   1.0277193  24.2585545  10.1532888  85.4410095
  23.4468384  10.3827600  84.9885788  24.6627274  10.9954863  85.6497650
  83.8277512  41.3269157   4.6313157  82.8821487  41.4016991   4.7596607
  84.0292206  41.9720383   3.9534817  12.1407318  48.4222221  89.1571045
  12.9072895  48.5577965  89.7140961  12.4525642  48.6073952  88.2712708
  86.8029709  32.3381729  68.8057175  87.1558685  31.6983604  69.4240570
  85.9352570  32.0016556  68.5819626  25.2788181  48.8701057  12.7600756
  25.3828011  48.1229782  12.1708231  24.4291458  48.7292862  13.1777582
  54.0009727  18.1514587  48.7280388  53.4572296  17.5728111  48.1934891
  53.8136292  19.0297432  48.3967514  26.6284733  29.6184025   5.2109675
  26.3639870  30.0386391   4.3926287  25.8206234  29.5570717   5.7207227
  48.3340416  11.4818850  21.3822670  48.8397026  10.7316294  21.0697689
  48.9854851  12.0629673  21.7749462  77.0292587   3.1815422  15.0794277
  76.1023102   3.0896633  14.8590584  77.3977127   2.3102818  14.9332066
  58.1136169   1.9590331  73.5350037  58.4796753   1.4111681  72.8406906
  58.3989525   1.5395005  74.3466721  31.3410625  49.6376190  46.8139000
  30.8513412  49.2254944  47.5256310  31.3844872  50.5623779  47.0571404
  81.8992996  10.7257471  52.8793716  82.6335602  10.1800089  53.1609001
  81.8771439  10.6251078  51.9277344  35.3637886  58.3738823  61.8509979
  35.7233429  58.8887939  61.1286278  35.6421318  58.8401413  62.6392632
  63.9061623  24.6944199  14.5477524  64.0136185  23.8095894  14.8966904
  64.0561066  24.6007500  13.6070213  69.3911438  61.3598747  21.7466507
  68.4347153  61.3946075  21.7632427  69.6462021  61.3419037  22.6690693
  44.0845070   6.5137734  75.8195648  44.3537674   5.6652131  75.4678879
  43.7370567   6.9870181  75.0635529  80.6161652  15.7275114   4.2629309
  80.0860214  15.5490589   5.0396795  81.3887482  15.1721678   4.3674912
  25.8531818  11.6822720  70.0901642  26.1057796  11.5002937  70.9953156
  26.1307220  10.9062119  69.6034012  15.9779692  61.7978477  69.7448196
  15.2354946  61.2160187  69.9074326  15.7345171  62.2820435  68.9558258
  14.3579473   5.7034917  34.5276108  14.2457619   4.8227701  34.1698723
  15.2392569   5.9613233  34.2573318  45.8239632  60.0005493   5.5619183
  46.7757912  59.9083977   5.6039257  45.6329956  60.0902977   4.6282654
  26.2280178  64.2245712  57.2508736  25.9206772  64.8265762  56.5731087
  25.4290543  63.8322372  57.6029549  38.2310905  64.5387802  49.3630409
  37.9081726  65.4327469  49.2499809  37.4630356  64.0401382  49.6417542
   4.1098523  26.9707069  73.8881302   4.0872822  27.5312767  73.1125793
   3.5450027  26.2307491  73.6653366  78.4264069  50.9288979   5.7565818
  78.4027176  50.1958199   5.1415477  77.8765259  50.6463203   6.4873390
  31.9445629  58.6154861  13.9221239  32.1211166  59.1162033  14.7185822
  32.6776695  58.0035400  13.8564825  57.5797729  52.8564568  46.2632828
  57.0936050  52.0353622  46.1879311  58.0475197  52.9350128  45.4318542
  20.6197491  56.0014191   3.5685992  21.2492809  55.6530914   4.1999369
  19.9932270  55.2897148   3.4375269   7.4491229  34.6341515  34.7196312
   6.9866810  33.8225861  34.5104904   7.5804811  35.0600891  33.8725433
  20.3056679   1.2624463  39.1406364  19.9900417   0.3788912  39.3302193
  20.9169140   1.1474514  38.4130440  73.6587143  25.7086220   4.7455554
  73.9568863  26.4980736   5.1973143  74.0812302  24.9897003   5.2155142
  83.6593704  59.0784760  19.3022251  84.2685852  59.7839508  19.5199261
  83.9933929  58.3181610  19.7782288  16.9066753  70.8458176  19.1756382
  16.9971123  71.7368698  19.5133762  16.3232193  70.9334335  18.4218903
  57.3588371  42.3854332  44.1891670  58.0224648  42.1650696  43.5355072
  56.9398460  41.5500641  44.3961372  68.3429642  58.4475479  70.9598618
  67.6584473  59.0509987  71.2488556  69.1597137  58.9260368  71.1019897
  50.7373276  29.0942669  36.6289215  49.8317337  28.9223557  36.3708878
  51.2628517  28.7240372  35.9197083  18.4376335  40.9893990   0.4937556
  17.8077621  40.4174576   0.9323590  18.0651588  41.8668900   0.5803974
  28.3636684  61.4706421  73.9910583  29.2615089  61.1389809  73.9801941
  28.3409710  62.0761757  74.7320328  41.6120071  11.7382698  10.8062668
  40.8741188  11.4078856  10.2938232  41.4425507  12.6763639  10.8928471
  44.3542252  12.0132217  73.7717285  44.5081978  11.1909380  73.3065643
  45.0092163  12.0198345  74.4697037  34.7686577  70.9868927  20.6601353
  35.5849648  71.1432953  21.1349125  34.0826912  71.2789612  21.2604542
  20.6621399  38.3766670  80.0154114  20.0818291  37.7488327  79.5849533
  20.5740089  38.1833649  80.9487381  52.6367188   8.8158445  29.8312054
  52.9657135   9.0797319  30.6904831  52.4690437   9.6406298  29.3753033
  78.2195053  11.8472595  60.3655510  78.5679092  10.9571056  60.4152565
  78.7901688  12.3601265  60.9378624  77.4318466  46.1708031  82.0654221
  77.9258041  45.4617500  82.4770966  78.0302200  46.9178200  82.0771790
  19.0724316  15.2252827  25.7358017  18.3398743  14.6109276  25.7822876
  19.0006561  15.7446384  26.5366440  66.7622223  64.2141113  49.2595558
  66.9556885  64.4685287  50.1618156  67.1258698  64.9221191  48.7278442
  14.6376476  30.8907871  76.0636826  15.4276142  30.4364243  76.3564987
  13.9480181  30.2289009  76.1141891  18.7521782  67.0264816   5.0883579
  18.4469852  66.2846069   5.6105790  18.6697865  66.7311172   4.1816030
  72.7295456   3.7119505   4.6996331  72.0885315   3.0771856   5.0196500
  73.5702667   3.2598493   4.7704859  72.8734894   2.0154383  27.9488754
  72.3266373   1.4303701  27.4245872  72.4048920   2.8500745  27.9435291
   5.7854109  70.2516022  34.0164566   5.8114686  69.9460144  33.1097221
   6.5758677  70.7827225  34.1130180  53.2851028  38.7925034  65.5870132
  52.6323776  39.4926300  65.5848007  53.0366859  38.2311363  64.8525772
  78.4603653  69.9616699   4.8370657  78.7500076  70.3461227   4.0096965
  78.6286163  70.6419067   5.4891434  12.4715624  15.5088320  75.6161728
  11.9478140  16.2468357  75.9280548  11.8567553  14.7759371  75.5828705
  36.1886597  42.0534286   0.4107786  35.3218002  42.4526520   0.3372490
  36.5701599  42.4516373   1.1931612  -0.0559742  36.9924202   0.9263435
   0.0768111  37.1722374  -0.0043904   0.8281375  36.8944855   1.2798791
  23.8030663  49.3274536  48.5527763  23.6902676  49.2215385  47.6081657
  24.4781609  50.0004845  48.6394043  67.0102081  47.4965820  21.8086376
  67.5648727  47.8554077  22.5013313  66.1512299  47.8902855  21.9615364
  10.3187494  48.6732445   9.6614504  10.2978477  48.9161987   8.7358322
  10.6977091  47.7942963   9.6698742  73.7906189  49.5078049  10.3905935
  73.5263977  49.2504349   9.5073166  74.0533218  48.6886024  10.8102665
  80.5133591  23.1684532  73.1148300  80.7176285  23.9144325  73.6787643
  79.5927582  23.2891407  72.8821030  43.9245987  31.0230198  10.6281872
  44.2152443  30.6609821   9.7911167  44.1481934  30.3498192  11.2708683
  82.7011642   3.5378616  60.4195290  82.2849808   3.0199113  61.1085510
  82.1501312   3.3986545  59.6493187  38.1814270  66.4572983  88.5608139
  37.3953171  65.9135132  88.6114578  38.2417297  66.7058105  87.6384048
  57.9023895  55.4971809   3.1533270  57.3792915  55.0371323   2.4968541
  58.0597954  54.8438644   3.8349690  20.3898354  33.4623871  58.3795815
  19.9336128  33.2662735  57.5612717  19.7942944  33.1585312  59.0645905
  49.8402405   7.3150687  34.7765007  48.8927383   7.2044830  34.6974945
  50.1897202   6.9852753  33.9486504  66.7802658  15.5072041  22.0907040
  65.9241028  15.5083857  22.5187302  66.5920029  15.7253580  21.1779060
   3.3435040  15.5572386   4.9817648   3.2814970  15.0348177   4.1821003
   2.5814934  15.2954950   5.4985452  70.7540131  41.4645119  78.0136642
  70.2929993  41.5863457  78.8436356  70.9553375  42.3526611  77.7188873
  78.5702209  50.7904243  88.4375229  78.3624191  51.4066925  89.1398468
  77.7178650  50.5214119  88.0949478  45.5739899  17.9707432  75.9873047
  46.0168839  18.6337509  76.5169220  45.0719070  17.4557877  76.6189423
  60.6492538  42.7213707   5.5991278  61.2261429  43.3286209   5.1357923
  60.9375877  41.8537254   5.3157873  83.4816208  16.0672112  84.7481995
  83.1544952  16.1758194  83.8552170  83.6931610  16.9554443  85.0354691
   3.9701722  69.3582382  86.6479950   4.5708132  69.9616318  86.2105179
   3.1887994  69.8827896  86.8227386  80.9246292  39.9461021  52.7535515
  80.7608032  40.8033791  53.1465721  81.7289658  39.6402130  53.1727257
  37.4354973  30.2348804  84.0008698  37.3329849  29.3527298  84.3579865
  37.5934982  30.0982456  83.0667419  41.8859253  48.6374130   3.9295104
  42.4203072  48.1787186   4.5777903  42.5170517  49.1269188   3.4019732
   8.9196873  62.6260147   8.9057798   8.0334539  62.5312920   8.5567074
   9.0183830  61.8913116   9.5113392   8.5731411  57.9540367  22.7663460
   9.0790253  57.9978905  21.9549332   7.7809196  58.4587402  22.5822468
  40.0156898   4.9662900  16.6104298  40.3653374   4.3143907  16.0029716
  39.6280708   4.4509201  17.3178024   8.1910009  41.8182144  64.0483780
   7.7849545  41.0323219  63.6826897   8.5023031  41.5472260  64.9120255
  46.4030304  12.3812876  88.7738190  47.0198860  13.0248919  88.4252625
  45.7624207  12.2595568  88.0730820  61.2865219  52.5449371   9.8734961
  61.4659233  51.7916718  10.4362020  61.8816719  53.2256584  10.1875725
  85.4681854  52.6699562  25.0261097  85.5838089  51.7339935  25.1899338
  84.9335480  52.7100639  24.2331486  29.8719025  28.2876740  20.0060749
  30.7527962  27.9360676  20.1350346  29.5785751  28.5272522  20.8851624
  48.9751244  25.8858032  73.8280716  49.0238495  26.7164593  74.3012161
  49.8139839  25.4599667  74.0047302  21.3996563  -0.0524635  81.6257248
  22.3409348   0.0356568  81.7755966  21.0644054   0.8427395  81.6752243
  64.3796921  54.1320496  80.4149857  63.9355812  54.0816574  81.2614288
  64.3299713  55.0568466  80.1731033  26.8040142   4.3175058  29.0457878
  25.8979359   4.3736119  29.3492794  27.2067490   3.6609731  29.6141186
  26.4771309  63.8706818  37.2685127  26.2904110  63.3527908  38.0515556
  26.7860279  63.2313766  36.6265602   5.4522653  67.5911102  38.4566879
   5.4307938  66.6399002  38.5614433   5.6789885  67.7256699  37.5365143
  71.9904099   5.8323932  77.4775467  71.0662079   5.8137913  77.7260208
  72.4406433   6.1641493  78.2543716   1.6624160   7.3615875  88.5107651
   2.5107884   6.9249897  88.4340973   1.0352354   6.7297440  88.1591263
  77.3981018   0.1714077   1.5133713  77.0081100  -0.3999600   2.1749427
  76.6558304   0.4726175   0.9894076  83.7018433  39.3075752  46.3227959
  83.6881409  38.4300308  46.7048378  84.4406433  39.7425957  46.7484283
  51.2935066   7.0595832  20.5324879  52.0862656   6.5803442  20.2914543
  51.4150543   7.2738204  21.4574528   7.0142245  11.9917068   7.4611888
   6.9130440  12.2192593   6.5369515   7.1931710  12.8259583   7.8950496
  26.0108833  57.3875732  45.0433197  26.7496433  57.9459343  45.2856064
  26.3014965  56.5005150  45.2552261  45.6730537   5.2980962  80.3362503
  46.5788116   5.0128059  80.4564362  45.2693138   4.6016932  79.8183212
  16.1087532  15.4546003   4.8247862  16.7968140  15.5945120   5.4753447
  16.4879227  14.8309727   4.2054715  21.5766602  27.9022331  85.8611755
  22.3223362  28.4784145  85.6932068  21.7371330  27.5521049  86.7374649
   5.9894323  66.6445999  69.1823730   5.3676634  66.8434601  69.8824387
   5.5627613  65.9568558  68.6713028  80.1851044  53.1570244  44.3853836
  79.4757080  52.5143814  44.3864174  80.1356430  53.5669785  43.5218277
  68.8633423  33.1372719  38.4789467  68.0046692  33.0800095  38.8980293
  68.8732834  34.0029144  38.0705338  26.0098133  13.6245394  13.7861462
  26.6548862  13.1154413  13.2952976  25.8111935  14.3697863  13.2192345
  29.9456558  56.3182983  49.9215431  29.1512489  56.5992813  50.3756371
  30.6517181  56.7971992  50.3555527  77.1089401  37.4859886  48.4758453
  76.9441910  38.4168320  48.6262436  78.0496826  37.3829880  48.6194763
  20.8071938  20.3911076  61.4459114  20.8335056  21.1736012  61.9965858
  20.6462212  20.7246857  60.5632744   0.9181175  13.6744785  18.8976116
   0.1481991  13.3358450  19.3545399   0.8562313  13.3041382  18.0171280
  48.3204079  10.7468786  77.9889984  47.9566116  10.9207869  77.1208725
  47.6387787  11.0345163  78.5963516  86.2945175  10.6010838  57.3905296
  86.7991562  10.8392973  58.1682320  85.5147934  11.1547470  57.4321022
  81.5548401  20.9432297  44.3210182  80.7481842  20.4310036  44.3772354
  81.2682648  21.8520336  44.4114838  50.2130203  51.1905060   1.7849838
  50.1968498  50.3359451   1.3540542  49.9434624  51.8071365   1.1042954
  77.0391388  68.3031769  66.6476288  76.9514160  67.7930603  67.4528122
  76.5378494  69.1014557  66.8140182  71.0662231  22.9810467  63.2347641
  70.3766327  23.4427605  63.7117577  71.5870285  23.6767883  62.8336029
  74.5310898  60.2041969  37.9192162  74.3554153  59.7051620  38.7169228
  74.2686768  61.0993156  38.1340065  48.3007584  14.1560745  25.1259308
  48.2925148  13.3706703  25.6730175  47.4213753  14.5223646  25.2194710
  59.3296890  67.1620178  24.5696087  59.4837952  67.5952301  25.4091377
  59.5803452  67.8132935  23.9144440  45.8630104  35.6350555  12.7100382
  45.9972115  35.5714455  11.7644300  44.9239082  35.4928436  12.8287745
  12.9236937  42.5687218   0.4849020  13.0473232  41.6605377   0.7608569
  13.6272831  42.7255859  -0.1448500  20.4941120  18.4090576  19.1363297
  20.4366512  19.2529678  19.5843754  20.1640797  17.7762642  19.7742023
  10.3672781  67.4548111  83.3009567  10.9352312  67.8774261  83.9452057
   9.6612797  67.0697250  83.8200989  80.3824539  23.1791725   2.2006905
  79.4895554  23.0572948   1.8780450  80.2766800  23.3655434   3.1335940
  30.4376945  55.5140572  86.9753265  29.9020176  54.9434738  87.5264359
  31.3359375  55.2214127  87.1294327  79.2484512   4.1635108  52.3653908
  78.3408585   3.8691423  52.2888947  79.1851349   5.0374341  52.7507210
   8.6974764  10.7070026  68.9517593   8.3435507  11.5557661  69.2174072
   8.5919600  10.6906061  68.0005341  66.7321472  69.0514221  45.4402924
  66.6087036  69.6468658  46.1795044  67.5667114  68.6179352  45.6186981
  38.1735802  49.9668884  21.3791485  37.6389618  49.6703529  20.6426144
  38.1161041  50.9218407  21.3476639   0.2461725   9.8132238  20.6496601
   0.7268534   9.7282114  21.4730377  -0.0695999   8.9288340  20.4642544
  21.8930206  43.9642601  74.7229233  22.7747669  43.6313553  74.8900528
  21.7615967  43.8334007  73.7838669  11.1403522  28.7252140  79.3173981
  10.5876522  28.2719612  78.6807556  10.5593863  28.8992767  80.0579453
   3.6494989  17.2385178  78.2151642   2.9140284  17.7093983  78.6070633
   3.2983446  16.8824463  77.3989944  17.9555569  58.0385551  11.2717075
  18.0153904  57.1227570  11.5436735  18.0516224  58.5362968  12.0836544
  85.1876297   8.8617582  71.7979507  85.7259445   9.6372814  71.6398010
  85.5752182   8.1841393  71.2440186  79.5306549  45.0128059  40.7572670
  78.6702118  44.5966873  40.8093987  79.6797333  45.1380768  39.8200836
  51.1268768  52.3345413  12.6987925  51.3353653  53.2604179  12.8233490
  50.5091438  52.1315308  13.4012356  70.5787659  29.8400078  80.6033783
  71.2585831  30.3673649  81.0228653  70.2294235  30.4042892  79.9136124
  55.1749687  60.1567383  31.2277069  54.3535995  60.5188599  31.5600548
  55.3044662  59.3539352  31.7326527  60.0482826  61.6015511  55.7550621
  59.5361481  60.8364716  55.4931374  59.5125923  62.0315895  56.4216423
  40.7605362  27.0563793   3.7181478  40.8208389  26.8448257   4.6497273
  41.4846649  26.5764809   3.3161938  63.7326164  27.2533474  13.8853388
  63.6503944  26.4568043  14.4097357  63.8298569  27.9549770  14.5291500
  10.9210577  13.3728743  76.9434814  10.5162811  13.0926504  76.1225891
  11.3802853  12.5956268  77.2616425   8.7168589   0.4774565  45.5297432
   8.2800531  -0.2894840  45.9001961   8.6712351   0.3449968  44.5828514
  29.8058033  42.2613831   5.8840036  30.4355774  42.6865959   5.3019266
  30.1943626  41.4076080   6.0745811  19.4920158  44.3306122  13.3786116
  20.0947895  43.6075249  13.5519247  18.7851143  43.9359894  12.8679323
  28.0136967   0.8713406  29.5417442  27.9101524   1.1061840  28.6195946
  27.2766056   1.2954479  29.9811325  61.8478508  33.7708778  34.6267090
  62.5003166  34.4008217  34.3206139  61.0429649  34.2819138  34.7117386
  24.9750175   0.5637192  11.0851374  25.8450432   0.2303071  11.3045092
  24.9663372   0.5993497  10.1286402  86.2500839  19.2477341  83.4824753
  87.0119400  18.6707211  83.5359344  85.8821945  19.0789528  82.6150665
   1.1688437   9.5237284  77.3122177   1.5725380   9.0306234  76.5979996
   0.4093345   8.9993343  77.5659714   8.7824106  16.1385937  16.4595928
   8.8570557  16.5861015  15.6167431   7.9548736  16.4518795  16.8246498
   3.3886113  40.4426346   9.7684431   2.6595299  41.0591736   9.7009792
   3.5588009  40.3748436  10.7079496   5.3275309  55.3626404  34.5332565
   4.8693514  55.0036583  33.7733688   6.1594357  55.6811066  34.1829109
  87.1010361  46.5232353  84.3674011  86.3408051  45.9876213  84.5941162
  87.1427536  46.4875450  83.4117737  64.2567444   9.5654221  78.5781174
  64.6038284   9.9196558  79.3968277  64.7037048   8.7256670  78.4719467
  50.4055405   2.9458764  68.8489532  50.3711052   3.4180682  69.6808624
  51.0013123   3.4614592  68.3053894  42.3612289  53.3679848  53.0290565
  41.7519073  53.3019104  53.7643051  42.9804878  52.6510544  53.1660118
  44.7031975  37.3478127  33.7187157  45.3108864  36.9597092  34.3482590
  44.7726707  36.7902679  32.9437675   6.7789707   9.1991940  81.7300644
   6.7150254   9.8645382  81.0448914   5.9291539   8.7589016  81.7164230
  79.0218811  53.2248650  52.0960159  78.5905228  54.0665894  52.2431984
  79.7886658  53.4384155  51.5643463  45.9837303  48.4088516  55.3552208
  45.7993736  49.1011238  55.9900436  46.7014847  48.7550850  54.8249550
  34.9611359  36.3237038  26.7974701  34.4872513  36.4284477  27.6225109
  35.0026588  37.2071190  26.4312878   6.9504557  46.2940407  19.9749966
   7.3354506  45.6363907  19.3957653   7.5534496  46.3422775  20.7168217
  24.6219826  50.6962624  53.4787483  24.4914894  50.4478683  54.3938980
  23.7565231  50.6051903  53.0801048  82.7772751   8.3030615   4.9907207
  83.3418655   9.0638237   4.8539228  82.0794067   8.4031954   4.3432779
  63.9654236  13.6568422  61.8100586  63.4798088  14.3325891  61.3370056
  64.1581650  12.9927502  61.1481934  45.2488899  63.9442787  10.0669069
  44.9840775  63.7745361   9.1628628  45.2086449  63.0881119  10.4930429
   9.4515419  66.4317017  24.5717621   9.7472019  66.7819366  25.4120922
   8.9829206  65.6284714  24.7985840  29.5880222  58.0474510  57.3866882
  29.0806828  57.3035851  57.0618782  29.1280899  58.3231125  58.1795959
  44.8091583  13.3176355  66.5594711  44.2875824  12.8235302  65.9269791
  44.1886749  13.5540495  67.2489243  47.4326859  68.3537521  80.9794922
  47.2849770  67.4118652  81.0647507  48.0624695  68.4335480  80.2630920
  52.5083046  43.8838348  82.0544815  53.2390747  43.9690971  81.4421616
  52.9180069  43.6361580  82.8833618  38.0504112  43.5717430  26.6387501
  38.9357491  43.2093773  26.6055679  38.1632347  44.4991493  26.4303684
   3.9129975  70.6844864  42.1072617   4.1019678  69.9469681  42.6874275
   4.2717743  70.4207306  41.2599487  42.3097000  58.7861633  52.9689713
  42.4326477  57.9129143  53.3412018  43.0216522  59.3072090  53.3402672
  26.3635502   6.5775766  17.5490875  26.3242302   7.0186558  16.7004795
  25.7959175   7.0990667  18.1166039  84.7109909  41.3725891  47.9435501
  84.7089233  42.2736320  47.6205254  83.9288483  41.3130188  48.4921227
  46.9898033  53.1279869  76.5521469  46.1937408  53.6287842  76.3740387
  47.3310432  52.9046478  75.6861801  56.6483955  52.5926018   5.7358479
  56.1672859  52.7294273   4.9197321  57.4925308  53.0199509   5.5907841
  70.2022552  43.8684006  46.4314499  69.3871078  43.3712273  46.3637581
  70.5153275  43.9390068  45.5296593  66.9804688  58.4668770  25.3998566
  66.2561798  58.7211609  25.9716778  66.7056503  58.7463150  24.5265732
  77.6027374   8.4262276  58.7531738  78.5220413   8.6324778  58.9222221
  77.2354431   9.2381630  58.4037628  42.5963440  60.0382576  39.0471992
  41.9089203  60.1236343  38.3866043  42.6296883  60.8961601  39.4704285
   9.8433743   6.0448861  74.1785660  10.3799553   5.3728461  74.5988922
   9.7893333   5.7703481  73.2631760  41.2198219  70.2503586  33.5313568
  41.6067886  70.3234406  34.4037933  40.7979393  69.3911514  33.5276756
  62.1459694  32.6928177  26.0796375  62.5825081  32.7429123  25.2292519
  61.3167267  33.1532059  25.9506683  47.2145615  20.1308479   8.4444952
  46.4288483  19.6635284   8.7282228  46.9412231  20.6037655   7.6584506
  57.4568558  19.0106335  39.4061203  57.1544456  18.3811703  40.0607605
  57.2708588  18.5907669  38.5662689  60.1534081  52.7817764  30.3946285
  60.0930138  52.0623550  31.0231342  60.1211472  52.3551178  29.5383835
  25.1554470   7.5683780   4.4734359  24.8713989   7.7575207   5.3677363
  25.2493896   6.6161304   4.4483142  75.4142990  18.3775978  14.0461359
  75.5018463  17.6572723  14.6703959  74.6525116  18.1437111  13.5158396
  61.2226906   1.8206829  71.3991089  60.9353600   2.7154200  71.5811005
  60.5249710   1.4503537  70.8584824  49.7791939  24.8889942  79.7262573
  49.6718750  25.7832317  79.4021378  50.1671066  24.9940510  80.5950012
  47.5480194   9.1625586  17.9939842  48.2359161   9.0409431  17.3395844
  47.5957069  10.0910025  18.2219067  19.5106564  67.1584320  33.6172485
  20.4424648  67.0766830  33.4140701  19.3711224  66.5561447  34.3480110
   6.7449265  58.8929825  37.5834007   6.0791092  58.2715034  37.8778152
   6.4248061  59.2036285  36.7364922  14.5407524  31.2952061  15.5419016
  14.0505114  30.9916840  14.7778530  15.1063957  31.9892139  15.2033272
  48.2618637  50.3912010  40.0882607  48.2767410  49.8351097  40.8672142
  49.1395187  50.7711487  40.0484200  61.4875259  49.8212700  10.8307762
  60.7506561  49.4879265  10.3187799  61.5025520  49.2719879  11.6145458
  51.2611275   5.5470495  75.1941071  52.0151024   5.5986404  74.6066589
  51.2793846   4.6505580  75.5290756  59.0611038  32.4711800  53.6589050
  58.4631729  31.8651009  53.2214317  59.0232277  33.2683220  53.1303558
  42.1293297  42.7843590  53.8890610  42.4094543  42.1934090  54.5880165
  42.4367256  42.3665276  53.0845985  37.4156723  52.7151108  70.5141907
  37.6839218  51.9362144  70.0267563  37.6717377  53.4480324  69.9542923
  77.1621170  64.0793686  17.9616814  77.2716370  64.8383484  17.3888035
  76.2560196  63.8035812  17.8232689  29.7432365  60.7630119  32.8048897
  29.6179276  59.9695854  33.3254700  30.6287251  61.0545616  33.0220032
   8.6098356  43.6747742  44.4344406   9.4436331  44.1440010  44.4054909
   8.1836367  43.9926300  45.2304039  28.9806290  37.9819260  25.1857586
  28.1577129  38.3122787  25.5461845  29.2909050  38.6843414  24.6142902
  57.0390739  60.6643410  64.1277161  57.1203613  61.0191765  65.0130005
  56.5595589  61.3364410  63.6433868  82.5693741  26.0133801  23.9740505
  82.3790665  26.6385498  24.6734619  81.7191010  25.6315002  23.7562466
  47.7608032  43.6742058  43.3498650  47.2836304  43.7851372  42.5275345
  48.5981445  43.2894783  43.0908737   8.2906590   3.4650450  78.1463623
   8.8513584   3.2522950  78.8924103   7.3992600   3.3649364  78.4804535
  47.4976311  65.5181808   5.4312944  47.2969208  65.4807434   6.3664656
  47.6486053  64.6064148   5.1820464   7.4275608  17.4738274  31.8029804
   8.2951994  17.1324787  31.5863762   7.6018586  18.2646561  32.3133125
  52.5759888  32.4030190  52.0980301  52.2810631  31.6466846  52.6051865
  52.7109413  33.0907097  52.7500267  31.4064407  52.7273560   7.5040898
  31.6081696  51.9140434   7.9667578  32.0025787  52.7310829   6.7552009
   9.1855211  13.3908701  33.8129883  10.0963507  13.4074287  33.5191383
   9.1763744  12.7557249  34.5290451  23.9421425  24.9669132  28.0057640
  23.9293594  25.5644093  28.7534714  24.7738953  24.5000973  28.0863991
  12.1180439  36.2462921   9.7103882  12.6623840  36.8833504   9.2476959
  12.7347546  35.7509346  10.2493877  25.6451397  36.5373764  14.7233305
  25.6553326  36.6926880  15.6677914  25.9072914  35.6216888  14.6283379
  13.8171911  41.3471832  53.2340202  13.6236143  41.0242271  52.3539886
  14.2986546  40.6325836  53.6508751  76.6577377   9.1256256   2.9382570
  75.7582245   8.8635502   3.1342781  76.6389389   9.3735723   2.0139189
  43.9945259  12.1607475  87.7188339  43.1846199  12.4157696  88.1607056
  43.7663231  11.3625126  87.2424164  67.6125412  15.7940502  63.3107262
  67.4063339  15.0469408  62.7490005  67.8478775  15.4032602  64.1522293
  19.2798119  65.0118179   8.8549576  19.0640564  64.6833267   7.9821587
  19.1557503  64.2582016   9.4319315  34.9742393  39.3835449  14.0871897
  35.1276970  39.0093002  13.2196493  34.8494682  40.3187790  13.9259405
  67.8455963  66.9215775  83.4694824  67.0677795  66.6126785  83.0049362
  67.5665359  66.9937363  84.3822556  24.7796764   1.8664105  13.4617310
  24.4863644   1.2846929  12.7604437  25.6804466   2.0893853  13.2269421
   6.7851510  15.4171124  86.1806412   7.5599647  14.8614187  86.2649002
   6.8984890  15.8602057  85.3397751  47.6410332  14.2567091  73.7715149
  48.0659981  13.6133795  74.3387604  46.9860802  13.7536898  73.2875290
  78.8584061  36.8530807  66.6139297  78.3757019  36.5645142  67.3885040
  78.4446182  37.6805496  66.3683548  69.9171829  31.3206043   4.6114292
  70.0201569  30.4166069   4.3140836  69.9438934  31.8412952   3.8086848
  27.8720894  69.6390228  33.9634895  27.8969364  69.1906891  34.8088341
  27.1044426  69.2755508  33.5220795  68.7884064  40.0404587  24.7376003
  68.2197571  39.6411247  24.0792656  69.6054459  39.5450478  24.6806126
  84.8795090  35.7564201  65.5935974  84.8520432  34.8400383  65.8687668
  85.5630798  35.7850990  64.9241714  67.6220322  27.7707062  77.6222382
  68.5561066  27.9773808  77.6540527  67.2523727  28.4236202  77.0278625
  48.3956947  70.9380493  54.1589241  47.4761581  71.0333862  53.9107475
  48.6418610  71.7975616  54.5007858  76.5110474   7.8633480   6.1312666
  76.7297821   7.0299420   5.7143488  77.2982941   8.3976145   6.0262060
   2.4688070  37.2143059  46.4064789   3.2980564  36.8045158  46.1602097
   2.2327573  37.7508545  45.6497574  75.8218460  39.2518730  33.9174347
  75.0566940  39.6642342  34.3183556  75.4900665  38.4285622  33.5592155
  63.1612740  24.5208225   7.8235540  62.3730927  24.5522079   8.3657866
  63.5961227  25.3582497   7.9843597  71.3480377  42.8786697   4.6504397
  71.5076447  42.4508324   5.4916964  70.6637955  42.3505592   4.2391615
  52.7051811  28.8742695  18.8785706  52.7047501  28.6192837  19.8011837
  52.1575394  29.6586800  18.8466148  12.6347942  59.0244713  38.3116722
  11.7148018  58.9714928  38.0527534  13.0284214  58.2250595  37.9620590
  39.2799492  26.6804199  25.9747581  40.2272339  26.8177357  25.9801655
  38.9784966  27.0578823  26.8011246  27.0409031   1.5658563   7.8599849
  26.0896587   1.4763119   7.9178238  27.3690720   0.6676949   7.9029164
  50.3051338   2.7144458  42.4245338  49.6450768   3.3665302  42.6597824
  50.8819771   2.6716228  43.1871910  24.7806377  55.5378685   7.1214848
  25.1575108  56.2715416   7.6072040  23.8629990  55.7796936   6.9962134
  83.9990692  -0.2717075  81.1751099  84.6637344   0.1905100  80.6644211
  83.5341949   0.4203669  81.6453934  54.1833534  46.2163315  71.1970367
  54.1731071  45.2776489  71.3841248  55.0476608  46.5087852  71.4862976
  10.2313585  31.1652164  68.1949539  10.2163610  30.2094955  68.1439133
   9.8632240  31.4554482  67.3604050  50.8531914  43.4613419  54.2766876
  51.2114983  44.3487129  54.2562599  50.8060226  43.2434578  55.2075653
  30.3916340  69.9006500  51.5138054  30.1832428  69.3325653  50.7721252
  30.1185894  69.4003601  52.2828255  84.0137253  14.0760918  43.1734962
  83.9832535  14.1709881  42.2215004  83.0957870  14.0856714  43.4446564
  24.7451324  54.4859734  81.2158661  24.4925632  53.6409302  80.8439255
  23.9786434  54.7662086  81.7160645  25.6398602  68.7455597   0.3735410
  25.5536327  69.6878815   0.2292308  25.7599430  68.3790894  -0.5025363
   7.1763334  67.5396576  20.5361462   7.8866973  68.1539383  20.3510284
   7.6187081  66.7440109  20.8319263   2.1690743  60.9769096   2.6834161
   2.6887970  60.4949532   3.3267207   2.5508478  60.7371941   1.8390125
  65.0299530  16.9782047  67.1127167  65.6237640  17.5996475  67.5339432
  64.7374649  17.4266109  66.3192368  14.4312658  21.9805775  85.9328079
  14.5163221  22.7719364  86.4645462  15.3321619  21.6913929  85.7879257
  65.5193329  37.5966034  89.1843796  64.8861771  37.2401657  88.5612411
  65.8966599  38.3534393  88.7359848  22.8965702  58.2017136  72.0576096
  22.8764114  57.7225151  72.8859787  23.7160606  58.6955109  72.0864487
  82.0679245  36.3625488  56.3199654  81.5428467  36.4056244  57.1191330
  82.8328094  35.8412514  56.5637436  66.9519577  63.5035286  74.2842484
  67.8363953  63.1737251  74.4430923  66.6367950  63.7695312  75.1480408
  14.4704590   1.0697336  31.2257996  13.8205214   1.4630796  30.6434841
  15.3044376   1.1942821  30.7728100  27.0921268  59.1442451  32.6997490
  27.0166054  59.4110184  33.6159134  26.3042793  58.6260376  32.5354576
   5.3288312  28.5165272  54.7494545   5.7534523  27.6784439  54.9325981
   5.4685783  29.0341663  55.5423927  16.6531124  34.3259811  34.7256775
  16.0446148  33.9840584  35.3806953  16.1659184  35.0235710  34.2872238
  40.2362099  66.3413544  76.7054825  40.5541763  65.4453278  76.5947418
  41.0060844  66.8892822  76.5528412  72.5091171   7.8157301  36.6891365
  72.3791504   7.8774962  37.6354599  72.6413116   8.7204809  36.4059753
  23.2655201  27.2616749   3.2265680  22.4606419  27.3973274   2.7265668
  23.9232235  27.0419483   2.5667355  15.1156797   1.5732569  58.5461960
  15.7579584   1.0097808  58.9777107  15.6182280   2.0435169  57.8809662
   2.9482493  20.7232056  67.6606445   3.4521377  20.9850616  68.4312057
   3.3712451  19.9189625  67.3598175  74.8781281   9.1086578  57.0610275
  75.3095093   8.2617254  56.9476585  74.3713226   9.2287149  56.2579346
   8.1470518  25.4425983  79.5541077   8.5699453  24.9741726  80.2738037
   8.3721333  24.9361477  78.7736664  61.3675842  15.1442127  72.4417877
  61.8380699  14.3729210  72.1255875  61.6585770  15.2475243  73.3478165
  19.0184422  25.8131943  17.7401485  19.5654716  25.2569714  18.2947712
  18.7044640  26.5014114  18.3266678  32.5550880  67.7088242  72.9038773
  32.3933144  67.0114670  73.5392990  32.6404953  68.5010529  73.4342575
  55.0772438  31.2089119  74.2145844  55.9407463  30.9626598  73.8829803
  55.2452011  31.5416870  75.0962143  68.8620605  27.5435963  23.6054363
  68.7230911  28.4892769  23.6565170  69.6107635  27.4429417  23.0176067
  79.2093277  43.3520927  43.5572624  79.9921265  43.8945427  43.4613190
  79.5434952  42.4567299  43.6110153  81.6282349  44.0001106  42.3038101
  82.4460602  44.4855728  42.4120750  81.1795883  44.4441376  41.5842400
  59.2017746  27.6288013   6.1730728  60.1172562  27.5898705   6.4498615
  59.0558968  28.5497723   5.9568172  21.5847950   2.5825043  69.8354034
  22.2452888   2.7396502  69.1606598  21.2492275   3.4530301  70.0494461
  77.7143478  10.5643921   8.5980864  78.0155716  10.9962778   9.3974428
  76.8434448  10.9296637   8.4421129  58.6049080  18.8271732  87.6330032
  57.6709366  19.0232372  87.7070770  58.8697243  18.5841808  88.5201721
  34.8611488  10.5554590  71.3821411  33.9341621  10.3291626  71.3065186
  35.2138977   9.9165916  72.0015335  73.4014435   1.2345138   7.0626702
  72.7415161   0.7023875   6.6181850  72.9508133   1.5808656   7.8328681
  68.2210312  26.4753952  15.6618948  68.1835175  27.1464252  16.3434677
  67.4136276  25.9738388  15.7748852  75.6855392   4.0323715  27.3091545
  75.5877151   4.0848260  28.2598953  76.6120071   4.2156143  27.1532345
  65.7983093  12.2436266  35.8040276  65.6689682  11.4007664  35.3691864
  64.9189835  12.5143356  36.0680923  78.8104324  58.5606651  82.9512024
  78.2716751  58.2313576  83.6706009  79.6588440  58.1344719  83.0727997
  34.7312164  18.7191982  73.1271439  33.7797127  18.6337738  73.0673141
  35.0011292  17.9982090  73.6959610   1.6042616  61.1604080  62.0895996
   0.6517077  61.2131615  62.1676369   1.9023467  60.9053650  62.9627151
  59.9706078  61.1872063  59.3316727  59.7049408  61.3526535  60.2362595
  60.6812744  60.5500031  59.4034882  65.0763550  17.5438614  30.1822605
  64.5991287  17.1849594  30.9303780  64.4005737  17.7126579  29.5257111
  33.5826454  42.9062691  89.2363281  32.9000435  42.4789314  89.7537003
  33.2493629  42.8889694  88.3391876  37.9686737  52.5473557  65.0594177
  38.8004036  52.8408966  64.6875534  38.1450920  51.6590576  65.3693237
  73.2349396  30.1493702  17.5558567  72.8717041  29.8406830  18.3859177
  73.4849854  29.3503208  17.0919247  18.2841663  24.7108498  74.1234360
  17.3918991  24.3648796  74.1432877  18.6203060  24.5572701  75.0064163
  56.0854721  60.9296570  28.6819534  55.2864723  61.2603989  28.2715397
  55.7821655  60.2483482  29.2819977   3.8631504  17.1412621  19.0869617
   3.2771945  17.6275444  18.5069485   3.5477757  16.2385311  19.0439854
  66.5648346  29.5233822  80.4440689  66.9275742  29.3685608  81.3162384
  66.8252945  30.4197140  80.2319870  59.6313858  15.8242817  64.0663300
  59.4406815  16.2881775  63.2510605  59.6249962  14.8987122  63.8223763
  45.0775452  15.3083200  18.6816921  44.4106941  14.6721382  18.9401703
  45.0100365  15.3519230  17.7278709  81.3306122  49.0493584  82.7715836
  81.9878769  49.6369553  82.3988190  81.2336731  49.3424187  83.6776428
  11.4160004  42.6381645  46.4198341  11.4890099  43.0195198  47.2947464
  11.6847658  43.3414917  45.8288002  70.4138184  51.9580498  14.4858284
  70.6192017  51.3136368  13.8084927  69.9645462  52.6621246  14.0182190
  26.6395836  50.6681442  58.8118439  26.3727036  51.5183601  58.4623604
  27.1907272  50.2898788  58.1267281  31.2428551  52.9127464  43.2644920
  31.5974731  52.2177162  42.7100449  31.8629780  52.9797897  43.9905663
  11.5947971   8.8727045  66.7468109  11.9216805   9.6874218  67.1284027
  11.8920774   8.1902046  67.3485184  65.7220383  11.3621435  80.4502411
  66.0464783  11.4206705  81.3488770  64.8788834  11.8148251  80.4700470
  64.9570618  26.4299011  34.3345032  65.7218781  26.9710140  34.1383362
  64.5581284  26.8469238  35.0981636  79.8727036  62.4320488  58.0306168
  80.1060486  62.3056564  57.1109390  80.1045380  61.6046715  58.4524307
  63.7111244  37.2129631  31.3556690  62.9878159  37.8265533  31.2269745
  63.6380043  36.5997429  30.6243362   2.5341778  52.6160507  40.6173782
   2.0002780  51.8901825  40.2944260   1.9284128  53.3555489  40.6666145
  14.2240114  49.8153191  41.1081238  14.3425350  49.0419769  40.5566444
  14.6695204  50.5177803  40.6345215   0.0323398  23.2930222  47.3505707
  -0.2799999  24.1841965  47.5070534   0.9863901  23.3705730  47.3481255
  65.8868561  30.5404129  23.3336678  65.6741638  30.0329914  24.1169415
  65.6005707  29.9886379  22.6057816  29.6398678  60.2038879  66.9254608
  28.9451561  60.4497948  67.5363083  29.1800098  59.7983589  66.1903992
  74.3338928  51.6241684  56.8861046  74.0011673  52.4887543  56.6452370
  74.7229767  51.2842484  56.0803185  21.5515003  43.7420120  84.1112366
  21.6671906  43.1416931  83.3747177  22.3527679  43.6466217  84.6261215
   1.0013676  24.2962170  55.9483795   0.2645296  24.4250221  56.5456314
   0.7649004  23.5203400  55.4401169   0.1699213  49.6267128  54.4207001
   0.5803796  48.9802437  53.8463898   0.1148565  49.1908760  55.2711372
   4.4900122  57.7078400   6.9742947   3.8214087  58.0527153   7.5661254
   5.2569771  57.5742683   7.5312109   5.6419811  57.7747688  27.7340202
   5.3861217  58.3285103  26.9963627   5.5788431  56.8814278  27.3961048
  32.5076256   0.4702606   1.5542676  31.6005611   0.2297462   1.7429881
  33.0304985  -0.1740173   2.0314906  67.2442017  35.1888123  89.1554108
  67.8300400  35.5187988  88.4741364  66.6307602  35.9066963  89.3121414
   1.9811387  45.6301804  54.0736923   2.4350147  46.2166100  54.6789474
   1.2567869  45.2710190  54.5860863  12.2664375  28.9474068   9.1804380
  11.5952892  29.5560474   8.8716488  12.3998804  28.3461323   8.4477081
  11.8030815  43.6509895   3.7388930  11.3644953  43.6709175   2.8883185
  12.3642082  44.4264679   3.7372634  23.8374386  34.3254852  69.6872482
  24.7095718  34.7125092  69.6109085  23.6016979  34.0874825  68.7905731
  53.6393127  59.6771851  81.6138458  53.4028625  58.7686501  81.4270630
  54.0678787  59.9823837  80.8142090  79.2493210   2.7274768  38.8395805
  78.6829224   2.7978914  38.0711594  80.1233292   2.5760896  38.4798355
  63.8824615  23.9271049  29.0157394  64.0266113  24.3958836  28.1937313
  64.6492081  23.3613243  29.1064415  45.3706856  33.0103226   8.8196259
  44.8254776  32.6917953   9.5390129  45.1893158  32.4090614   8.0972548
  39.7140846  57.4266548  61.1608658  40.4273682  57.2493439  61.7740707
  39.8733711  56.8302994  60.4292755  79.2316589  55.0640259  82.7825241
  78.4394913  54.7993164  82.3149490  78.9703674  55.8420982  83.2750320
  83.3054733   3.5754819  17.6884899  82.9114456   3.5947897  18.5606117
  83.7302094   2.7192550  17.6364689  47.9673958  46.0589447  20.8052979
  47.8004303  45.1363411  20.6125488  47.3211479  46.2846107  21.4743767
  10.2176132  46.8452034  31.4109497  10.4893646  46.1820908  32.0455093
   9.8431311  46.3441429  30.6864262  18.7362690  47.6918259  23.7096329
  17.9080811  47.2678986  23.4846382  19.0182953  47.2550964  24.5133495
  63.7165489  51.1132736   5.7487626  63.5339050  51.8465385   6.3362927
  63.5105743  50.3347435   6.2661610   5.9847994  30.6874828  56.8176270
   6.8244228  31.1330147  56.7046432   5.3860421  31.1532478  56.2338600
  79.0252151  30.9255848  71.3599930  78.3410034  30.3455009  71.6940384
  79.5749283  31.1108742  72.1213913  18.5635262  53.5610237  65.2988281
  18.2238026  52.6705170  65.3872528  19.0397453  53.7177658  66.1142273
  74.7170563  49.6137276  38.3923225  74.4359207  48.7278252  38.1634827
  74.5921936  49.6673889  39.3398247  25.6089725  21.7334766   6.4368401
  25.6104755  22.4780903   5.8353591  24.9268398  21.9424534   7.0750041
  32.7436218  45.1254387  20.7854176  33.1040382  46.0071335  20.8799839
  32.7289810  44.9727402  19.8405895  46.8631210  50.7300148  58.8063087
  46.7132187  51.5911179  59.1965141  47.3966942  50.9076576  58.0317307
  45.3576775  12.0763645  16.8257256  45.6488686  11.3773232  16.2402515
  46.0461578  12.1364298  17.4880104  12.8263845  43.8871002  84.9510880
  12.9349842  42.9879341  85.2608337  11.9654188  43.8940125  84.5328522
   2.0619345  35.9723091  41.6947289   1.3909048  36.1552277  42.3523712
   2.5716436  35.2524071  42.0664368  82.2323227  14.7318678  31.5394802
  82.3354492  15.0364952  32.4410362  83.0425186  14.9957104  31.1033611
  10.2832603  69.0362396  30.0906200   9.5387974  68.7228928  29.5769901
  10.5772543  68.2677383  30.5797005   8.9394407  43.6212044  57.4050598
   8.6147108  44.4271812  57.0035782   8.5499430  43.6153679  58.2794113
  62.1869011  59.3390045  59.7012367  62.9316635  59.1717453  60.2788048
  61.4258499  59.0406494  60.1992531  10.0019302  31.5064793  18.2660007
   9.7138758  31.9859810  17.4892559   9.3833628  31.7640629  18.9495640
  72.5479889  26.2676926  69.4628448  72.5199051  25.8678112  70.3320618
  71.7558441  26.8033104  69.4198990  43.3400497  34.2097321   2.4193566
  42.4828491  33.8117218   2.5710940  43.9564667  33.6274796   2.8634753
  83.8457108   1.2732444  30.1378841  83.0662994   1.3901180  30.6811123
  84.4665604   1.9233320  30.4667664   5.2289543  50.3956337  31.3171272
   4.8069458  51.0907860  31.8220081   5.1829515  49.6259575  31.8843269
  84.7878189  52.2873344  73.2683716  84.4853516  51.7044182  72.5719833
  84.1123352  52.2244072  73.9436417   6.6872315  54.6493073  13.4909143
   7.1169391  54.2441330  14.2441845   6.2032762  53.9341316  13.0779495
  72.8379364  28.0523968  87.4044647  73.5264816  28.7092228  87.3009567
  72.8232803  27.5869312  86.5681915  26.8696899   2.7993672  71.5686722
  27.1263199   1.9367338  71.8946152  27.6895752   3.2910502  71.5210419
  20.2429867  63.2138557  89.3757782  20.8368206  63.3134003  88.6316757
  19.7576027  64.0382767  89.4068069  53.7503929  34.3779907  14.3219566
  53.4835396  35.2745171  14.1188192  54.5696030  34.4760666  14.8072510
   5.1607318  18.0887089  86.1614304   4.9339547  17.1868992  85.9344025
   6.0468478  18.0301704  86.5186462  40.6420975  52.8562202  82.8405991
  40.7620468  52.1898499  83.5172043  39.6958694  52.9970627  82.8082275
  56.9999504   1.9629242  34.0375977  57.9225464   1.7245613  33.9468651
  56.5695877   1.5423498  33.2931900  59.2995949  13.3089972  41.1713219
  60.2279739  13.5395136  41.2060623  59.1770248  12.6985245  41.8983231
  75.4534302  61.4577522   1.7739052  75.6136169  62.0500031   1.0391841
  74.6186600  61.7502556   2.1397331  26.5067768   3.0525231  75.1556244
  26.5764580   2.5144234  75.9441833  27.3525295   2.9489689  74.7194901
  72.1367798  20.5077286  87.3830490  72.5174789  21.3067207  87.0184784
  72.6197739  19.7977085  86.9601822  63.3340149  16.6135750  85.1223526
  63.9963760  17.2907848  84.9848709  62.9903984  16.7889576  85.9983673
   8.3870697  33.1997185  25.9062328   7.9690270  33.4286041  25.0761223
   8.8743305  33.9855690  26.1537132  85.9172440   6.9374051  56.9835587
  85.4950104   6.1481051  56.6445045  86.8330078   6.8518634  56.7184410
  84.3581238  20.0051632  51.3042412  85.1772156  19.9495468  50.8120689
  84.6187515  19.8848610  52.2173882  32.6134834  53.8100319  37.4827766
  33.0312424  53.7347107  38.3407021  32.4584389  52.9052315  37.2116127
  35.5158119  35.3100395   8.5980511  34.9491158  36.0809364   8.6264143
  35.1619453  34.7787590   7.8847823  65.2808685  29.2989254  15.5063276
  65.5961914  30.1926193  15.3717394  65.8700638  28.9339333  16.1665287
  50.4040718  21.3477669   1.3707439  50.2116508  21.2085075   2.2980044
  51.2960281  21.0188274   1.2591935  27.1483059  41.8829193  49.2444649
  26.4436684  42.4758301  49.5055695  26.7051907  41.1767540  48.7741318
   6.8030038  22.0686150  15.1216516   6.3637810  21.5452042  15.7919931
   7.6352315  22.3206882  15.5217619  70.0695267  20.8158627  20.7861691
  69.5403442  21.5137157  21.1724319  70.1656570  20.1718826  21.4877968
  46.0084381   0.4376003  16.3340073  46.7785797   0.4666209  15.7663164
  45.8766556   1.3459780  16.6055126  18.6988506   1.8901057  46.3106766
  19.0245895   1.4239277  47.0806122  19.1306782   1.4623576  45.5712242
  30.4396000  53.6530724  79.1127167  29.9869823  54.2858734  79.6703262
  30.8268948  54.1822357  78.4154205  50.8387604  14.1314917  53.9478149
  50.3195953  13.4619074  53.5024452  50.3175888  14.9304790  53.8688850
  72.6653519   9.0890522  39.2812119  72.4913712   9.9103031  38.8213158
  72.8797836   9.3558989  40.1751060  79.5380783  18.9290352  45.0252686
  79.7372284  18.9287548  45.9615250  78.7636566  18.3722076  44.9449577
  84.0341721   4.9307251  48.2535172  84.7214127   5.2778192  48.8222542
  83.3917694   4.5553765  48.8557358  58.5046082  57.8148346  51.2336349
  58.7189827  57.4066238  50.3948021  59.2159920  58.4368820  51.3860359
  59.1755676  11.1030302  19.9506149  60.0342941  11.4450912  19.7019920
  58.7892418  10.8042822  19.1273689   5.0274434  20.8200684  87.2389832
   5.3775015  20.0140915  86.8593903   4.8350410  20.5925369  88.1486206
  72.4481201  10.4071760  78.3582993  73.1529922  10.1299105  77.7730560
  71.7241364  10.6292591  77.7728424  19.3875790   3.8365879  11.1880569
  18.6112175   3.9479389  11.7367811  19.0404263   3.6138675  10.3242788
  79.5372772   6.3409300  86.1068192  78.5900345   6.2062936  86.1358337
  79.8470154   5.7220516  85.4455490   2.2264376  36.7984810   5.9965897
   2.8402207  36.7525139   6.7296576   1.3712362  36.9241486   6.4077711
  48.5239029  60.3194084  86.1705170  49.0396729  59.9342346  85.4621048
  48.9639397  60.0322990  86.9706192  77.5361099  17.7130241  23.9289017
  77.6294403  17.4739819  23.0067425  77.3141708  18.6440163  23.9137211
  62.0409126  53.8125381  38.5521049  62.2295456  53.1020546  39.1651840
  62.8903008  54.2247963  38.3945732  10.1325054  69.3232956   2.5794365
  10.7358885  69.5736694   1.8798125  10.6432180  68.7370987   3.1378014
  71.3290634  30.7763062  74.9788055  70.7075119  31.3606510  75.4129181
  71.6616592  30.2165184  75.6804123  25.6491261  43.6695786  16.2602768
  24.7230225  43.4374275  16.1919537  25.8139400  44.2240868  15.4976587
  23.2015152  56.0320015  69.6188507  23.0960922  55.5428276  70.4348297
  22.5034428  56.6865807  69.6401138  40.6260948   4.7202816  38.8421707
  39.9557381   5.3986211  38.7602730  41.3805237   5.0706825  38.3685799
  13.0043840  27.2288609  18.6336117  13.3392401  26.3805122  18.9241428
  12.4902315  27.5498714  19.3744431  37.9913063  68.6250534   0.7787967
  38.0431976  67.9250412   0.1280128  38.6085930  68.3632507   1.4619129
  61.9592705   3.6824734  20.4314346  61.3855515   2.9707248  20.1477203
  61.3609962   4.3780446  20.7043476  80.5240326  59.4428520  77.0566940
  79.9716721  58.8045273  76.6054001  81.1987457  58.9156647  77.4845581
  73.0667038  11.0698147  13.6217098  73.7755890  11.1486931  14.2600641
  73.2939911  10.2962770  13.1057520  32.5733185  51.5381241  64.3205719
  33.1500816  50.9226723  64.7731171  31.7592087  51.5175781  64.8236008
   2.8230550  37.7385521  49.1981583   2.8532305  37.6708450  48.2438316
   2.3691888  38.5645409  49.3654366  22.8637524  15.5847588  28.1602516
  22.3327255  15.1039629  28.7951355  23.3724022  16.1989250  28.6896954
  63.9461174  14.2606106  82.1754227  64.3064499  13.8061314  82.9368973
  63.1247864  14.6392078  82.4889755  30.8682442  69.5404510  64.5271683
  30.7874832  68.6304703  64.2414322  30.2577286  69.6163177  65.2604752
   2.8985624  13.6975641  29.2813797   3.4878461  12.9770031  29.0582905
   3.1122193  13.9091101  30.1901321  21.1316147  17.6249428  52.7961617
  21.2128448  17.5469933  51.8456078  20.9335117  16.7368393  53.0932465
  56.3482170  36.9860764   8.2628231  55.7660141  36.8169518   9.0035429
  56.5433922  37.9214058   8.3202763  83.7362061  33.2504616  12.5538149
  84.2632751  33.7252731  13.1964550  83.9224396  33.6863937  11.7222414
  74.5424042  71.7581482  12.4261293  74.9354248  70.8938446  12.5475626
  74.9078598  72.0734558  11.5995369  60.5867157  28.5872383  43.4932594
  59.7138367  28.9032307  43.2598877  60.5804482  28.5507984  44.4497452
  68.5687637  17.1687355  48.6580353  68.7683105  17.8743477  49.2732811
  68.1957703  16.4750252  49.2019806  23.0341835  48.4705582  33.4374428
  23.0520287  47.8212967  32.7343254  22.3236160  48.1832047  34.0108147
  71.5021515  46.5351067  50.7898979  71.0381699  46.3803444  51.6126938
  71.4500961  47.4820251  50.6600151  79.7278519  10.5178957  32.1919670
  79.7387314  11.4109888  31.8477287  79.4263840   9.9820824  31.4583073
   6.9227967  48.8327789  58.4150505   6.6256471  49.7283287  58.2540436
   7.8694768  48.9119797  58.5323372  45.4497261  11.0543089  25.0004711
  45.4141159  11.3555098  24.0925941  44.5813103  10.6869440  25.1651783
  48.9231987   1.7435628  17.7161083  48.7065964   1.8017277  16.7855530
  49.7186775   1.2119024  17.7440872  21.2350311  37.5171089   6.6175985
  21.0242023  36.9175377   7.3333492  21.2242050  38.3850212   7.0211353
  51.7248344  18.7559967  10.0708895  52.6816406  18.7682133  10.0954790
  51.5006790  19.1959915   9.2508955  63.4848824  20.4903355  28.7365112
  64.3052368  20.6272125  29.2103424  62.9177513  20.0421848  29.3640099
   0.4772609  33.9584274  25.8497944   1.4238991  33.8229485  25.8079185
   0.3760586  34.8156281  26.2635498  55.9579735  59.4705582   4.2262526
  56.8589592  59.1482315   4.2500668  55.5705681  59.1593742   5.0443683
  47.7733498  43.1675148  21.2776985  48.4803543  42.5742683  21.5315285
  47.1323395  43.0924950  21.9846020  79.0082474  30.3414383  10.7386246
  78.8141098  29.6851254  11.4077997  78.5498505  30.0304241   9.9579992
  63.7383537  24.5863171  36.9614830  63.6763115  23.9586353  36.2414818
  63.0644417  25.2384014  36.7694969  54.1664238  39.9104271  20.6780434
  53.7402458  40.4315033  21.3585472  53.4785767  39.7523193  20.0314369
  85.1050339  31.2150764  65.4955215  85.4539490  30.5627480  66.1029434
  85.7683716  31.2817554  64.8086700  31.8616447  35.5480690  22.5579033
  32.1115456  36.0475502  21.7805347  32.5387001  35.7536316  23.2025547
  75.7857437  61.8678017  33.6882248  75.8928223  61.8609276  34.6393929
  74.9079208  61.5146599  33.5434647  44.2437973  63.2025757  29.9519749
  45.0344620  63.1320992  30.4868679  44.3644333  64.0094604  29.4513588
  21.3836594   3.4768703  54.1626472  20.4266968   3.4625156  54.1468849
  21.6237545   4.1458521  53.5215149   5.2393718  47.4681282  38.2932320
   5.1994147  46.5872498  38.6656380   5.1402464  47.3343849  37.3506203
  71.4115372  31.3708687  31.7960567  70.7466736  31.7853241  31.2461376
  72.1350327  31.9974327  31.8104553  80.9980698  11.4166279  77.8134766
  81.3373413  12.3116798  77.8109589  80.6468811  11.2911205  76.9319153
   5.6928806  34.7399826   5.4731350   6.4924312  35.2597313   5.3906012
   5.4898558  34.7597122   6.4083481  62.5581970  52.1848297  54.6836319
  62.5862617  52.7688828  53.9257927  61.8622055  51.5603371  54.4790955
  82.3177490  56.9605827  69.6036224  83.0165863  56.7360992  70.2180099
  82.3666687  56.2844925  68.9277954  74.6227722  30.9240932  46.4219131
  74.3352203  30.8717175  47.3333969  73.8130493  30.8868828  45.9127998
   3.6936812  21.7420597  80.9494476   4.6394739  21.8567696  80.8569794
   3.3849344  22.5755177  81.3047714   5.6704712  31.0612354  13.9028807
   4.9032216  31.6183643  13.7718525   6.3949652  31.5580692  13.5227537
  35.7509422  55.6781387   3.1518135  36.6813164  55.4952583   3.0206966
  35.7126617  56.1342812   3.9924667  58.6531906  25.2421589  78.5481262
  58.8733444  26.1246586  78.8463821  58.0359840  25.3792362  77.8294449
  32.9962044   9.6584339  20.2923183  33.7046318   9.5797682  19.6534328
  32.2238693   9.3247128  19.8358536  38.1346092  44.2218781  84.6097488
  37.3879471  44.8087959  84.7291489  38.1471024  43.6858444  85.4026871
  86.6467590   7.6020164  24.5696812  87.4061737   8.1841784  24.5942478
  86.5540085   7.2911935  25.4702473  78.2494125  31.3035030   1.6628556
  78.5026550  32.1128654   1.2189739  79.0603027  30.7981796   1.7205818
  75.8698425  26.9331303  40.8079224  75.5317993  27.8039360  41.0168610
  76.7870178  27.0811901  40.5774727  60.0454597  61.1731720   0.9186738
  60.5056458  60.5837364   0.3211557  60.0760574  60.7277222   1.7653542
  47.8753510   3.3469508  38.9325867  46.9358635   3.2096732  39.0540466
  48.1619415   2.5958927  38.4129601  73.7350693  61.5419121  74.9170380
  73.9109116  61.5284576  73.9762268  73.7329102  62.4710693  75.1470337
  30.6559753  64.8548508  72.7155151  31.3229160  64.1882935  72.5508270
  30.9785252  65.3327484  73.4795914  53.8507347  63.5522766  69.2351685
  53.2791557  63.3830414  69.9840927  53.4585991  64.3098526  68.8009644
  73.3713074  55.4877701  41.8779259  73.3145447  55.3165283  42.8179703
  74.1507492  55.0101204  41.5941010  45.3942375  65.1804733  20.0854988
  45.1272812  65.0680847  20.9978199  44.5712395  65.2586975  19.6030197
   8.0173941  68.2880707  61.7070503   7.2331476  68.6314392  62.1351738
   8.5802145  69.0532455  61.5888443  38.8782387  13.0696077  79.3070450
  39.2910538  12.4112749  78.7481079  39.6110687  13.5420313  79.7020264
  54.5599365  29.0165863  32.6766968  53.7523041  29.3311119  33.0829468
  54.7387657  29.6474991  31.9794178  52.6961060  58.7736244  56.3647728
  53.5317612  59.0561562  56.7363777  52.7347755  59.0514832  55.4496078
   5.8464823  45.0869675  39.3607864   5.5473113  44.8298569  40.2329254
   6.8014765  45.0877304  39.4257355  31.6588821  10.1769981  83.3827515
  30.8962841  10.6625051  83.0681763  31.3027992   9.5592785  84.0213928
  18.3085175   9.4596729  14.9674768  17.9961910   9.1866665  15.8301191
  19.2113914   9.7400208  15.1173286  34.9759598  43.1360474  20.3460426
  34.2255745  43.7035751  20.5222931  34.5942116  42.2681656  20.2145767
  19.8463478  29.9010639  77.8493500  19.5797176  29.1120129  77.3776093
  19.2639885  30.5854797  77.5197067  34.3133278   9.8372946  83.4109726
  34.7253876   9.9734421  82.5578003  33.3738098   9.8541861  83.2286224
  71.8382187  62.7236176  27.7007866  71.2775726  63.4697189  27.9134750
  71.7669449  62.6336746  26.7504902   5.8321943  26.4653282  22.8276005
   5.3024473  27.2503223  22.6883774   6.0231276  26.4684753  23.7655582
  67.8250504  57.2233086  79.9359055  67.9186783  57.9741707  79.3496704
  68.5506744  57.3101501  80.5541000   4.6014738  43.0289917  86.7982941
   5.1244864  42.9420929  87.5952530   5.2323694  43.2813187  86.1241074
  45.9788170  14.4339199  76.6659012  46.8152657  14.8893270  76.5700302
  46.1027679  13.6053667  76.2029037  80.6177368  33.5013657  20.5064945
  81.3853760  33.0627823  20.8733864  79.8830109  32.9345551  20.7412968
   3.9313025  22.9077015   8.1803513   3.0920262  23.3677273   8.1953144
   3.9876089  22.4842033   9.0369205  18.8429012  53.9180336  73.2039566
  19.5825729  53.3809814  72.9198837  18.1199150  53.2981720  73.3003616
   3.1679111  58.9740791  29.0353832   2.5698757  59.6094589  28.6418419
   3.7496479  58.7175941  28.3198204  65.0822372  30.4466324   6.0712023
  65.5360641  31.1871223   5.6687765  65.6806870  30.1406307   6.7527161
  62.7287674  43.4668541  63.1687202  62.4266357  43.0152473  62.3806839
  62.9404106  42.7629623  63.7818909  15.3273735  70.3874969  16.4838181
  16.0950642  69.8213501  16.5635338  15.0040236  70.2291107  15.5969191
  48.2002831   2.2807155  63.0627823  48.0695763   1.3654757  63.3107414
  49.0436974   2.5155869  63.4497185  82.4095078  40.2445526  32.8257332
  82.6715393  39.8984642  33.6788368  82.5008392  39.5025749  32.2279358
  51.9391212  28.7108917  72.2545776  52.3422585  28.7622318  71.3879318
  51.8460808  29.6229191  72.5298615  26.2558212   7.7206783  42.7147446
  25.4402065   7.4628849  42.2851562  26.0949841   8.6143875  43.0174789
  20.7489586   6.1579390  73.3672943  20.6429043   5.8890600  74.2798157
  21.6920738   6.2837625  73.2627411  52.9024315  67.8612976  70.3345032
  52.8694191  67.7673950  69.3824921  52.7343369  68.7907944  70.4894638
  57.7305145  25.1165333  69.4152603  58.1406708  24.2539520  69.3523636
  56.8843307  25.0116787  68.9802780  60.1298637  15.3299923   8.3621502
  59.4365768  14.8297930   8.7927151  60.9173584  14.7989435   8.4807625
  64.3444901  64.2186813  26.6639652  64.2659836  64.2581024  27.6171246
  65.0431366  64.8388443  26.4553318  70.7811127  21.1826267  77.2637711
  71.6898651  20.9834843  77.0384827  70.8399887  21.9317818  77.8566666
  12.1200457  64.1887207  86.0647125  12.6023531  63.7115364  85.3895035
  11.2412815  63.8097878  86.0443497  78.7560043  71.1633682  84.1346741
  79.5690384  71.6652069  84.1926270  78.8464584  70.6528931  83.3300247
  77.4543381  38.7496414  20.3115921  77.1795349  38.8148422  21.2261753
  76.9729996  39.4471321  19.8665676   3.3869610  19.9711571  27.9198799
   3.2154710  19.2442074  28.5185184   4.3338647  20.1026897  27.9678917
  34.6466904  12.5628405  19.0812454  34.7931976  13.4729643  19.3390083
  34.9442253  12.0501804  19.8328342  83.1573181  41.7372818  14.2042665
  82.3543015  41.8554802  14.7116308  82.8553238  41.6002274  13.3063545
  44.2842560  29.4378986  12.5904818  43.4498291  29.4420013  13.0594702
  44.9032669  29.0458794  13.2064171  86.1555328  62.0351257   3.0535390
  86.5090485  61.5821037   3.8190660  86.7529907  62.7696190   2.9128203
  73.0032272  13.0851727  76.3247452  72.1174698  12.7226391  76.3093185
  73.2747040  13.0153360  77.2399826  24.8957405  53.3437500  17.2967987
  25.7432690  53.6864777  17.0131416  25.0788116  52.9132881  18.1319160
  82.9102402  10.2519712  20.2841434  83.0409851  10.2310658  19.3361454
  81.9884491  10.0235090  20.4038887  29.3878174  54.7339630   7.8618908
  29.8189354  53.8871574   7.7465973  29.4824696  55.1683044   7.0141764
  53.2644196  48.2135353  60.4276123  53.2362518  47.8508987  61.3130150
  53.2322464  49.1615486  60.5559349  22.9119530  60.4544868  59.7167892
  22.2763805  60.5437050  59.0066376  22.8453732  59.5377655  59.9840393
  22.9042759  65.0738602  21.2126656  22.8377380  66.0119553  21.3909416
  23.1742401  64.6900711  22.0469646  55.5315704  54.3866577  71.5477219
  54.8519287  54.2121887  70.8966599  55.8183479  55.2805824  71.3609314
  58.1674614  54.5922852  31.5400066  58.4867325  55.1485062  30.8294334
  58.6748123  53.7847137  31.4584579  70.8193130   8.6768379  83.9446106
  70.9002304   8.3933420  84.8552780  71.1732559   7.9482474  83.4346008
  73.8256454  26.8521194  36.2127953  74.4947433  26.6754723  35.5514832
  74.1413345  26.4052868  36.9982338  14.8831749  31.4531021   9.8258324
  15.3025513  30.8616199  10.4507370  14.9019117  30.9769344   8.9956856
  28.5695152  38.6570168  20.6159096  29.4997139  38.8634567  20.5245647
  28.1262646  39.4995003  20.5160160  72.3037796  59.4387207  85.1888962
  72.8235321  59.9660187  84.5822296  72.1214828  60.0268326  85.9217834
   3.0599480  55.9160385   5.2551651   3.6702738  56.1586723   5.9514866
   2.7299495  56.7513428   4.9241028  73.2395859  11.7607641  55.0426445
  73.1072311  11.6287432  54.1038780  72.4155579  12.1386433  55.3498993
  20.8061371  70.9280548  64.2551193  20.8639622  71.1598206  63.3282051
  20.9458351  71.7542953  64.7177658  75.6499557  42.3122368   2.4899113
  75.7901077  41.9311905   3.3567417  76.3594742  42.9468880   2.3897002
  57.8937073  61.4667969  12.5547819  57.7698059  60.5198975  12.6201057
  57.0477524  61.8369942  12.8068733  52.6436234  54.2347984  48.6525574
  53.2403526  54.9822426  48.6142120  53.2157059  53.4778214  48.7788048
   4.2373037   8.1527510  37.5070801   4.3187733   8.3772945  36.5801620
   3.4994466   8.6779852  37.8167992  27.1108265  37.4975967  18.5547047
  26.5809593  38.2239876  18.2263355  27.5907841  37.8671303  19.2958641
  80.1762619  24.6997871  42.8271942  79.9005661  23.7984180  42.6605835
  81.1236954  24.6894836  42.6912270  81.3877792  13.7159109  73.7678452
  82.0143127  13.4179697  74.4273300  81.4720154  13.0833492  73.0544052
  12.1815481  48.0345383  73.8672333  11.9852247  47.5864525  74.6899719
  12.0429134  47.3692284  73.1931534  40.1856613  51.2410736  54.2489128
  39.6734390  51.9851418  53.9323273  39.7684784  50.4766884  53.8515320
  52.4102211  46.3247833  43.8965492  52.1476135  47.2080269  43.6374245
  53.1195602  46.0995216  43.2946167  20.5199585  54.1404114  50.4518280
  20.8434849  55.0327148  50.3279114  20.8248482  53.6655655  49.6786575
  76.6823349  26.6627865   9.5909653  77.0818481  25.9388275   9.1087770
  75.7778015  26.6881618   9.2788763  21.2405643  61.7764549  19.7734509
  21.7826538  61.8883286  18.9925194  21.8684425  61.6488991  20.4845982
   3.5015378  15.5032368  70.1598587   3.6792095  15.0704823  69.3247604
   4.3629103  15.7747602  70.4769440  78.6614304   1.9372407  82.9309769
  77.9643707   2.2052507  82.3322144  78.2195282   1.3982564  83.5870667
  57.5097694  21.5254097  22.0586491  56.7995644  20.9871998  22.4081783
  57.3006134  21.6241627  21.1298161  29.0059338   8.2199268  20.7491608
  29.3097687   8.9905672  20.2695465  28.0718365   8.3767357  20.8873806
  26.6784725  15.2692633  20.0971451  25.9006996  15.7852135  20.3095074
  26.3349552  14.4772778  19.6836395   9.9659452  70.4940414  13.6511440
   9.8062935  70.3210831  12.7233353   9.6150770  69.7259064  14.1018095
  79.7475662  46.7305031  85.4657593  78.8536377  47.0346527  85.3088226
  79.7205124  46.3502769  86.3437805   7.1681681  70.1677551  42.7419891
   6.6191940  69.3836517  42.7482948   7.8036909  70.0208282  43.4425278
  40.5123177  65.3472366  65.3741837  40.9881363  64.5824127  65.0503540
  41.1294136  65.7815628  65.9630737  41.9779472   5.6450815  29.0165920
  42.9077072   5.8273516  28.8803883  41.9446411   4.7108197  29.2222061
  83.3866043  33.8070717  85.2671661  83.2678909  34.4804878  84.5973511
  84.3273468  33.8082542  85.4439011  60.3925514  46.5901680  85.3110809
  61.1696625  47.1225510  85.4810867  59.6865883  47.2264404  85.1970291
  80.7681885  20.3967991  58.0369453  80.4155807  20.9534512  58.7312355
  81.6883850  20.6516685  57.9697304  37.9458694  43.3867149  87.4172287
  37.4108009  43.1319733  88.1689224  38.8036079  42.9992142  87.5914688
  21.7054863  17.1203136  26.3338623  22.3499317  17.7199039  26.7099133
  21.7878914  16.3221035  26.8556881  54.8920097  31.2650776   0.9053513
  54.2154198  30.6236877   0.6883767  54.5016785  32.1099586   0.6816306
  84.0143814   9.9498854  24.4109936  83.7222672   9.2678843  23.8061981
  83.8981705   9.5653505  25.2798195  79.9635849  18.3917313   0.9219318
  80.5028915  19.1823025   0.9413007  80.5912933  17.6759701   0.8224091
  27.1886482  10.1009665  79.7055511  28.1405201  10.2013083  79.7157822
  26.8665371  10.8158073  80.2546158  42.7401886  11.1208830  25.4606152
  42.0208397  10.5225401  25.2587376  42.5610352  11.8980227  24.9312859
  82.5377121  27.7065105  70.1256561  82.0970154  28.4466190  70.5431061
  82.0733948  26.9359169  70.4524994  82.5932388  70.2426758  73.1006622
  83.0852585  70.1878586  72.2814331  81.7881012  70.7041397  72.8660660
  84.1105804  26.3961868  65.6679382  83.3787918  26.4338703  66.2838058
  84.8518906  26.7567081  66.1544647  75.7986221  65.2511520  58.0532074
  75.8231659  65.4739609  58.9837914  76.6347961  64.8151093  57.8891907
  16.8973255  56.6012726  83.1767426  17.2128601  57.4705963  83.4236221
  16.2050133  56.4092140  83.8092422  12.2581215  47.4688187  44.7885475
  12.1005659  47.3443375  45.7244530  11.8893690  48.3309326  44.5961723
  63.1202812  10.4567690  66.9437180  63.0743217  11.1931438  67.5535278
  63.6309509  10.7887850  66.2053299   5.7641644  34.8756180  19.8828392
   5.7149782  35.5813675  19.2380695   6.6303797  34.9725647  20.2784443
  34.8502045  58.1786766  21.4449806  34.8303986  58.9987183  20.9516563
  33.9465675  58.0509605  21.7336979  21.6724186  62.7001305  42.5989876
  20.7897530  63.0551643  42.4937134  21.5836449  61.7708855  42.3872032
  56.4574585  48.4704056  42.5066643  55.7479668  48.7862816  43.0661964
  56.0187187  48.1670380  41.7118645  30.5334301  10.6341515   0.9117715
  31.3803272  10.3722372   0.5506628  30.7259350  11.4138165   1.4326323
  46.5403862  37.8007965  14.3442535  46.2175140  37.0737419  13.8119202
  47.1485977  37.3941269  14.9614496  82.0417175  45.7855644  45.8518562
  81.4296341  45.1127167  46.1499519  81.8018951  46.5658913  46.3516655
  72.7679596  25.1288586  74.9384766  72.0442963  24.5031376  74.9704514
  73.5486679  24.6008892  75.1057129  81.0754089   0.7757356  87.1712265
  81.9323883   1.2016611  87.1910706  80.6192322   1.1195266  87.9393005
  52.0856361  40.3398361  12.9520159  51.6928673  39.9734802  12.1597109
  53.0223083  40.3792496  12.7588148  59.3929520  29.5876522  75.8798294
  58.7483253  29.2213593  75.2744217  58.9789238  29.5201302  76.7402115
  86.6214600   4.0880284  38.8436966  86.9181519   3.8207550  37.9737701
  85.8962708   3.4955482  39.0419388  24.9239235  19.0238323  19.8147736
  25.8601665  19.2172527  19.7671051  24.5257359  19.6065998  19.1681976
  85.2833176  52.8921356   1.2262069  85.8465881  53.3962975   0.6390305
  84.5547485  53.4808617   1.4232455  85.0211105  57.3991852  57.0871582
  84.9129791  57.3406181  56.1378937  84.9106979  58.3294258  57.2838593
   5.2736845  52.4231606  65.9346085   6.1895838  52.6896667  66.0142059
   4.7769551  53.1705856  66.2675400  63.3144341  35.9827995  14.9141521
  62.5197105  35.5393333  14.6175318  63.7395592  35.3504295  15.4934702
  12.9313984   2.4244900  54.5068932  12.7316818   2.1667604  55.4068489
  12.0898848   2.3806348  54.0528412  36.5331841  10.9538355  87.8915329
  36.6458740  11.4585333  87.0860443  37.3510399  10.4652576  87.9844437
  75.7429733  18.9353962  49.0632973  76.6351395  19.2261448  49.2523308
  75.3168411  19.7027397  48.6814156  27.5574341  58.5606155  14.0246601
  27.0294762  58.9030800  14.7459183  26.9175320  58.2129021  13.4034910
  58.9755707  41.3267517  17.4524040  59.1474304  41.5904655  18.3563690
  59.1694984  42.1077499  16.9340763   6.9027295   4.9810390  31.1305790
   7.4689331   5.7497411  31.1994419   6.7966909   4.6800575  32.0330200
  75.8045349  20.4841232  46.2020760  75.3807144  20.8605480  46.9733849
  76.6378632  20.9503021  46.1352272  61.7240601  41.7034607   9.3443861
  62.5335693  42.1838112   9.5181494  61.9016457  41.2184296   8.5385065
  27.8361301  11.4598789  33.8978462  28.0298386  12.2826881  33.4487419
  26.8939819  11.3386946  33.7799416  76.3677139  32.2755585  14.9285250
  76.4657211  33.0099373  14.3224621  76.3333435  32.6824341  15.7942638
  37.1269188  16.5612736  88.9474487  37.5640717  15.7741356  88.6225739
  36.2323074  16.2778492  89.1360550  33.6676941  49.0388527  48.3996582
  33.4383087  49.6902313  49.0624695  33.5713882  49.5005417  47.5667114
  40.2762184  39.6551704  42.9690666  40.4052582  39.6893082  43.9169159
  40.4476433  40.5487022  42.6716690  32.2666473  57.7416840  32.6313133
  32.1395493  58.2241554  31.8144321  31.4089947  57.7595749  33.0559807
  69.7886581  69.3854523   8.1603994  70.3761978  68.8116455   8.6521044
  69.0102997  69.4610138   8.7123842  75.1825180   1.3493108  26.3406601
  74.6385193   0.7566396  26.8593464  74.9390488   2.2242498  26.6430416
  79.0501938  34.3983307  18.1496639  79.7619476  33.8845673  18.5313473
  79.2044296  35.2900200  18.4616432  43.2541351   6.5639801  67.5440292
  43.1382637   7.5139341  67.5638657  42.3647804   6.2131786  67.5910873
  13.8330803   6.1258655  27.0408535  13.8423615   6.8047500  27.7155838
  14.5856447   5.5718670  27.2481308  35.0268860  31.0748730  82.3648834
  35.2632751  31.7570877  81.7364426  35.7671089  31.0404739  82.9707870
  61.4483871  68.9651337  74.3813705  62.2720261  69.1962128  74.8108521
  61.7004051  68.3429642  73.6990051  47.3629417  63.7194214  47.8185883
  46.4319191  63.7987366  48.0262947  47.7436600  64.5499039  48.1042137
  72.2964859  68.7660141  58.3230934  71.4018707  68.9247284  58.0219040
  72.2770844  67.8750305  58.6723785  82.8965073  25.3453884  56.8840446
  83.1305161  25.5417824  55.9769058  83.2985306  26.0494251  57.3929062
  68.5892181  38.9038887  55.4849663  69.0296783  38.2774925  54.9106407
  67.9742508  38.3731842  55.9913292  22.7200603  21.1641102  22.9097500
  23.4746513  20.6039753  22.7278919  22.3675556  20.8306446  23.7348404
  45.9634628   1.3319291  69.4840775  45.1682396   0.8615812  69.2338257
  46.5815926   0.6435881  69.7297134  86.2182693  17.6385555  34.3990364
  85.6425247  18.3996143  34.4734344  86.3965378  17.5638237  33.4615555
   9.6682510   4.9729495  67.9597549   8.9145117   4.4278836  67.7339020
   9.5459194   5.7739062  67.4501190  41.3554382   6.0952616  13.5006495
  40.6551476   5.7748728  14.0691357  41.3331871   5.5125747  12.7415628
  53.9078636   1.3971243  39.5060577  54.7923775   1.3247807  39.8647041
  53.5800018   2.2306938  39.8435516  56.8405724  67.0571976  28.1732044
  56.3577957  67.6835022  28.7125549  56.9173889  66.2771835  28.7226658
  82.1065903  32.0445518  60.0773888  81.4430542  31.9663124  59.3919449
  82.1922226  32.9869766  60.2213860  76.6892548  34.5418892  20.5840054
  76.6042862  33.5916672  20.5059471  75.7998047  34.8481560  20.7609425
  86.6684494  39.5945816  28.8053703  86.3790817  39.9086380  29.6620293
  87.5310822  39.2133293  28.9689064  50.5775261  68.6721191  73.3043747
  50.8234062  67.8901901  72.8100433  49.9516563  69.1255341  72.7396317
   9.2479734  71.1911240  71.3685379   8.5894823  70.5682526  71.6762009
   9.8049068  70.6802597  70.7811127  67.7085114  50.2049484  19.3340549
  67.2587509  49.6500320  19.9712467  68.6064835  49.8737793  19.3196812
  27.8452415  65.2149048  41.2678642  27.2748203  65.5726013  41.9482422
  28.5376301  65.8682404  41.1679268  35.9256897   1.8523076   5.6213160
  35.0913620   1.6140796   5.2171144  35.9665642   1.3216430   6.4169016
  18.9176979  69.0550308  25.3194408  18.1478481  68.5750198  25.0142307
  19.3450356  69.3569260  24.5178967  33.9658012  52.2706985  47.4652939
  33.0368996  52.0577583  47.5549240  34.1556511  52.8347168  48.2150078
  68.7989960  46.9012909  80.0743027  68.4008026  46.9935303  80.9398499
  68.4217529  47.6148987  79.5598297  80.6372604  42.3660240  32.0040092
  81.2310104  41.6526489  31.7699280  80.3945999  42.1873093  32.9125290
  54.3184128  49.0012436  82.8730392  54.8237190  49.5948982  83.4284439
  54.6321754  48.1280289  83.1081467  46.0414238  53.4629402  59.2094421
  46.2298889  53.7686081  58.3221512  45.1659355  53.0805321  59.1501274
  60.6993217  34.4990005  15.2930441  60.1768341  33.7798424  15.6480818
  60.3048592  34.6835632  14.4406548  11.0457602   4.2170920  18.8676891
  10.6451044   3.3619559  18.7113266  11.1422110   4.5994816  17.9955044
  33.4435272  52.9538841  44.9257851  33.6646843  52.6501770  45.8061752
  34.2352448  53.3957558  44.6189270  17.2339211   1.9461547   3.6681252
  16.9363194   2.2800069   4.5144157  16.4766636   2.0465829   3.0913150
  52.3053169  39.4598198   1.4451112  52.2482109  40.4137192   1.5002573
  51.5114899  39.1468811   1.8788637  50.9581337  19.0505600  84.5642624
  50.1566353  18.5553875  84.7334900  51.6228867  18.3815937  84.4005051
   2.4661081  45.8136177  59.3797684   3.4095724  45.7970543  59.5404968
   2.1612389  46.6045227  59.8244629  11.1220655  27.2394600  86.1360168
  12.0186176  27.2998409  86.4658356  11.0902929  26.3977203  85.6813736
  70.9755707  71.1755524  35.8361549  71.6645966  70.5263672  35.9776840
  71.0650558  71.4230423  34.9158440  24.3372631  31.7602596  77.3493500
  23.5596199  31.8010712  77.9059830  24.0174637  31.4144688  76.5160522
  80.5191727  43.4601669  63.3739433  80.9575424  42.7941666  63.9035721
  80.9311066  43.3906670  62.5127144  78.0181961  25.6403637  59.8763008
  77.2618027  25.8793697  60.4120026  77.6928787  24.9520817  59.2960701
  68.8595276   3.8272309  54.2873764  68.5674362   3.0066359  54.6842842
  69.7985611   3.7048650  54.1478271  38.1440544  55.2362747  69.1123962
  38.2606964  56.1655273  69.3101807  37.3565025  55.2040100  68.5692978
  14.2073889  57.0393143  36.5669518  13.7405710  56.2044487  36.6031265
  14.9534597  56.9222374  37.1550903  64.4416580  41.3942375  20.1294174
  64.8013535  40.9672546  19.3518963  64.4771576  42.3291740  19.9272690
  79.6147308  58.2666969  61.5192642  80.2929688  58.7922630  61.9435272
  80.0774918  57.4930573  61.1974525   0.6634043   4.1175489   2.1681974
   0.0439412   3.4116960   1.9830796   1.3857880   3.9683654   1.5581663
   6.1623755  32.3011093  68.4038620   6.8691740  32.3172646  69.0491562
   6.0948558  33.2062416  68.0998688   9.7971277  15.8174410  88.6773529
  10.7230968  16.0129395  88.5338516   9.5567827  15.2471142  87.9471588
  19.0520420  43.4176941  22.2891083  18.9641037  42.6081352  21.7860088
  19.9281845  43.3681412  22.6714020  74.4556351  47.7196007  80.4721298
  73.6811676  47.7415352  79.9100418  74.8532944  48.5837746  80.3658142
  48.8793869   0.9044785   8.2607632  48.1012650   1.1362202   8.7677670
  48.5381622   0.6352630   7.4079332  12.5455093  63.7509613  44.6703682
  12.6897202  62.8648453  44.3383522  11.7915049  63.6682243  45.2542038
  48.2277603  68.1747818  86.6677322  47.8375168  69.0235138  86.4589386
  47.4964600  67.5584946  86.6274490  36.1404915  69.9982910  39.8884583
  36.1735573  70.7682114  40.4562302  36.1708603  69.2550049  40.4908218
  12.5938444   1.1664380  80.9227829  11.9229822   1.0050882  81.5862122
  13.2807617   1.6439245  81.3879547  15.6220055  70.4322205  22.7640839
  14.8553371  70.8839493  22.4113865  16.3361702  71.0624008  22.6688194
  83.9740677  11.7967386  70.1082687  84.0736389  11.1977339  69.3683243
  84.6529999  12.4580173  69.9741440  75.3906403  14.6708450  77.4682846
  74.4359970  14.6026297  77.4530258  75.6040878  14.8392267  78.3860703
  62.0112381  33.1580467  70.5492477  62.2978859  33.2724342  69.6431732
  62.7829361  33.3723297  71.0734634  19.3416901  39.2428932  38.2590141
  20.2091084  39.4114571  38.6269836  19.3432121  38.3063049  38.0614319
  42.8699265  40.5727463  71.7766266  43.1796188  39.6888542  71.9742584
  42.7842598  40.9934006  72.6321564  56.9456406   7.9801331  75.1923599
  57.7710915   7.4964852  75.1615448  57.1767426   8.8238192  75.5809708
  60.8552361  23.6904507  49.2653389  61.4573898  23.0922699  48.8228264
  61.2939568  24.5405083  49.2313385  49.7241707  71.3329849   2.7103364
  48.8774910  70.8874283   2.7393453  50.0252304  71.2167664   1.8091785
  48.3023682  62.7880974  16.1391754  48.6891632  63.6396828  15.9356632
  48.9233475  62.1520004  15.7842121  55.1931763  46.5106430  32.4433708
  54.8878098  46.0701485  33.2364349  55.6823730  45.8382759  31.9691963
  15.1852369  51.9134026  30.2911758  14.4282856  51.6248283  30.8010616
  14.8098354  52.2703400  29.4862537  53.2168846  37.7499619  68.7350540
  53.6289139  38.3398705  69.3663025  52.6271057  38.3115311  68.2320328
  50.1062469  37.1916695  64.8420181  50.2075920  36.8751335  65.7396622
  51.0003548  37.3620682  64.5457611  24.0073433   0.5815836  82.4216232
  24.3693523   1.3711495  82.0194244  24.6302032  -0.1093178  82.1959381
  78.9505081   2.6429808   3.0935862  78.9719925   3.5979006   3.1560245
  78.0804825   2.4016843   3.4114954  27.9427090  33.3303528  23.9345131
  27.7792053  34.1099129  24.4653473  28.5213928  33.6339111  23.2350769
  53.3928719  46.2932549  85.4893723  52.7959480  47.0406113  85.4523392
  54.0165863  46.4495239  84.7802963  54.5818710  55.2820969  79.1989822
  54.9963188  56.0625572  78.8310928  55.1675911  54.5641136  78.9588470
  33.6598663  61.2942810  75.1921768  34.1439209  62.0887527  75.4174347
  34.0598373  60.6098938  75.7287140  44.9901543  42.0180626  13.9994183
  45.3161087  41.8759613  14.8881216  45.1856194  42.9371071  13.8167048
  47.7258148  38.0442772  52.4619789  47.3834724  38.6806602  51.8342438
  48.5606117  37.7634125  52.0871964  67.7178345  18.2941265  73.4414444
  68.6364288  18.1013508  73.6292038  67.7343979  18.7349300  72.5919495
  74.5007935  44.7285881  75.3735809  75.1311417  44.6347809  76.0877914
  74.9896774  44.4813957  74.5886383  72.5095978  27.4131451  10.4754162
  72.4057541  27.8525753  11.3194237  72.1625061  28.0359859   9.8367996
  64.9569931  49.6879539  26.2837524  64.5221176  49.9771233  25.4815712
  65.7437973  49.2353745  25.9798641  72.1361389  66.5832291  86.8193359
  72.4906464  65.7173996  86.6171188  72.6899872  66.9090881  87.5287781
   6.0092859  20.4239407  77.2377014   5.8267045  21.0631943  76.5490417
   6.1306992  20.9508610  78.0275421  26.7029991  66.0701828  38.7608604
  26.3782368  65.4032898  38.1558723  27.1258698  65.5729218  39.4609604
  12.3374672  34.3811836  63.1764183  13.2217236  34.3789825  63.5429115
  12.2413673  35.2507210  62.7879601  11.6734209  67.2941208   3.9588859
  12.6044903  67.5102692   4.0100884  11.4539394  66.9718018   4.8330545
   4.7322683  30.7943630  86.1908112   5.3504057  30.0635929  86.1802521
   4.1706467  30.6221046  86.9465485  10.6341257  46.6243935  27.5736637
  11.4837875  47.0001602  27.8041096  10.1345472  46.6433067  28.3899326
   6.3426971   5.2294397  87.1872711   6.1441984   5.2044358  86.2512131
   6.0454440   4.3817511  87.5178757  72.0180206  37.0695801  70.1408310
  72.4644012  37.9159889  70.1170654  71.1923065  37.2468376  70.5914001
  70.3048706  28.6593208  83.3879013  71.1992188  28.6990070  83.7267151
  70.4113007  28.5310879  82.4453201   2.8739979  65.2599869  41.1455956
   2.6368010  66.1677628  40.9561119   2.5465114  64.7650986  40.3945503
  51.4694633  51.2881012  30.2602024  52.0062027  50.9713173  29.5337105
  51.6370506  52.2300797  30.2888451  65.5672379  21.9722843  38.7221336
  65.7214203  22.0367889  37.7796402  66.3732529  21.5918770  39.0712090
  70.7460327  64.4919891  57.5276871  71.6700058  64.7405930  57.5011482
  70.7567215  63.5372047  57.5947990  49.5072594  34.9988022  51.8239174
  49.6283913  35.3652763  52.6998482  48.6433830  34.5876274  51.8536758
  28.9256916  63.5646820  25.4521790  28.7572308  62.9089203  24.7755489
  28.2746849  63.3823433  26.1298027  23.1791859  35.4083977   3.3786955
  22.8914986  35.5733528   4.2766137  22.9176292  34.5040207   3.2057118
   9.2371140  59.3002968  83.7066193   8.8834333  59.9945602  83.1506119
   9.6820526  58.7098465  83.0986481  57.3203545  65.1865845  18.0390568
  56.8599701  65.9208221  18.4454727  56.9219627  64.4085770  18.4292145
   5.0573225  43.1568985   8.6390820   4.3247728  43.6664009   8.9855099
   4.6446114  42.4649162   8.1223059  86.3093262  67.0306473  68.0794907
  85.6591721  67.5189590  67.5744324  86.5944748  67.6426163  68.7580261
  27.9125481   6.2345772  10.8917713  28.0329762   5.6582351  11.6464624
  27.7545452   7.0983253  11.2728310  63.8079033  66.2451859   4.3540840
  62.9325218  65.8729248   4.2474737  64.3587494  65.7360001   3.7594960
  70.6528854  55.1393280  15.6791210  71.1853714  54.4419136  15.2966328
  70.2538834  54.7395782  16.4519291   8.1793242  45.9489632  72.1887894
   7.5306740  46.4551811  72.6779022   7.8818636  45.0422707  72.2639847
  61.8297310  10.8178110  16.2526588  60.9601860  11.2171001  16.2789402
  61.6680183   9.8830595  16.3804054  38.5358467  14.8825531  23.3863449
  38.8383331  14.0580912  23.7671337  39.2304993  15.1344528  22.7778721
  75.6868973  48.5981674  43.4018097  75.4890671  48.3009949  42.5136757
  76.5886841  48.3154221  43.5536842   8.5531921  66.1132126  85.2288284
   8.0431795  66.5112915  85.9342728   8.4645004  65.1708679  85.3714828
  68.8609619  20.5976334  25.3777199  67.9318466  20.6053181  25.1476936
  68.8913193  20.1785622  26.2377720  70.8185501  23.5896854  88.4010391
  70.8149109  22.8325291  88.9866409  70.0524368  24.0996571  88.6641541
  41.4312820  65.8765564  14.5909767  40.5336800  65.5562820  14.6802130
  41.4143829  66.7492218  14.9839096   9.1648760  28.9847679  85.9138565
   8.9041443  28.8075886  85.0100555  10.0163078  28.5571518  86.0057220
  61.5618935  12.6846914  54.7570724  61.4980812  11.8141870  54.3641586
  62.3518066  12.6467361  55.2963562  42.6617851  44.1587524  72.0707779
  42.9657631  45.0659599  72.0424347  41.7193604  44.2266083  72.2239532
   7.2596645  61.6590309  66.9812775   8.1944866  61.8336220  67.0901718
   6.8974323  61.7348518  67.8640442  16.1802902  29.2293739  81.2725677
  15.4873543  29.5169449  80.6781082  16.7023048  30.0160465  81.4302979
  72.5316391  62.6669922  25.1076145  73.2229691  63.1009712  25.6075668
  72.9990463  62.1497459  24.4517059   2.7710841  70.6836319   5.4461980
   2.6417620  71.6152420   5.2684045   2.6925955  70.6081390   6.3971825
  30.9090004  55.5295105  34.9296646  30.1517582  55.5646782  34.3452187
  31.5707626  55.0457611  34.4354134  72.7866516  26.8322201  30.9484711
  71.9119644  26.6775417  30.5917721  72.8733749  26.1930561  31.6557064
  34.9795570  42.5401344  77.2187119  34.9824677  41.7638168  76.6587601
  35.3348694  43.2358055  76.6655121  48.2036552  52.6725578  84.1581345
  47.8682175  53.4901352  84.5259399  48.2935829  52.8502388  83.2218781
  30.9196186   1.8301526  26.6220493  30.1561108   2.3677018  26.8325882
  31.5331154   1.9945607  27.3381672   9.7025213  61.3377266  57.1646423
   9.1043205  60.6169052  56.9676514  10.1771889  61.4854050  56.3466454
  38.7125092  57.2651787  19.9909916  38.3796692  57.4029655  20.8778210
  39.5659485  56.8505135  20.1172085  50.2906075  20.2772427  29.6361637
  49.9853020  19.9257526  30.4725094  50.4295464  19.5048428  29.0881443
  57.9184532   4.5676908  85.7160263  58.0923462   4.8296509  86.6201172
  58.7510300   4.2119589  85.4053802  24.1364803  12.9551458  75.1890564
  24.0723953  13.2653999  76.0923157  24.7965126  12.2625895  75.2199554
  37.8963928  23.0573463  75.9284668  37.4667587  23.8872547  76.1355896
  37.1806831  22.4729939  75.6784134   6.6697779  10.8581409  88.7705536
   7.1972885  10.4799957  88.0670090   6.2338390  11.6083384  88.3663330
  15.0671797  42.5576553  66.3182678  15.6160345  41.7739258  66.2907639
  14.6302071  42.5143204  67.1688004  58.6789207  39.3012238   8.3157206
  59.2391663  38.5301895   8.4043894  58.4788895  39.5567780   9.2162275
  43.8558388   5.2964940  55.2051125  43.8868637   5.3796759  54.2520409
  44.4193954   6.0007715  55.5254745  52.3767433  16.6805458   5.8933125
  53.2228050  17.0486736   6.1480522  52.2940025  15.8845453   6.4184504
  24.3642082   5.9064674  47.1703758  24.8166122   5.6417556  46.3694458
  25.0503578   6.2876854  47.7181931  31.1450596  54.2694244  40.7998581
  31.9570370  53.7815437  40.6623878  30.8429413  53.9927597  41.6649666
  59.2369690  38.6319389  22.7121639  58.6914597  39.3650436  22.4271889
  59.1240768  38.6045494  23.6622906  44.5871277  37.5764694  63.4796219
  45.2918549  37.6229439  62.8335342  44.2479935  38.4702225  63.5288429
  67.6728897  23.0377045  60.1130791  67.3778305  22.3172379  59.5562134
  68.2594452  22.6254826  60.7473183  70.7265167  19.6688538   6.9841371
  70.1660156  19.0130959   6.5693450  71.4025803  19.8530846   6.3320398
  65.6891785  67.6892548  35.9829559  66.0865326  68.3531876  35.4194527
  65.4546204  66.9781952  35.3866196  44.0361595  28.5253773  24.8944569
  44.4917793  27.6908665  25.0050793  43.1892242  28.3942089  25.3207531
  39.1717949  46.5563622  75.3948364  40.0501900  46.9235954  75.4937897
  38.5981445  47.3202934  75.3351135  66.2349167   7.8129630  38.5660439
  66.5641861   8.0680027  39.4278831  66.4871826   8.5346689  37.9900818
  24.9994125  50.5496483  88.6602783  25.7916565  50.2259254  89.0889816
  24.2977257  49.9975471  89.0053177  40.6004715   7.2465882  75.9958115
  39.8414764   7.7996402  75.8106308  41.3104019   7.6352134  75.4847336
  65.4176254  62.1461105  88.8312607  64.6999130  61.5158577  88.8937988
  65.2433014  62.7776375  89.5291214  47.6599617  60.9823380  34.5468712
  46.7369003  60.8320427  34.7508354  47.6863708  61.0503273  33.5924530
  11.7829275  31.0945263   1.9247949  11.7964144  31.1439476   0.9689668
  12.4857397  30.4823895   2.1429160  64.8587799  54.5322838  12.0699377
  64.5009613  54.1938896  12.8907223  65.2418900  55.3771248  12.3059444
  61.2029991  62.9677544  51.5471382  61.5185204  62.3805161  50.8602371
  61.1543884  63.8255692  51.1252136  81.4773560   8.6781502   2.3471863
  82.1610489   8.6340008   1.6787205  80.8590927   7.9893093   2.1033003
   8.3974886  40.6431732  67.0581741   7.7120976  41.2973785  67.1941223
   7.9233837  39.8431549  66.8313980  69.2000504  44.9683304  11.6007681
  69.0295486  44.4478569  12.3857946  69.6347733  44.3619690  11.0011244
  26.1990700  12.5150490  84.5694733  26.5754948  13.2673521  84.1127701
  25.5944290  12.1283646  83.9361343  72.3889999  23.6242294  11.0046129
  72.6255188  24.2596722  11.6802635  73.0585785  22.9434471  11.0711708
  38.4795265  14.7522612  68.6067352  39.0139503  13.9589424  68.5710907
  37.7807999  14.5427008  69.2264938  55.5279350  25.6879635  86.2458191
  55.2666512  26.5060673  86.6685104  56.4838219  25.7283707  86.2161026
  86.4631348  52.3540001  84.1040649  86.8260880  51.8933029  83.3475952
  86.6946716  51.8045235  84.8528595  16.9968357  52.3697433  77.6948318
  17.3690033  51.5356216  77.9811249  17.6252537  53.0273285  77.9930038
  63.2982674  13.5022106  87.5312576  62.6986580  14.2483320  87.5333633
  63.3901176  13.2661572  88.4543381  60.8903885  18.0964451  86.3136978
  61.4034119  18.8740997  86.0939484  60.1857224  18.4243813  86.8723831
  82.4528427  71.1051025  76.7672729  81.7671967  70.4640274  76.5798340
  82.5832520  71.0465088  77.7137375  26.8699532  66.9143982  54.6228714
  27.3066196  67.2106171  53.8242416  27.5311718  67.0127563  55.3079605
  10.0498323   0.8940393  27.8333626   9.4956532   0.6177074  28.5632648
  10.6806631   0.1817864  27.7285728  79.6517410  20.5158253  64.8658676
  79.0246582  21.2369576  64.8113098  80.1524811  20.5717659  64.0520172
  46.9198761  18.7455235  88.5639420  46.6687355  18.7032089  89.4866409
  46.2662964  18.2109451  88.1130676  83.4117889  37.6834259  68.4074707
  82.6883011  37.7771988  67.7877960  83.6033630  36.7456017  68.4118576
  40.1589241  57.8507462  56.1571960  41.1076736  57.9761925  56.1763496
  39.9002953  57.8384819  57.0787125  53.6929703  33.7597694   1.2598739
  54.2671852  34.2659645   1.8345697  53.2036629  34.4196701   0.7686065
  62.8360023  40.4471359  86.2927094  62.6881294  39.5179176  86.1168900
  62.5680656  40.8889580  85.4869537  65.7622452  38.0354042  64.9650421
  66.6179276  38.1151237  64.5435181  65.8495331  37.2772026  65.5427475
  72.0573273  16.1860275  34.9929962  72.5712967  16.0938072  35.7952156
  72.5615768  15.7145224  34.3299370  35.1896591  28.5058250  11.1654282
  35.0576820  27.6852474  10.6905947  35.5573769  29.1030293  10.5139971
  77.7715607  63.8262939  62.3045769  77.6353760  63.9037209  61.3602829
  77.3091431  63.0244179  62.5482979  63.2117767  42.4044037  26.5500240
  62.6926537  42.6647263  25.7891197  63.5700455  41.5486984  26.3141384
  52.7042809  51.7647400  10.2832813  52.3062515  52.4251556   9.7161341
  52.4516830  52.0258598  11.1688557  66.7351761  45.6479721  18.9581776
  66.4264679  46.3596954  19.5188713  67.6290436  45.4789696  19.2559700
  25.8360329  28.7210751  20.7421513  26.3006954  27.8981361  20.8941059
  24.9147034  28.4684334  20.6825199  38.2661285   4.2246718  88.2324982
  37.4662781   4.5626025  87.8296661  38.5993614   3.5849183  87.6032867
   5.0445323  37.6335983  34.0494881   5.1404161  38.3475189  33.4191246
   5.6522288  37.8541374  34.7553902  67.7153931  56.5137177  44.8398018
  67.0124817  57.1281471  45.0510406  67.5546722  56.2701416  43.9281731
  10.4812374   7.4003568   7.5490484  10.5225477   7.9883823   8.3032045
  10.0020809   6.6354427   7.8677130  72.0187531  59.5682983  42.0768318
  71.4785614  60.2389946  41.6589928  71.3990250  59.0420723  42.5820541
  77.8283844  57.3163986  29.7554531  78.7393875  57.5955505  29.8469524
  77.3818054  58.0754433  29.3804150  64.3614426  49.4518738   0.7284690
  63.6290245  48.9141541   0.4273871  64.6630783  49.9074478  -0.0574708
   1.7439393  41.4205971  58.0730362   2.2632172  41.4963722  57.2725105
   2.2272108  41.9327698  58.7213860  57.6045914  35.3584213  54.4387283
  57.6226616  34.5269890  53.9647789  57.6595078  36.0254440  53.7544098
  59.1710091  57.7278137  37.4497566  59.0149498  56.8388824  37.7686348
  58.3074150  58.1405602  37.4587669   2.2921693  28.1348324  34.3710747
   1.7905734  27.3274498  34.4840584   2.4461043  28.1911831  33.4280167
  42.4758759  46.9046021  42.4327698  43.3243713  46.7235756  42.0284042
  42.4933510  46.4154778  43.2553787  61.7221184  26.7128754   4.9288797
  61.1927757  25.9153614   4.9291425  62.6081963  26.4122849   5.1307206
  28.4375687  62.0367889   1.3121161  28.5423088  61.7450829   0.4064850
  27.5520687  61.7628937   1.5510772  47.8977394  50.1286964  34.6877403
  48.0424843  51.0547600  34.8818779  47.9843330  49.6901588  35.5341568
  12.2759209  61.3327904  12.2883539  11.5390005  61.9436646  12.2920866
  13.0412979  61.8818359  12.1181154  28.1438980  59.1245499  45.6773300
  28.5680447  59.7791367  46.2321701  28.8582058  58.7457657  45.1649628
  52.4032288  55.0581779  13.0847368  52.6706924  54.9674072  12.1701584
  51.7358818  55.7442703  13.0721521  31.2611294   1.6542243  58.6142387
  30.8895931   2.3091774  58.0232849  31.7685719   1.0771180  58.0435524
  82.9615326  58.1980743  16.5348053  83.1973114  58.6997795  17.3151455
  82.9770050  57.2854500  16.8230896  27.2407513  49.4227676  72.2397842
  27.4123230  48.7732468  71.5579376  26.2907410  49.4035416  72.3552856
  48.1634674  47.3949432  18.4844303  48.1109047  46.6057014  17.9453869
  48.0769958  47.0773048  19.3832417   8.3905706  42.8823318  48.3378601
   8.3425264  41.9287109  48.4051666   7.6971011  43.1140823  47.7201004
  46.9513817  34.5718918  85.4419861  46.1637573  34.6188622  84.9000626
  47.4759521  35.3241539  85.1678314  48.5665703   2.1902132  49.0181274
  49.0641098   1.7302003  48.3420563  48.0182037   1.5130918  49.4144058
  46.4771996  21.8923092  83.5895615  45.6206436  21.6178379  83.2621384
  47.0870132  21.2434406  83.2383881  82.1062546  50.0805740  27.9576874
  81.9651108  50.3880043  27.0622540  81.8008347  49.1734390  27.9504128
   4.0805058  44.2489548  41.5438881   3.3365984  44.4387207  42.1155739
   4.7767067  44.8263779  41.8571281  70.9930801  47.9635887  31.8766842
  70.9516144  48.7795410  31.3779507  70.0864639  47.7923012  32.1315079
  17.9851589   4.2755947  17.3048649  18.4386806   4.1947255  16.4658108
  17.0571327   4.1964045  17.0841198  31.9559917  16.1575890  84.4727859
  32.0314751  17.1006317  84.6184082  32.1734161  16.0398636  83.5480728
   8.4172478  33.0525436  79.7013092   7.6947865  32.5879478  79.2789001
   9.0986156  33.0964012  79.0304565  78.1507568  38.4902382   5.2034802
  77.2710571  38.3016510   4.8766851  78.5181046  37.6312523   5.4118724
  56.2494965  38.7193146  57.5547829  56.1099472  38.2134781  58.3553391
  56.9766808  39.3050842  57.7652893  78.6541214   1.2364961   9.4832916
  77.7004089   1.1842337   9.5459719  78.8247986   2.1212194   9.1602325
   9.8387547   5.1311564   4.3865089   9.1084471   4.6679249   3.9762652
   9.7349548   4.9606481   5.3226628  14.7018471  66.5797958  57.7130547
  14.2281494  67.3831024  57.4973145  14.8370485  66.1476364  56.8697357
  43.7507782   7.0887260   1.1292367  42.7977104   7.1212769   1.0465460
  44.0413361   6.5987806   0.3599772  21.9606819   4.9632888  23.7367058
  21.1229439   5.2506299  23.3735790  21.8461952   4.0254126  23.8900433
  75.4151001  21.3169460  26.9124165  75.7365646  20.4632511  27.2024117
  75.4952164  21.8777580  27.6839733   1.5880803  41.3732185  36.4791489
   2.2139146  42.0974846  36.4781418   1.1703180  41.4164696  35.6190109
  64.6719055  43.8901978   5.2913876  64.1600723  43.7230072   4.4999890
  64.1851730  44.5741081   5.7513804   4.9859495  42.8800278  51.6956367
   4.6216784  42.8995514  52.5806007   4.5968614  42.1033897  51.2935486
  81.1615677  51.2961388  63.4141731  80.5733490  51.9244766  62.9953423
  80.7170715  50.4534683  63.3216362  57.5644951  43.6343040  73.6546555
  57.4708405  43.6912041  72.7037506  56.8864441  44.2165565  73.9973755
  72.0443192  20.0580978  52.1377068  72.4816895  19.8419552  52.9612465
  71.9461365  19.2173424  51.6908035  48.7666702  45.9987183  49.4228096
  49.2774429  45.6656227  48.6849823  48.8329048  46.9508095  49.3495636
  41.2388916  66.8869400  27.0287762  40.5231628  67.0232162  27.6495762
  41.8734474  67.5714951  27.2407951  64.1361694   8.9178801  50.6838493
  65.0119324   8.5322285  50.6605034  63.7423096   8.6685610  49.8478203
  84.5507584  31.8785553  77.5614624  83.7840347  31.3569202  77.7986526
  84.2097855  32.5511665  76.9719162  64.1512985  26.5822182  86.1992340
  65.0160675  26.6235409  85.7909470  64.2842789  26.9368458  87.0783157
  80.3605118  30.0535564  24.8911800  80.7269135  30.3934231  24.0748062
  79.4983597  29.7181110  24.6454067  37.7400627  53.2817230  35.7750778
  36.8075600  53.2139206  35.9802055  38.0870895  53.8832664  36.4338264
  66.3151245  33.3682137  19.5220013  66.5898972  32.6789932  20.1267395
  65.8523865  33.9996605  20.0728016  82.1479263  56.6742058  63.4722404
  82.2620316  57.4927406  63.9551620  83.0153809  56.2695885  63.4783592
  46.3472366  70.3048706  21.1286640  47.0084572  69.7642136  21.5607624
  46.8484268  70.8789902  20.5494995  75.8054810  40.6006012  83.3709412
  75.2502136  39.8222504  83.3253174  75.2035980  41.3324623  83.2354813
  69.8236389   4.7861967  20.9645195  70.7774200   4.7058768  20.9742851
  69.6520081   5.5325947  20.3903561  60.9616737  15.4110126  87.5343857
  60.1604233  15.1924601  88.0102615  60.7503586  16.2199440  87.0683289
  70.2748642   6.1951647  23.7473183  70.3762436   6.5910497  22.8817387
  71.1281586   6.3112488  24.1652203  73.2391281  44.5136833  39.4444618
  73.5156860  43.6745415  39.8126831  74.0045624  44.8280106  38.9632797
  44.3399353  66.3238068  48.1348076  44.2538872  65.7798691  48.9177246
  43.7215843  65.9443588  47.5103951  17.4521618  49.6539650  37.3508072
  17.8302670  48.7746086  37.3526764  18.1528606  50.2166634  37.6803856
  59.9741592  14.5329685   5.6472640  60.7143707  13.9263134   5.6301551
  59.9901276  14.9054947   6.5288544  18.8146114  62.1466827  23.4499321
  19.3058968  61.3282433  23.3790531  19.2093716  62.7206192  22.7934284
  12.6312351  50.7405472  27.1307068  11.9784384  50.9324799  27.8039436
  13.3813648  51.2886086  27.3612785  64.6943970  51.0124855  85.0289459
  63.8506088  51.1308212  84.5927658  64.9533005  51.8953018  85.2932129
  39.6716805  56.2723579  40.4774551  39.9352608  56.0806580  41.3774605
  39.9817047  55.5210114  39.9718895  25.7862415  45.7664185  68.2138367
  25.8915691  46.1769676  67.3555908  24.8589802  45.5325432  68.2552872
  41.8875198  59.3025703  75.6147614  42.3135109  58.4827881  75.3643188
  40.9779053  59.1944008  75.3370361  26.2662983  63.0527306   5.7236729
  26.2662277  63.9756050   5.9777079  25.5181675  62.9669075   5.1327691
   2.6151710  59.2484207  72.9441071   1.8485905  59.6791229  72.5658493
   2.5773139  58.3531494  72.6075287  51.2418060   7.2594085  59.5951920
  51.0167656   7.3069143  60.5243492  50.8749847   8.0593672  59.2187119
  43.4431343  31.9939919   6.9819074  42.7695312  32.6475792   6.7939901
  43.1520805  31.2095680   6.5169363   9.8658619  53.5401649   6.4212847
  10.5421181  52.9589500   6.0732899  10.2044601  54.4218292   6.2655511
  43.3492317  52.6994324  58.6113167  42.8997726  52.3427696  59.3774834
  42.9091530  52.2930260  57.8647308  21.8150406   9.4969978  10.9149799
  22.2377129  10.1092825  11.5172148  20.9774246   9.9090586  10.7032318
  39.2445145  52.8938484  58.3787422  39.6796532  52.7916603  59.2251701
  39.6534691  52.2345886  57.8180580  19.1062698  27.7709999  76.3289490
  18.7319202  26.8901405  76.3425064  19.4172344  27.8852921  75.4309158
  47.4721260  35.9500313  64.0769043  47.8044205  35.4864998  63.3081703
  48.2458076  36.3627663  64.4607010  24.9520874  58.2019043   0.1919569
  24.4374447  58.7705612   0.7646716  24.4988365  57.3593178   0.2209789
  23.3706188  67.8661499  31.8841972  23.2415981  67.6271133  30.9663486
  23.0111408  67.1282654  32.3766747  66.9791107   9.3856621  54.0519753
  66.6606827   9.0658693  53.2078400  67.4341202   8.6361170  54.4358826
  36.4220581  34.5308838  23.1641788  37.1319046  35.1580544  23.0263004
  36.8554688  33.7510033  23.5108395  36.8768692  17.3425579  75.9136658
  36.2745934  16.7955704  75.4093857  37.2004128  16.7667332  76.6064682
  57.7642365  12.6513300  56.2508316  57.9918594  12.5185175  57.1710396
  57.4987526  11.7849741  55.9423218  34.1522255  47.5666885  30.4701519
  34.8787537  47.7814789  29.8851299  33.6980438  46.8461113  30.0334358
  44.2249641  35.6392517  23.8231544  44.1383209  36.4023094  23.2517796
  45.1424751  35.3798370  23.7388306  48.5844078  57.0841064   2.9923358
  48.4003105  56.1453323   3.0245941  48.6400871  57.2853012   2.0581770
  57.2084656   2.1957047  56.1855736  57.7795410   2.9615357  56.1255379
  57.0568924   1.9380851  55.2762413  27.3680305  16.6142731   9.8010902
  27.1419411  16.9250202   8.9244194  28.2198753  17.0109024   9.9835062
  13.8237772   1.2650506  16.3633747  13.0130816   1.1150534  15.8770580
  14.2187462   0.3968878  16.4441528  20.0433464  36.7843018  17.6894398
  19.3134747  36.5337830  17.1230831  20.1416855  36.0480499  18.2931747
  81.8622284  34.0357056   4.9712119  82.3586197  33.6048279   4.2753859
  82.1494522  33.6015129   5.7744608  44.4253616  56.2385445  31.6635857
  44.1790237  55.9781456  30.7760372  44.3061523  57.1882057  31.6763592
  72.9451370  67.7542801  -0.0143077  73.7407150  68.1686401   0.3197464
  72.2759781  68.4359207   0.0475617   5.4318914  38.6856728  85.9910736
   5.4671845  37.8561020  86.4673080   5.0634470  38.4565506  85.1378555
  19.5447502  63.6329651  49.4942169  19.7117691  63.3127785  50.3806763
  19.2307396  62.8647499  49.0172729  84.8222809  65.0211334  30.5600548
  84.9523926  65.0578842  31.5076580  84.3525772  65.8286209  30.3512974
  41.5634499  13.2133999  70.1596451  40.7925262  12.9288664  69.6687851
  41.3196259  13.0958519  71.0777817  54.5938530  51.1066742  15.1704588
  53.8041344  50.6415977  15.4466400  54.5015068  51.1929893  14.2216425
  10.5111074   2.0700278  16.5811806  10.6352625   2.8488789  16.0387726
  10.9873791   1.3790901  16.1207447   6.9605150  22.6638966  81.9000931
   7.5693426  22.2219048  82.4918747   6.3849235  23.1642208  82.4785385
  68.8361816   6.7327156  56.5210381  69.2609787   6.9601212  57.3481216
  69.5594177   6.6097822  55.9061852  70.3160019  40.6697731  47.8508911
  70.2401428  39.7255592  47.7132645  69.8982391  41.0581818  47.0822258
  28.5269909  52.5895004  43.7976151  28.2050381  52.6641731  42.8992805
  29.4569416  52.8082161  43.7377167   7.3516836  54.8141823  88.8058624
   6.8525763  55.0268784  88.0172653   7.3231883  53.8587685  88.8569260
  40.1527252  62.0541229   1.7739910  41.0433617  62.3999290   1.8324579
  40.1941071  61.2089233   2.2213764  33.7140503  19.2618637   1.7676915
  34.0999985  18.9379864   2.5815585  34.1116180  20.1232147   1.6402375
  46.3936234   6.1596704  69.3384171  46.5536118   5.3303819  69.7888794
  46.6189919   5.9834294  68.4249725  19.8352242  66.0101929  88.9215927
  19.4056549  66.2019272  88.0879593  20.6428986  65.5586929  88.6765671
  -0.0905747   4.6273155  29.2990570  -0.0476640   4.9066219  28.3845196
   0.7149161   4.9650297  29.6906776  60.2975616  46.4667091  43.5669518
  60.8666687  45.9883308  42.9640388  59.4733696  46.5660210  43.0904274
  36.4218521  48.6191750  85.9705734  36.4258537  48.9534492  86.8675003
  36.4412308  47.6673088  86.0696335  26.4819298  15.5342436  71.3468170
  25.5584564  15.2824955  71.3541870  26.7674885  15.3711033  70.4478912
  54.1431236  42.4848709  45.5885696  54.6481934  43.2863770  45.7254143
  53.2355461  42.7819252  45.5230675  17.3373852  46.3024292  11.5456724
  16.7739487  45.6638565  11.1086435  18.0248585  46.4918671  10.9071388
  22.1616211  16.1161289  32.7191315  22.4388046  16.3464966  31.8323784
  21.6985474  16.8922157  33.0345421  84.8067245  36.3248329  85.3512192
  85.5862274  35.8343391  85.0904160  84.2473602  36.3162727  84.5745163
  38.0860252  70.0263824  32.7762070  38.4277229  69.6812973  33.6010628
  38.5354156  69.5193939  32.1000061  63.7810326   4.9892631  40.6568298
  64.0075455   5.6479988  40.0003319  63.8666306   5.4458671  41.4937401
  78.2630615  14.3236551   9.2174950  77.3483887  14.0469284   9.2724838
  78.2273407  15.2791300   9.2624750  45.8742256  51.2347870   9.3022690
  45.9031563  50.3522186   9.6716824  45.4739418  51.1206436   8.4403076
  82.6557541   0.6449476   7.8813219  82.6406555   1.5820028   8.0760822
  82.7033310   0.5995300   6.9263844  24.5683231  60.4322243  48.6338120
  24.1305237  60.5931625  47.7979507  24.7008972  61.3038750  49.0064812
  66.0811539  14.0484028  16.5699539  66.6817245  14.7797918  16.4263744
  65.5792007  13.9875622  15.7571974  14.7259884  50.2476997  17.4004173
  14.3123322  51.1069870  17.3182774  15.5282269  50.4143944  17.8952503
  40.8227730  69.8093185  12.8744717  41.4642982  69.6572342  12.1805363
  40.0718040  70.1975403  12.4255133  86.5685959  70.9062958  12.9009781
  86.3171844  71.4436035  13.6521940  87.3182983  70.3978882  13.2103376
  35.0104752  34.3277817   5.6315322  34.4329224  35.0610733   5.8435450
  34.4769936  33.7539330   5.0816855  49.6637421  19.8650703  80.4433441
  50.4165001  20.4386139  80.2996979  48.9149971  20.3676605  80.1223831
  83.8972549  68.2279129  22.0889263  82.9854813  68.4927750  21.9674492
  84.3683395  69.0490189  22.2306480  29.4200306  31.8640518   2.7069314
  29.3036690  31.0038490   3.1103463  29.3707962  31.6959095   1.7659019
  58.7600365  26.6031246  48.0154228  59.4659805  26.3077602  48.5904274
  57.9706535  26.5392284  48.5530357  16.2092819  51.3083916  67.9812469
  16.6938839  50.7891426  68.6229401  15.9592524  52.1017838  68.4547882
  39.4823265  68.4315186  65.6131287  38.9329033  69.2146988  65.6448059
  39.6038017  68.2617950  64.6789627  29.5165348  46.7661247  89.3878174
  30.4337749  46.9722824  89.2078094  29.0226002  47.3425255  88.8047028
  68.9005203  24.7431717   0.9432328  68.4142990  25.3685741   1.4805290
  68.3994598  23.9302731   1.0093006  79.2462463  26.8066330  76.6321793
  79.2317352  26.0622978  77.2338333  80.0449295  27.2827606  76.8594284
   0.3490892  44.3201904  51.8834152  -0.3110815  44.5048027  51.2153397
   0.1536765  44.9358597  52.5898132  86.8512726  31.0449009  48.0350494
  85.9066391  31.0435066  48.1896324  87.0636902  31.9613419  47.8582802
   3.0774338  48.1193352  47.9158630   2.1232879  48.0552444  47.9574509
   3.2468743  48.6851349  47.1626091  82.3538208   8.5340090  44.5338440
  81.5135651   8.6781874  44.9690704  82.6493530   7.6837435  44.8593216
  31.2923565  60.5544205  11.8080549  31.5813274  60.0507317  11.0471182
  31.3608437  59.9421501  12.5406313   3.1634359  50.4622078  67.3965683
   3.5895233  50.4335556  68.2532196   3.7873259  50.9209938  66.8339767
  30.7426434  44.2172623  57.4320107  29.9145012  44.5189743  57.8053474
  30.9256172  43.3956604  57.8877754  79.4063797  69.9946365   1.2818220
  79.1834106  69.2186737   0.7676257  78.6804886  70.5996857   1.1293761
  44.7077904  15.0638981  49.1795883  44.1915054  15.7927179  48.8353462
  45.2407227  15.4540844  49.8723831  62.8820534  65.4720230  53.3165894
  63.5198898  65.7689209  52.6675529  62.0431938  65.8050461  52.9977760
   2.5270901  22.2688332  32.8694801   3.1626980  21.6163559  33.1636009
   2.1847720  21.9164238  32.0479813   2.2288949   3.3641541  50.3966141
   2.3507371   3.6743751  49.4993095   2.6709466   2.5154293  50.4187126
  47.9254723  18.5411720  20.2057343  47.2902641  18.5790520  19.4906788
  48.0303154  17.6065235  20.3837070   6.0697556  13.9924889  49.7826080
   5.1522007  14.1071939  50.0299301   6.0757666  13.2003164  49.2453384
  11.7563171  55.2745857  65.4491425  12.2212372  56.1100960  65.4043732
  11.7748966  55.0395584  66.3768539  85.6529312  19.5512543  74.2599411
  84.8586807  20.0854378  74.2536163  86.3595428  20.1746922  74.4280472
  85.6273117  66.1522446  35.6827469  84.8596573  65.5882797  35.5884628
  85.7096786  66.5884171  34.8346901  27.4040737  51.5389824  27.7227535
  28.2152252  52.0376434  27.8207321  27.2134266  51.2162895  28.6035233
  21.4162960  52.4860153  48.2293739  21.0825844  51.7168922  48.6912384
  20.7547131  52.6708374  47.5627556  76.2487259  41.1285896  19.3603859
  75.5625381  41.0436821  18.6984425  76.3586731  42.0729256  19.4716282
  34.3836899   4.0639997  28.1500950  34.4800835   3.1343060  27.9436741
  35.1089172   4.2536292  28.7453384  16.2945900  42.1903725  26.7066994
  15.3792362  42.2596893  26.9779110  16.2712822  42.2962456  25.7556572
   1.9139702   3.8748786  71.9106750   2.7883284   4.1616087  72.1743317
   1.7017180   3.1651461  72.5168610  16.6337433  49.0058517   6.6635113
  16.0092907  48.3257408   6.9159803  16.8711567  49.4308968   7.4876499
  78.4731369  45.1190376  71.8429642  78.2803879  44.8313141  70.9506073
  78.9613266  45.9347916  71.7314072  38.8790054   1.7444868  20.9270191
  38.4917946   1.3620291  20.1396046  38.2160301   2.3562660  21.2470474
  11.8706293  44.0730362  51.2210350  12.6946440  44.2862854  51.6589355
  11.2137489  44.5986786  51.6775856  54.8239250  53.0680542  52.9871979
  54.1001968  53.6920319  53.0428848  55.3459625  53.3723869  52.2448387
  82.9950943  19.4353733  72.0769196  82.8765869  19.1638603  71.1667099
  83.0443192  18.6147327  72.5671768  62.7501221  43.3268280  86.4054337
  63.5760307  43.2227898  85.9329071  62.5761795  42.4620094  86.7770004
  47.3601494  44.2935448  81.1676636  47.1940536  45.2351952  81.1236267
  48.3104858  44.2138634  81.0855865  17.1946678  20.5685043  26.8547802
  17.0762062  20.1221313  26.0163574  17.4508438  21.4597492  26.6175327
  42.9006081  41.7263565   2.3066680  42.1633415  41.4810257   1.7476658
  42.5339661  42.3618507   2.9214506  84.7885513  63.9796257   8.1192322
  83.8678894  64.2413177   8.1079264  85.2536697  64.7233353   7.7360978
  86.3754425  62.2133865  76.6023407  86.0689163  61.3206863  76.7615662
  85.5771942  62.7144966  76.4352493   7.5441022  49.4244957  21.4799309
   7.9938841  50.2579536  21.6187725   7.8819628  48.8523216  22.1689148
  21.7238770  24.5441189  88.7168579  20.8418636  24.3443031  89.0304794
  22.3035984  24.0779705  89.3192368  51.7998352   1.4729190  24.1426830
  50.9015579   1.2052028  23.9486275  51.7455292   1.8872690  25.0038433
  82.4152679   2.2679372  81.9403839  81.8284454   2.2582078  81.1842270
  81.9022217   1.8754566  82.6467743  49.7974091  64.6723251  79.8966599
  50.0237770  64.4769974  78.9873505  49.7232170  63.8143883  80.3146057
  14.7558136   9.4426794  14.3878431  14.4188023   9.0835609  15.2086287
  15.6854753   9.5954056  14.5570631  48.8868980  48.1951408  56.9278450
  49.6809616  47.6740913  57.0470200  48.1875191  47.6526680  57.2922859
  15.7429771  47.8005867  51.8408051  15.9918556  47.8670120  52.7626915
  15.3425474  48.6463280  51.6392822   4.2890258  19.6205997  33.3038864
   4.1568198  18.6736298  33.2591553   4.6507893  19.8525963  32.4485893
  53.0227814  71.3422470  64.8822937  52.0876122  71.1801758  65.0064697
  53.2098312  72.1010132  65.4350357   0.6233043  24.0695553  10.6909752
   0.0115791  23.4006443  10.9985199   0.2385571  24.8970146  10.9799604
  26.5297775  35.8104286  37.0112228  26.6754398  36.7528267  37.0942955
  26.0492821  35.5715523  37.8038750  21.7790775  60.9715118  73.9042206
  20.8805676  60.6427612  73.8753586  22.2126427  60.4262733  74.5607071
  84.0236588  64.0192032  35.6753654  83.7977982  63.3719101  36.3433762
  83.9934387  63.5333595  34.8511810  42.9919510  53.6971169  62.5567551
  43.1694031  52.8339195  62.9304314  43.8181992  53.9558868  62.1486168
  80.5580063  47.5512085  10.2254143  80.4314651  48.0543442  11.0298223
  81.4525146  47.7559471   9.9530659  68.4263611  12.2828646  37.0930519
  69.2762604  12.6988029  36.9485016  67.8081131  12.8244734  36.6024780
  11.8731203  33.2622681  30.9557495  11.9804506  32.3121071  30.9994335
  12.0300560  33.4790268  30.0367184  73.6406555  17.8282108  47.6386375
  73.8099976  17.3036747  46.8560638  74.5009689  17.9393387  48.0432777
  25.1130028  53.9128838  34.3569717  25.7609215  53.6810226  33.6916351
  24.2689610  53.7409477  33.9395218  65.2865143  69.3037872  24.6063137
  64.7730942  68.6658401  24.1106796  66.1968536  69.0557556  24.4451046
  55.9914360  24.4620132   5.5810962  56.8354950  24.7596397   5.2416630
  55.4795456  24.2524796   4.7998829  14.6703825  18.3823433  83.2999573
  15.2816410  19.0879517  83.5114059  14.9345226  18.0900364  82.4275894
  14.7809229  34.8613853  87.2013092  14.5147800  33.9499626  87.0800552
  15.1062346  34.8982697  88.1007767  30.0945625  42.7695503  54.8059540
  30.9789772  42.4202423  54.6962967  29.5559101  42.0018768  54.9976845
  70.2168503  52.6117935  18.7850304  70.1852112  53.4883003  19.1683903
  69.4135895  52.1886253  19.0882263  76.4748154  34.7268448   7.5099573
  77.1779556  34.1388550   7.2340965  76.5309906  35.4672966   6.9059653
  10.8486099  56.7122040  35.5977898  10.2571106  56.6217422  36.3449020
  10.4206467  57.3527565  35.0296631  46.2441330  59.6963005  32.2560272
  46.7627602  58.9188385  32.4629364  46.8617477  60.2892761  31.8280468
  62.3742638  54.0744400  21.5580425  62.7281303  53.2118073  21.7745419
  63.1454391  54.6348190  21.4714394  21.6955261  68.3308487  85.6954193
  21.2614460  69.1688919  85.5357590  21.5228195  67.8174667  84.9062119
  45.1561241  59.2748070  40.0905190  44.3017159  58.8457413  40.1365471
  45.4772949  59.0752525  39.2111664  82.6389618  41.0750885  11.4530001
  81.7719193  41.0047340  11.8524075  82.4671097  41.1093063  10.5119753
  61.4426880   8.3620367  60.1529007  61.5694847   8.4764290  59.2110558
  61.6873779   7.4516106  60.3186798  20.9135246  35.8721619  14.7633848
  20.6398220  35.5506783  15.6224356  20.8434639  35.1097565  14.1888723
  35.7726059  56.3046112  76.6916733  35.6520805  56.1589279  77.6300125
  36.5025139  55.7334518  76.4524231  59.6032867  51.5192490  25.7659378
  59.4391174  50.5762405  25.7703133  60.5502052  51.5969734  25.6495724
  77.2705536  59.5551071  11.1897020  77.4744720  60.4438896  11.4807568
  76.3814011  59.6155357  10.8404408   7.1281157  63.9018250  88.9467087
   6.4455671  63.6958809  88.3079987   6.9779334  64.8204346  89.1699524
  45.6647873  47.2975464  44.1041107  45.3543816  48.2030029  44.0984955
  46.4955292  47.3320808  44.5783539  74.6938705  19.9473171  53.3386307
  75.2427368  19.1632004  53.3503265  75.2594604  20.6406746  53.6786194
  75.5415726  34.3703957  73.8801727  74.8857422  34.8915367  73.4169998
  75.0959778  33.5470810  74.0797501  33.8437309  30.4267845  16.7924957
  33.9019051  30.5617905  15.8466520  34.6938095  30.0594749  17.0347385
  36.5660973   4.2033172  10.0964060  37.3284111   4.3365455  10.6597538
  36.6791649   4.8357773   9.3868694  16.0213547  53.5743179  53.8315468
  16.9144630  53.5986061  54.1750603  15.8149529  54.4883499  53.6361542
   3.0144951  67.2044678  50.7691345   3.2448311  66.6278381  50.0406609
   2.1617014  66.8866806  51.0657539   2.9837258  67.4496231  36.0140419
   3.0153289  66.5912323  35.5916710   3.8728080  67.7930145  35.9254723
   3.7133343   5.6494026  88.3326340   3.5489173   5.1210499  87.5515823
   4.6625476   5.7723436  88.3431854  46.3631706  69.4843521  66.9239349
  47.2181244  69.3343048  66.5204773  45.8814316  68.6709442  66.7738419
  44.2309875  17.1325989  72.0618591  44.3124428  16.2182961  71.7904739
  43.3017616  17.3335876  71.9505920  57.4990578  61.8180389  31.5734043
  56.9752159  61.0637398  31.3034878  57.0289536  62.1795998  32.3247414
  72.3121185  49.3654175  36.3748665  71.7406006  49.6419144  37.0912132
  72.9542999  48.7893295  36.7895317  73.3385086  32.6576920  18.6728802
  73.3437881  33.3916321  18.0584393  73.1259766  31.8956909  18.1339760
  50.4136925  15.9474955  19.6066875  50.2355461  16.8009777  19.2116394
  49.5968590  15.7120285  20.0466557  45.4790611  46.1690903  77.5955048
  46.2058830  45.5539360  77.6932144  45.0041504  45.8582306  76.8247528
  13.6844816  31.3916912  24.8222351  13.1527891  30.7459412  25.2875748
  13.9668131  32.0039139  25.5017262  81.0916443  70.8033447  41.7800255
  80.4340897  71.3670197  41.3724365  80.5891876  70.2264938  42.3553619
  74.8373566  23.8308067  55.2044525  74.0104675  23.6779709  54.7471581
  74.9781342  23.0349064  55.7172470  20.4862862  38.4029961  82.9295578
  21.3457718  38.5786209  83.3125381  19.8722935  38.8741760  83.4927979
  69.3716660  22.1123638   7.7030392  69.9398041  21.9515457   6.9496527
  69.2009811  21.2425442   8.0643024  27.1178341  60.6763611  18.5329838
  26.7504654  61.4592361  18.9433231  27.7070045  60.3133621  19.1943035
   2.9667916  29.0575504  68.0429001   2.8131318  28.9431210  67.1050720
   2.1576493  29.4488144  68.3721924  80.8749542  45.9531937   3.6206093
  81.1815491  46.1015739   2.7260623  80.0045090  45.5692787   3.5148826
  40.9237328   4.5253859  25.0655994  41.4363556   5.2417741  25.4400826
  41.0788307   4.5870781  24.1230640  30.8433170  62.3439789  42.8553696
  30.3549118  62.3047523  42.0330849  30.2195988  62.7010193  43.4876099
  34.9987488  27.1757336  15.3965235  34.1126328  27.5295868  15.3202553
  34.9015808  26.2430782  15.2043161  14.1943083  10.1778622  27.4080658
  13.9061403  11.0652428  27.6219521  14.0819769  10.1115894  26.4597931
  65.9177628  31.9025345  15.1997929  65.1714935  32.4851799  15.3406372
  66.4509659  32.3507080  14.5432405  62.2149086  31.3679657  16.7670498
  61.7014809  32.1648750  16.8995647  61.8434677  30.9720612  15.9786825
  32.0679092   7.3505983  87.7861557  32.1946640   7.2076607  88.7240906
  32.9416656   7.5588589  87.4553833   3.3440614  62.6884232  21.7842522
   4.0534272  63.1991234  22.1744022   3.1701777  61.9948692  22.4206314
  84.2312546   8.4511614  53.3444176  85.0144043   8.8930397  53.0163002
  84.2310333   8.6308613  54.2845955  68.1179810  70.0101700  48.1793442
  67.3182144  70.4395828  48.4829788  68.2773285  69.3187561  48.8218346
  61.2636833  42.5091362  66.6244583  61.1042213  41.7667160  67.2072220
  61.9640121  42.2116547  66.0437012   4.7849092  38.8847504   1.9933723
   5.3624301  38.1670647   1.7333226   4.7835541  38.8564224   2.9501519
  85.2966614  19.2016354  16.8913403  84.7063293  18.8284683  16.2367516
  85.3554916  18.5303822  17.5711861   1.3152920  51.4868584  58.9921875
   1.5146313  52.3032722  58.5339661   0.8517170  51.7629776  59.7828102
  58.9112091  11.2164583  42.7432480  59.7250824  10.7865362  43.0059471
  58.4847565  10.5870581  42.1616745  20.8787231  16.0144157  69.1825562
  20.5890064  15.3743286  69.8326187  21.0141354  16.8192425  69.6827011
  51.2795258  50.6260490  34.5389748  51.0108681  50.2838020  35.3915710
  50.6356659  51.3058395  34.3400764   2.1568880   8.9879112  25.3398972
   2.8525410   9.5875244  25.6096420   2.1857488   8.2816963  25.9853897
  60.0746384  23.9077072  38.5643578  60.2225113  23.0066833  38.2770920
  60.8497200  24.1241074  39.0826721  59.1576958  60.3074112  81.8631134
  58.4234962  60.3086205  81.2489548  58.7823448  60.6214714  82.6857376
  53.3636932  12.0919199  28.9263477  53.3557663  11.8074188  29.8402557
  52.8652458  12.9090986  28.9255562  42.4236565  17.7338352   5.3584132
  43.2976952  17.4293919   5.6025534  42.2854919  18.5171967   5.8908501
  19.3340530  22.5422459  28.6995602  19.4819756  22.7400932  27.7747860
  19.8421803  21.7467861  28.8585663  20.3659382  19.0510864  56.7467232
  20.6841564  18.2059784  57.0641518  19.4168320  19.0088673  56.8635406
  85.3744431  49.4446220  87.6146393  85.9872894  48.8295364  88.0175323
  85.0008011  48.9620590  86.8772354  48.1715279  58.7844086  14.4676733
  49.0545311  59.0500488  14.7245274  47.8706894  59.4831238  13.8867073
  70.7976913  27.1163158  21.5566120  70.9682007  26.2785397  21.1261597
  71.6666565  27.4836235  21.7185383  31.9490929  68.4822464  34.6896324
  31.3301601  67.8127747  34.3981628  32.8109055  68.0991669  34.5260620
  51.6740150  50.3192215  79.6934967  52.1732407  49.5104103  79.5802460
  52.2704124  51.0109138  79.4069672  57.1548195  19.6342697  29.5429745
  56.4161911  20.0334167  29.0832596  57.8769913  20.2494488  29.4154797
  54.3552856  39.6789474  30.5597057  54.8474846  39.2522621  29.8583393
  53.4563026  39.7161255  30.2330875  40.4643631   2.3840284  72.7682114
  40.1502762   3.2199299  72.4234695  41.3931847   2.3637178  72.5377579
  71.6507187  34.5355949  27.6048164  71.3968811  35.4399147  27.4204063
  72.5694046  34.4860764  27.3406353   6.7988176  60.8453827   5.1444755
   6.3744211  60.2848740   4.4948997   6.8442373  61.7050400   4.7259545
  40.0888214  41.4933586  52.7183495  40.9005089  41.9779472  52.8685989
  40.2305603  41.0406075  51.8869896  79.4645996   5.1542840   4.1013365
  79.8991089   4.6965084   4.8209701  80.1815872   5.4861617   3.5609546
  28.5339718  65.9463730  46.6672630  27.5987835  65.8191071  46.8268204
  28.6215401  66.8830795  46.4907875  13.0669060  56.4923935  31.0065689
  13.4334774  57.3517227  30.7982235  12.2313023  56.4689941  30.5402546
  74.8912659  45.6834602  18.2925758  74.1848602  45.0585480  18.1291332
  75.4825516  45.5768242  17.5474300  60.0284233  55.4349289  45.1623573
  59.7564926  56.0089912  45.8784142  60.3670807  56.0301628  44.4935989
  71.4487152  18.7189484  65.3136444  70.6034775  18.6927872  64.8651886
  71.4948730  17.8878956  65.7863541  70.0962601  44.3201065  88.9032364
  69.2861710  44.0538559  88.4683685  70.0784607  45.2768021  88.8778381
  85.6339188   9.9496593  11.1739616  85.7404480   9.6178093  12.0654545
  85.7981186   9.1904755  10.6145773  82.6078415  55.1710663  83.7575531
  81.8546066  55.2780075  84.3384476  82.2417221  54.7939262  82.9575806
   9.0174351   9.1170444  79.6655807   9.4506111   9.9132957  79.3580475
   8.7768621   9.3099737  80.5717468  68.6450806  56.3697281  26.2460785
  68.2376480  57.1177444  25.8093853  67.9156113  55.7837524  26.4479313
  58.9969292  48.1042519   1.5492063  58.7454033  47.7384033   2.3972161
  58.3556480  48.7961540   1.3871461  66.4589844  16.6643963  33.4883499
  65.9804688  16.6181278  34.3160667  66.0975189  17.4320450  33.0453072
  68.4688644  57.2279205  55.2653656  68.2983551  57.7646065  54.4913292
  67.6132660  57.1323128  55.6837387  37.2826004  47.7879105  65.4625626
  36.5109367  47.4041748  65.8791046  37.2565880  47.4613609  64.5631561
  80.5661545  13.4118204  65.5283508  80.0502701  13.0835905  66.2648010
  81.0680466  14.1405602  65.8934174   8.8538332  71.7672424  68.3668365
   9.0366650  71.5744324  67.4472580   9.5234337  71.2837296  68.8506622
  49.2703705  54.3768654  78.8172913  50.1872749  54.2070465  78.6012497
  48.8598595  53.5121613  78.8159332  48.4779625  57.3079224  56.5897102
  49.2952995  57.0990791  57.0420074  48.0268822  56.4674568  56.5098953
  80.0679169  15.5594406  72.3867188  80.0849380  16.4218788  72.8016205
  80.5291595  14.9887934  73.0014191  43.8590775  66.9855499  44.0645943
  43.9910355  67.8167343  44.5206070  44.6809883  66.5109787  44.1890144
  60.2928047   6.0629201  86.2047577  60.1346970   5.2773085  85.6812668
  60.4648819   6.7495008  85.5603790  36.2098389   9.9890900  26.8117943
  36.2354774  10.9423599  26.7290268  35.3834572   9.8097582  27.2603092
   5.0662479   6.4306302  29.5663929   5.6029682   6.0258341  30.2477913
   4.4928403   5.7266312  29.2633724  48.9474983  70.7028122  80.1765671
  48.0468407  70.9035492  79.9221039  49.3160477  71.5464630  80.4385834
  67.2372742  50.3855629  64.5850296  67.7752457  49.7626190  65.0736694
  66.3784561  50.3416862  65.0054398  55.3916321  67.5419464  14.2370939
  55.8105736  68.0812988  14.9077797  56.0938072  67.3407135  13.6184769
  75.3739319   2.0232365  46.8399734  75.8070755   2.5999601  46.2106781
  74.4447784   2.0804529  46.6171951  68.6968079  56.6945915  52.3991051
  68.0252228  56.0141106  52.4454422  68.2171783  57.5134010  52.5245743
  50.6587563  15.4726667  30.1483173  49.8064423  15.0905199  30.3574848
  50.5369720  16.4135895  30.2750626  21.2839146  63.7908020  81.4100800
  22.2052917  64.0501633  81.4148712  20.9750786  64.0201874  80.5335846
  49.9893875   6.1573696  24.2625790  50.9018974   6.4079618  24.4066525
  49.5671539   6.9584165  23.9522972  76.4372025   8.9834871  41.2912827
  76.1709595   9.0457907  40.3739700  77.3724213   8.7825785  41.2561188
  24.4411640  48.8449287  43.3185310  24.6276016  49.7185936  42.9747505
  24.8749008  48.8256340  44.1716042  23.9131489  52.1117554  79.6330719
  24.7651081  51.6871338  79.7335510  23.2881508  51.3879356  79.5919113
  81.8565292  19.2132683  25.3343201  82.2008514  18.7313652  26.0862808
  81.0172729  19.5606251  25.6363392  13.2262516  59.0638313   1.4913580
  13.0374823  58.9168816   2.4181821  12.4146900  58.8289108   1.0414554
  64.0538101  51.8967018  75.3283920  63.3189507  51.6093407  74.7865143
  63.8945465  52.8294449  75.4728241  85.4393463  35.8802147  23.5073471
  84.6043854  36.1443100  23.8937702  85.5576401  34.9732323  23.7895241
  37.2814598  47.0321007  71.0584030  36.5871201  46.4753265  70.7060852
  37.5240288  46.6174660  71.8863373   9.3423996  11.1475401   8.9421892
   8.4475765  11.0668526   8.6120186   9.3845100  12.0317621   9.3063459
  47.3518982  13.2519636  10.4264717  46.4025421  13.3742361  10.4265308
  47.6309166  13.5429010  11.2946520   1.4426399  19.3644295  39.1768379
   1.3263330  18.7606487  39.9104271   1.4025981  18.8073559  38.3994713
  75.5662155  70.5403824  21.5802498  75.3448410  70.4274597  22.5046272
  75.3720856  71.4598083  21.3980579   4.7513094  51.1812325  60.5171547
   3.8239040  51.0057602  60.3579025   4.8756862  50.9872360  61.4462013
  84.8018646  50.9914474  54.7769508  85.5520554  50.4103775  54.6512375
  84.9910202  51.4535141  55.5936203  50.8099976  46.8895493  35.0480309
  50.0442314  46.4549561  35.4234848  50.7294731  47.8012085  35.3284302
  61.4034843  27.6846390  67.3990097  60.4627724  27.8059063  67.5277786
  61.8099098  28.2437630  68.0611496  19.4519176  29.0927296  12.1717005
  18.6572399  29.0468159  11.6400890  19.1381798  29.2850666  13.0553341
  78.4009094   1.8151401  64.1601410  77.8297806   1.1437577  63.7869186
  78.6214523   1.4848542  65.0310593  38.4768219  52.7547035  51.4025192
  37.7958488  52.6157990  52.0607109  38.5450096  53.7063675  51.3255806
  61.3918037  54.8380737  48.6131783  61.0250282  55.6508789  48.9611092
  60.6295624  54.2840958  48.4448776  68.7034607  24.8565331  23.8465805
  68.9159546  25.7872601  23.7771091  69.3119431  24.5204067  24.5046120
  71.4535522  57.9391403  39.1476822  70.7884064  58.4978371  38.7455978
  71.4027939  58.1407928  40.0820236  73.9011078  52.9390564  63.1695404
  72.9848022  52.8828049  63.4405594  74.2467880  52.0574799  63.3093948
  72.2993774  52.9744644  53.7529449  71.9263153  53.0732307  54.6289024
  72.3708801  53.8693314  53.4207764  56.6154900  49.1362343   0.5814534
  56.1213989  48.4258080   0.9906012  56.3983459  49.0742531  -0.3487284
  15.5522366  20.0670547   9.3639307  15.8502436  20.8134594   9.8838387
  16.2001896  19.3831825   9.5333652  17.9049816  37.9407806  21.1871452
  17.4766617  38.6794395  20.7545300  18.8258591  38.0183144  20.9377346
  73.1967010  60.9977837  83.1021271  72.6775208  60.9508896  82.2993317
  73.7299576  61.7856789  82.9968185  77.9296570  51.7140427  56.0218506
  78.2665329  52.5845490  55.8097916  77.4966354  51.8244591  56.8683319
  63.6741142  35.4890900  33.5165939  63.6357536  36.1706009  32.8455467
  64.3977966  34.9249954  33.2439766  85.9987335  25.7055283  29.2997913
  86.6000290  26.2985420  29.7503643  86.5167999  25.3375130  28.5839653
  79.9694366  51.1260643  79.0649338  79.6575012  51.5058365  79.8863373
  79.1825409  51.0400734  78.5267563   9.5533466  65.7239990  59.2652855
   9.6973763  65.7893524  60.2093277   9.5922613  64.7854156  59.0814743
  57.6512337  23.7286243  51.3548317  57.7067719  23.4921093  52.2806854
  57.8481178  22.9165344  50.8879471  46.6995087  29.8775711  18.7711277
  47.3133392  29.4318848  18.1873379  47.2103424  30.5885353  19.1581821
  86.2677689  64.6115570  59.5479851  85.7324219  64.5937653  60.3412781
  85.7014694  64.2455063  58.8686142   9.4865026  54.5751534  41.9065475
   8.9004002  54.8444214  41.1992912   9.2389116  55.1291809  42.6468124
   1.7952105  54.6031380  81.7829666   2.0783753  54.0703735  82.5260773
   1.0291424  54.1447029  81.4376984  18.8146210  50.1827698  56.4820786
  18.1852264  50.0811119  57.1960526  18.6504230  49.4334564  55.9095383
   8.0580244  19.1942692   3.3339598   7.9118953  18.2922401   3.0489643
   7.3115964  19.3904591   3.9001644  21.1595249  45.7240906   0.4974025
  21.5335445  46.5116081   0.1022335  20.9808865  45.1457367  -0.2440992
  32.8889046  45.1053200   4.9416876  32.4313431  45.9267426   4.7624345
  32.2602806  44.4240074   4.7031922  52.2824669  47.3699303  62.8142700
  51.7291031  46.8565521  62.2256584  52.6670799  46.7233696  63.4061050
  38.9971619  53.1250839  11.8402290  39.7503510  53.6308632  11.5350704
  39.3387489  52.2400436  11.9677286   5.7628856  11.4247046  80.2943649
   6.0280404  12.1774893  79.7659302   4.8627157  11.2461901  80.0222244
  58.2542877  18.4451885  50.3998146  57.8725433  17.6450481  50.0388718
  59.1017723  18.1697407  50.7492790  61.8118362  56.7041130  38.5185966
  61.3734016  55.8532333  38.5221634  61.2338219  57.2692337  38.0059853
  21.8929920  41.1814537  68.7214813  21.5646229  40.3404884  69.0395737
  22.8222637  41.1780281  68.9509964  60.0617447  42.2362480  79.4858398
  60.4949036  41.4314880  79.2012939  60.5628662  42.9378586  79.0700912
  44.8109436  15.2264528  27.9850235  44.4383087  15.1921415  28.8660431
  45.4047203  14.4766541  27.9467449  46.4175720  65.2283249  69.9103165
  45.5324440  65.3683014  70.2467499  46.9405594  65.0303421  70.6871796
  50.6794739  45.8581810  66.0237808  51.6361427  45.8882713  66.0131378
  50.4284172  46.4667740  66.7186356  70.1449738  24.1518440  37.7510910
  69.5734558  23.4343433  38.0245743  69.6521530  24.9446354  37.9628410
  28.4025650  21.7062893  11.3045349  27.9185314  21.5197620  10.5000782
  29.3181114  21.5459957  11.0758133  70.3100891  49.3667793  12.8475733
  70.4517975  48.5418091  12.3832684  70.2564850  49.1163826  13.7698851
  28.2884083  68.3902512  74.3160019  27.5476570  67.8320847  74.0794067
  27.9047546  69.0812912  74.8559113  10.2653151  21.3398991  14.6388807
   9.4890127  21.3913059  14.0812569  10.2130337  22.1175804  15.1944971
   7.3342323  14.6088171   8.1578970   8.1181192  15.1581202   8.1535130
   6.6614156  15.1482840   7.7425356  45.5228004  50.3343658  44.3371544
  44.9443741  50.8746986  44.8753853  45.1363335  50.3680267  43.4620857
   1.7633430   0.9166480  76.8102951   2.1514082   0.4849970  76.0491638
   1.0236427   1.4093833  76.4549255  80.3810654  10.2620726  23.2805405
  79.9424744  10.9404583  22.7670555  81.1652451  10.0484066  22.7749386
   2.8673050  32.9473572  49.4385300   3.5992184  32.4599609  49.0604019
   2.7506964  33.6962204  48.8538628  60.8978004   8.4049206  40.6270485
  61.5571709   9.0975800  40.6680832  60.2897568   8.6106930  41.3370972
  40.2261391  66.0768967   4.7542706  40.9196510  65.5260086   4.3912330
  40.1537209  65.7999649   5.6676683  66.1016388  67.5995331  32.6240234
  65.2229614  67.9553680  32.7564125  66.4493103  68.0907059  31.8796368
  59.4223404  23.2250690  71.9429932  59.5137444  23.1337986  70.9945450
  59.0797653  22.3796482  72.2330551  55.9948692   1.5394169  63.0445595
  56.5497475   1.4890585  62.2662239  55.1830673   1.9406899  62.7344131
   9.6480570  46.2353210  80.6604843  10.5948124  46.2012177  80.5236511
   9.5343809  46.0566139  81.5939636   1.1937605  66.2868652  53.9176788
   0.2467771  66.2719116  54.0563507   1.2990921  66.1804352  52.9722633
  29.5509434  51.8268967  22.9254780  28.9213428  51.8927460  23.6434612
  30.1564312  51.1383438  23.2002716  45.3797340  49.9542961  39.0321198
  45.9718094  50.3924332  38.4207954  44.5057449  50.1170502  38.6773148
  85.0266190   1.0798138  43.1653519  84.3150253   1.5489466  43.6009941
  85.4137268   0.5390270  43.8537750   4.8493781  11.3092508  32.9042320
   4.1621270  11.4877186  33.5461578   4.4650750  11.5630121  32.0650978
  26.1731586  22.3911285  19.3933964  25.6233730  22.1791344  18.6390591
  25.7132187  23.1073437  19.8312588  65.7693558   2.7838743  32.0609131
  66.7128983   2.9304106  31.9939461  65.6866455   2.0003574  32.6045074
  79.5420761  50.3504753  34.7856522  78.9772873  51.1215210  34.7333603
  79.2733688  49.8061180  34.0455818  56.1732903   6.9824328   6.0440812
  56.7825966   6.6681833   5.3760786  55.6843834   6.2029839   6.3080149
  84.2830582  52.7794762  78.6523514  83.7680435  52.3137321  79.3111954
  84.3528061  52.1632156  77.9232559  61.4587631  21.4453201  20.7690735
  60.7191544  21.4658165  21.3763580  61.9682961  20.6809063  21.0379143
  51.4571838  35.9399033  22.4643135  50.6107407  36.2038994  22.8249626
  52.0853386  36.5433502  22.8611755  47.0817680   7.3973703  34.0720482
  47.4795647   8.1531773  33.6399078  46.5610504   6.9768524  33.3877602
  68.2830276  60.7879333  28.4738979  68.4574280  60.0137520  27.9386787
  68.0058746  60.4366417  29.3200722   6.8253317  33.9039230  37.3121834
   7.2726541  34.1103439  38.1328659   7.1963224  34.5160484  36.6766510
  60.6161880  53.8322220  12.7250252  61.1082268  54.5775795  12.3806744
  60.6880150  53.9164772  13.6758003  43.8907280  48.3876076  84.4939575
  44.3799934  47.6311340  84.1705399  43.0855408  48.3911819  83.9763718
  84.5405807  39.1524162  12.4081421  84.8096924  39.7174568  11.6838913
  83.6487961  39.4336548  12.6127396  77.9517136  21.5093174  85.0742493
  77.7878113  22.0785561  84.3223648  77.4640579  21.9138489  85.7917328
  17.1648960   3.7340505  84.2453156  16.5174656   3.0722177  84.4883041
  17.0467625   3.8498752  83.3025284  84.6906662   2.5777874  40.1104851
  85.2292709   2.0451252  40.6956367  84.0126801   2.9454310  40.6774139
  34.7618790  52.8599052  19.8113003  34.7088242  53.7551155  20.1459866
  35.6654243  52.7706718  19.5081959  44.7426224  21.5218410  68.1233444
  44.8346443  22.0111713  67.3058395  45.2100372  22.0485554  68.7716751
   4.7254682  59.7140274  84.2135468   5.0243726  59.0643578  83.5772934
   3.9341965  60.0851593  83.8231888  20.5887508  19.4401436  13.7231903
  20.0501347  19.4233456  14.5142918  21.4070015  19.8530426  13.9992590
   4.7721415  70.7258072  52.4915161   5.7012353  70.8494339  52.2972679
   4.7550120  70.4304352  53.4018402  23.3716316  59.8558884  80.7117462
  23.6812382  60.6108208  80.2112961  23.7391376  59.0989723  80.2554016
  27.7046928  15.0124855   5.3069115  28.6093178  14.8365459   5.0482044
  27.2334232  14.2073298   5.0927572   3.4633799  62.6550751  28.0613213
   3.8785813  63.4531860  28.3882065   2.5679855  62.9199028  27.8506851
  10.2132740   2.7536099  72.3091202  10.2442894   1.9444309  72.8195114
   9.2889290   2.8596630  72.0842438  51.1683922  11.0314598  27.6662693
  51.9325905  11.5563507  27.4280930  50.5694580  11.6538486  28.0787468
  10.2235098   4.9562049  37.7818413  10.1469450   5.8226290  38.1814384
   9.6510839   4.9944010  37.0156136  47.2153854  19.9537601  86.2078857
  48.0094986  20.4874458  86.2360764  47.1715202  19.5438194  87.0717468
   6.7390146  33.8560410  16.4085312   6.6659474  33.2352943  17.1334915
   6.0955825  34.5356636  16.6093712   7.4818335  47.6084023  40.2201271
   6.5263510  47.6569786  40.2505455   7.6677690  46.9868317  39.5163460
  52.7180710  70.7949371  13.8458471  52.8289299  70.4438782  12.9622774
  51.7777405  70.7307281  14.0128489   0.0620966  44.8068123  60.0796585
   0.9203839  45.0770111  59.7532120  -0.3295168  45.6117897  60.4186020
  33.5159912  11.4423380  81.0980301  33.9042168  12.2321062  81.4745636
  32.5847549  11.6484222  81.0170517  76.8967667  53.7360115  71.4553986
  77.3317566  52.9730301  71.8360214  76.0238953  53.4214592  71.2200623
  43.6377487  54.0108566  44.6351738  43.7702408  54.6020393  43.8941040
  43.1832848  54.5432854  45.2880249  28.6599236  15.9496937  86.6014328
  29.1255703  15.1853285  86.2620926  29.1162949  16.1667576  87.4143524
  67.6409760  11.4811296  39.8185844  68.2333832  12.2256670  39.9232292
  67.6266861  11.3171082  38.8756523  54.8998718  43.6240044  12.6857214
  55.6212120  44.1676750  13.0024557  55.2804832  42.7504807  12.5944653
  51.8650856  24.9357948  67.8658218  51.8235588  25.8567505  68.1234131
  51.6735649  24.9405270  66.9279938  62.2915382  53.8132172  69.9681778
  61.8774529  54.0061188  69.1270142  61.7579269  53.1123352  70.3426819
  18.4650841  15.6460390   7.2297497  18.7527618  15.8106222   8.1277399
  18.5216999  14.6956844   7.1304884  31.0718670  47.0034866  45.4809723
  31.3961639  47.4375381  44.6918831  30.3349934  47.5438957  45.7659340
  49.8970032   0.7616175  40.3280449  50.2210083   1.2791785  41.0651894
  49.3037949   0.1240822  40.7253990   4.1263824  47.1781235  63.1445160
   4.7238293  47.3163300  62.4095421   3.5512273  47.9431648  63.1327744
  32.6207848  20.6867237   5.7566471  33.0467148  19.8508606   5.9467773
  33.2098351  21.3450184   6.1252966  42.9477081  60.2830238  22.6889610
  42.4577942  61.0892181  22.8510399  42.2867851  59.6561127  22.3950233
   6.9566898  36.0366592  12.5851326   7.1004777  36.9420586  12.3098049
   7.4863429  35.9399986  13.3765593  23.4761295  57.9489365  48.5333862
  23.9809933  58.7508430  48.3981476  23.3980064  57.5649490  47.6600685
  34.0451965  17.8390408  12.8520041  33.9611435  18.3968716  12.0787058
  33.3614655  17.1776485  12.7456865  74.5361862  48.9442673   6.0852027
  75.4448547  49.1972694   6.2481241  74.5409088  48.5950317   5.1939983
  44.9810295  28.8139992   6.0532470  45.2274284  28.4649773   5.1966820
  44.0246239  28.7759037   6.0613041  83.0577621  69.9311829  31.0756474
  83.7390823  70.3887939  30.5830765  82.5644608  70.6289215  31.5069675
  74.8495407  24.2915611  63.3248940  74.4950027  24.8701382  64.0000153
  74.1151047  24.1391315  62.7302551  10.8940268  66.0314713  34.5672646
  11.5147991  65.9261703  35.2882233  10.3826885  65.2223053  34.5713692
  57.1433105  26.0791874  18.7432365  57.7490845  25.8115005  19.4343300
  57.7019882  26.4787426  18.0765553  27.2954121  23.0807476  16.8176022
  27.4188728  22.7522106  17.7081356  27.9917068  22.6640453  16.3098965
  62.9270935  48.8292007  63.0343170  63.1979866  47.9143333  63.1109047
  62.5824623  49.0501785  63.8995514  57.6687431  49.8039551  27.7310753
  56.8673248  49.2815399  27.6987572  57.4041138  50.6682396  27.4160957
  38.1186523   8.9229116  70.6990967  37.8124313   9.8267021  70.6241074
  39.0674629   8.9990931  70.8000107  47.9730568  33.4393692  39.8215141
  48.7742043  33.9302673  40.0043182  48.2788315  32.6105194  39.4530907
  58.2907104  34.3476791  74.9898453  58.2653427  33.4392319  74.6893234
  58.8962212  34.7819061  74.3889771  57.7727432  49.6645813  54.7063103
  56.9957771  49.8039246  55.2477341  58.2775230  50.4725266  54.7993126
  59.6924973  44.6134224  51.6653023  58.8921814  44.1184921  51.4898872
  59.8255386  45.1406898  50.8775711  53.4035683  29.6461849  30.0869789
  53.0824585  29.4838295  29.1999836  53.8186455  28.8234081  30.3457832
  63.6478844  35.5369301  47.5089760  62.7839432  35.2179451  47.2480354
  64.1350861  34.7463341  47.7409668  37.5986786   8.0843096  83.7463150
  37.3607330   8.5968447  84.5189209  37.5981369   8.7180767  83.0289764
  42.4826508  36.3985100  88.7914505  43.0983047  35.6709251  88.8799133
  41.6518936  36.0499802  89.1148682  72.8832397  34.9032021  62.7820091
  73.8301468  34.8224792  62.8963928  72.5150833  34.6013336  63.6124115
  66.8853531  44.7744942  21.8152580  66.2372360  44.7277184  22.5180988
  67.0109024  45.7118034  21.6672211  28.4470425  35.0721283  88.8210449
  28.0896187  34.4274292  88.2104340  28.0919247  35.9088326  88.5209656
  42.5208549   9.1897860  67.9617615  41.6246948   9.5153379  67.8772507
  42.9284210   9.7735691  68.6015396  65.4718399  69.8154831  73.5199738
  64.6633606  70.0556412  73.0673065  65.8966980  70.6516266  73.7112427
  78.6502762  37.2198715  24.0782261  79.3687897  37.0230560  24.6792583
  78.8900986  36.7760506  23.2647514  34.7725258  50.1384239  42.2548943
  34.8693504  49.4346924  41.6133194  34.1421394  49.7985001  42.8899536
  71.4053955  59.8533249  20.1833820  70.6475449  60.3475685  20.4958286
  72.0256195  60.5228844  19.8948479  75.3493271  33.0097733  71.1372452
  74.9058762  32.1629562  71.0873413  76.2372742  32.7985191  71.4255981
  45.6200104   0.6422355  22.8771858  46.4575996   1.0378137  22.6359558
  45.4095802   0.0620545  22.1455154  10.3586655   6.1930795  87.1531982
  10.4523182   5.2405272  87.1429214   9.4209156   6.3428578  87.0330963
  23.7947102  -0.0916859  61.5950737  24.6424637  -0.0629123  61.1515465
  23.5723743   0.8269210  61.7466011  66.0141602   2.1611142  23.4866257
  66.6938782   2.8325226  23.5452213  65.1935654   2.6530085  23.4567013
  37.1426811  41.2058029  27.1481152  37.7604294  40.8370323  26.5167503
  37.3348122  42.1435165  27.1515179  19.7969532  54.4699554  83.9799652
  19.3511105  54.1912804  84.7798386  19.6225052  55.4094238  83.9234161
  81.0575333  41.3077812  16.0058899  81.3713989  40.4308357  15.7852297
  80.4241180  41.1655121  16.7092953  56.8369293  44.2325058  64.5326767
  57.3621941  43.4649048  64.7587738  56.5648994  44.5935516  65.3764038
  58.2331429  16.7726555  70.2905121  57.5216866  16.1399994  70.1914902
  58.3073196  17.1862316  69.4304581   0.8241183  51.0583801  39.0046768
   0.8364364  50.1265526  38.7861023  -0.0822659  51.3274574  38.8553543
  63.9651451   7.0861192  75.5332794  63.5146523   7.9283338  75.5962296
  64.2004776   7.0088944  74.6086731   7.8516836  21.2857342   8.0779419
   6.9574413  21.0016251   8.2672720   7.8670020  22.2100105   8.3263550
  41.8009109  46.7707367  21.8871231  41.2787094  47.4223480  22.3550358
  41.1548958  46.1993065  21.4719601  42.1261482  48.0617905  79.1905060
  41.7783356  48.8755188  79.5553360  43.0731354  48.1980896  79.1609116
  25.7398682  34.1925735  77.1129761  24.9861450  34.7137413  77.3895950
  25.4510994  33.2848778  77.2075119  72.6403198  58.1695404  50.3737068
  73.4011917  58.3024635  49.8083458  72.8868103  58.5732422  51.2058716
   3.8655198  19.4433651  36.3154602   2.9251759  19.2724419  36.2628288
   4.1728687  19.3720646  35.4117546  78.4980545  45.9067879  51.4388580
  78.6202087  46.1960640  52.3430862  77.8218002  45.2314987  51.4927101
  75.1355362  26.7850590  15.9541378  74.2875137  27.2145691  15.8418112
  74.9420624  25.8504028  15.8819218  48.4509964  68.9821777  44.9119759
  48.8791771  68.2645721  45.3788033  49.0664864  69.7122269  44.9785614
   8.0808868  50.3730545  40.2207985   7.9036489  49.4538040  40.0213051
   9.0054207  50.3905258  40.4681129  38.5299950  19.6439915  81.7969131
  37.8120728  20.0054798  81.2771606  39.2664185  20.2322311  81.6299286
  72.4949646  41.4728165  19.6735096  72.9737473  41.5085831  20.5015888
  73.1499252  41.2032852  19.0296040   5.3691268  26.7149525  70.2290955
   4.4465957  26.8875809  70.4171524   5.7971768  26.7421761  71.0848160
  13.0366364  47.5559654  35.9620590  12.3743677  47.8097038  36.6049042
  12.7753754  46.6785393  35.6825981  64.5232468  31.3230495  45.9024391
  65.3103485  30.8000088  46.0545349  63.8097763  30.7894611  46.2523956
  48.7585983  57.3590584  71.0325470  48.0256081  57.8611526  70.6763763
  49.4724808  57.5041466  70.4116211   9.3900061  43.2559471  66.9374237
   9.7687330  42.3999252  66.7373657  10.1009560  43.8761177  66.7756424
  82.4908447  12.7918348  87.4786377  82.5991592  13.2576075  88.3078308
  81.6902771  12.2800083  87.5942383  46.5088043  70.3373718  36.9654388
  46.3648834  69.5166245  37.4365044  47.4246902  70.5553207  37.1383133
   2.2563636  70.3997040  83.7635040   1.7068545  69.6597061  84.0217285
   2.7231863  70.0917816  82.9866562  81.2391205  35.5750351  70.2651443
  80.6470108  34.9575806  70.6945572  81.7059402  35.0477905  69.6168213
  79.2484360  19.2080612  67.2734146  79.1512756  19.8159771  66.5404510
  80.1384659  18.8670044  67.1853485  21.0958233  47.5163269   4.5118437
  21.7700539  47.7088318   3.8602428  20.5926208  48.3274994   4.5826597
  26.4943771  28.4557762  14.8193178  25.7088089  28.7272606  14.3445454
  26.5257549  29.0344238  15.5811672  86.6008301   0.3718654  53.5518265
  86.8825378   0.7283231  54.3943291  86.9756241  -0.5085531  53.5268860
  33.0634499  65.2564468  83.0078659  32.8764267  66.1341782  83.3407822
  34.0080414  65.2552490  82.8530121  70.0150833  23.7894344  46.3425064
  70.6036453  23.9341068  45.6016273  70.3587112  24.3537388  47.0351219
  54.7275734  19.8593674  44.8600426  54.6623611  20.2582512  45.7277260
  54.5235977  20.5710602  44.2533150  44.2408257  43.8275795  35.4000130
  43.2923622  43.8898926  35.5129967  44.5834274  44.6225739  35.8084717
  29.3818436  40.6362000  16.9293041  28.9381351  39.9308624  16.4582920
  29.2242966  41.4158974  16.3968697   0.7625656  64.6026535  11.3136873
   0.7972333  65.5543213  11.2169418   1.0335097  64.2650833  10.4599476
  63.2548256  37.0421982  64.4863510  63.9506264  37.6837769  64.6294327
  63.5691452  36.5063934  63.7580986  49.7110176  57.3611069  53.8846893
  50.1604538  56.5324173  54.0505524  50.3530617  58.0322838  54.1160660
  84.1068192  68.4387436  67.0860596  83.4222794  68.7531738  66.4954910
  83.6482468  67.8661270  67.7009201  55.6347275   1.7513630   8.8790112
  55.2609367   1.8166316   9.7577906  55.4581680   2.6032159   8.4797564
  27.9320736  37.5798225   2.2492619  27.1809044  37.3826218   2.8088019
  28.5243130  36.8381195   2.3731930  20.2849693   0.8285249  44.0154190
  20.3779430  -0.0863622  44.2810669  21.1840420   1.1460218  43.9311829
  72.6939621  59.1685295  13.2262373  72.0605698  58.5137138  13.5199413
  73.4932709  58.6697273  13.0573273  51.1549950   2.3228242   9.1145363
  51.0367622   2.9705868   8.4198008  50.3474846   1.8089899   9.1028643
  26.9351864   1.5292102  43.6299438  27.6262321   2.1539700  43.4100266
  26.2104454   2.0727143  43.9391136  31.4130096  27.8871403  13.2292700
  31.5216732  27.6701889  14.1552048  30.4810104  28.0850658  13.1374216
  64.6815796  16.6159782  35.6338425  64.8788452  15.8787193  36.2115669
  64.0582504  17.1478634  36.1286125  33.8894005  69.4381866  49.5048828
  34.7450676  69.7645874  49.2264404  33.5402794  68.9925690  48.7330246
  79.9497375   2.9809706  19.1092834  80.7857590   2.7752388  19.5275936
  80.1915894   3.4194453  18.2935143  39.6481056  69.2512512  77.4865875
  39.5352898  68.3110733  77.6264877  39.6627197  69.3517151  76.5347824
  51.7062874  13.1202183  71.1180954  52.3734131  13.6290741  70.6574020
  52.1477814  12.8047800  71.9066467  85.2167053  42.8352203  19.0009079
  84.2853470  42.8350639  19.2217941  85.5460739  43.6624146  19.3523331
  84.8188782  65.0865784  79.8297119  85.3540573  64.6487427  79.1678162
  84.5822678  64.3919220  80.4442825  80.2825394  46.5669594  82.7585068
  80.8665009  47.3159599  82.6392365  80.1938934  46.4811363  83.7077179
  63.2583084  68.3454285  17.1247387  64.1285553  68.7434082  17.1472702
  62.9825325  68.3205185  18.0410118  53.9211655   2.2322886  77.5370255
  54.8507080   2.3572595  77.3458099  53.4675941   2.7248297  76.8529892
  12.8123751  50.9044228  32.0881958  12.1631947  50.3422241  32.5109558
  13.0503416  50.4358368  31.2881775  81.6037827  29.9736118  37.9544983
  81.1276855  30.8011227  38.0237160  80.9237366  29.3183937  37.7980957
  42.8401222  36.0317154  71.7445755  43.2203445  36.7072945  72.3060455
  42.8098717  36.4316902  70.8754730  72.9904938   3.6944973  64.9133224
  73.2630844   3.0352261  65.5515137  73.3153381   4.5214162  65.2695694
   0.2385784  71.6201324  61.0062408  -0.2645581  70.8153839  60.8818741
   1.0761716  71.4478073  60.5761528  50.9499168  48.8133621  47.7437363
  51.3142281  48.5066071  48.5740433  51.6238937  49.3908348  47.3852501
  46.3247185  23.0497818  51.5212669  45.4304733  23.0328865  51.1802826
  46.4047279  23.9061432  51.9413605  12.9986496  13.3445091  87.5610657
  12.5747814  12.5464582  87.8767929  12.6402216  14.0402040  88.1122208
  59.6439209  44.0940514  23.3878860  59.9571800  44.0588417  22.4840813
  58.6903114  44.1220360  23.3099365  49.3652191  67.4725647  61.5815277
  49.6526718  66.5743484  61.7452965  49.7349472  67.6901093  60.7258377
  19.8653755  23.9604893  78.0604477  20.3279381  23.3915062  77.4452057
  20.0926628  23.6148262  78.9236298  14.7566814  19.0654793  67.0589294
  14.8133612  19.9386692  66.6709137  14.7370691  18.4709549  66.3090057
  10.6984987  51.5482101  15.6127777  10.4831877  50.8418503  16.2218151
  10.7717199  51.1165428  14.7615833  86.6188354   7.4082875  70.0649872
  86.7749557   7.9868836  69.3186111  87.2301788   6.6828427  69.9376602
  46.6983719  60.6470375  65.2909241  46.2407036  61.3444786  65.7603378
  47.1531639  61.0962753  64.5784760  47.9289131  36.4020996  21.5979176
  47.5093880  36.2555771  20.7501183  47.6448326  37.2785568  21.8574333
  13.6063538  14.9083967  63.2440872  13.7827320  14.5871611  64.1283569
  14.4249640  14.7645826  62.7692947  63.6473579  23.2279282   5.2018414
  64.2551193  22.5478306   5.4922185  64.0276489  24.0438271   5.5272965
  67.5763092  45.9428101  47.9273376  67.6991119  46.7651978  48.4014969
  68.3677979  45.4380264  48.1143417   1.5716938  68.1738815   4.3647370
   1.0429485  68.4544754   3.6177917   1.6365707  68.9522095   4.9181242
  22.0981007  50.1387901  52.6507034  21.9036007  50.1692505  51.7139664
  21.3102589  49.7665787  53.0469284  38.5011368  49.5608215  80.9791183
  37.6243973  49.7800217  81.2945709  38.3501740  49.0935440  80.1574783
  44.8632393  54.3865204  78.8101501  44.1408348  54.6845207  79.3629227
  45.4660645  53.9551697  79.4157639  85.1952209  68.2750320  72.2439804
  85.5331879  68.6512909  73.0566559  85.8590088  68.4869766  71.5876999
  55.3152847  53.4780350  22.0201626  55.5688667  53.6123238  22.9333420
  55.3759155  54.3474770  21.6244087  65.1990356  47.0186653   6.9801536
  64.2707443  46.8639793   6.8052940  65.4439087  46.3311424   7.5994973
   3.3644810  31.6935234  62.8919487   3.9974594  32.2160187  62.3994331
   3.2418029  32.1747208  63.7102585  32.6300049   6.8893576   0.9833463
  31.9601135   6.3721094   1.4304806  33.0498161   7.3922229   1.6812855
  31.5820141   2.4812644   7.0364695  30.8291092   1.9840022   6.7169437
  31.8579769   2.0167575   7.8266025  17.9360085  59.3468781  83.6602402
  18.0731812  59.1237602  84.5809097  18.0683498  60.2940750  83.6210556
  48.1818237  39.8351669  68.8820190  48.4436264  39.8361092  67.9613190
  48.7480011  40.4886360  69.2926865   7.0058904  19.4610271   0.2215703
   6.9082036  18.5223541   0.0616244   6.2332773  19.6982841   0.7344158
  34.7106819  54.3376274  58.1321068  33.8247719  54.1761360  57.8075752
  35.1465378  53.4875603  58.0717354  85.5654602  22.4946690  11.5981112
  84.8112259  22.7499828  12.1293049  86.0822220  21.9291744  12.1720543
  50.9423676  55.2983551   4.6653242  51.0447769  54.3626595   4.4914727
  50.0378304  55.4903336   4.4179664  43.3804245  60.2261887  19.2810345
  43.3202744  61.0651436  19.7379494  42.4967995  59.8617363  19.3321285
  52.2604446  51.8572388  57.4155235  52.3087387  50.9876633  57.0183640
  51.3403473  51.9584656  57.6592560  56.1347961  17.1409016   3.7212741
  56.8029518  17.7349262   3.3793166  56.6307564  16.4493713   4.1594982
  70.2835617  17.8534355  73.4790344  70.4115219  17.2445202  74.2064133
  70.3802643  17.3133392  72.6947021  46.5643921  58.4490051  74.3560791
  45.7411232  58.2394333  73.9150085  46.6477394  59.3985939  74.2690964
  24.1959362  71.3882294   6.0322447  24.5447578  70.5182724   5.8380151
  23.2468319  71.2874146   5.9596524  44.6447449  36.5659790  27.6923447
  44.7445946  37.4291801  27.2909126  44.5057793  36.7486229  28.6216240
  60.6603889  18.6020355  27.8038998  59.9304466  18.6167812  27.1848698
  60.7913513  19.5199318  28.0416927  35.9388695  71.2079163  84.2973328
  36.8605232  71.2420807  84.5534897  35.6333656  72.1111832  84.3810730
  49.2089310  67.4569321  28.5755768  48.8344688  67.8851471  27.8057404
  50.1170998  67.7584305  28.5993290  10.8756189   7.4050636  77.5948486
  11.2990875   7.0600986  76.8087845   9.9470339   7.4493642  77.3668213
  74.1978531  49.1138306  85.4181061  74.2235794  50.0428238  85.1888885
  74.3444901  48.6584244  84.5890503  69.7612686   4.7737465  78.6988678
  70.2281570   4.4982486  79.4877625  69.4968567   3.9552426  78.2789078
  67.0591125  66.9668121   5.4209447  66.8643188  66.4247665   6.1854553
  66.2406006  67.4289780   5.2401967  50.6467361  57.2034149  25.7779770
  50.5861549  57.9425545  25.1728039  51.4347763  57.3788643  26.2922134
  79.0059128  41.3797874  51.1559486  79.5800629  40.6644669  51.4296303
  79.1537323  42.0673637  51.8052673   3.2864716  39.9115677  29.0572777
   3.7137764  39.5108719  28.3002529   4.0024762  40.1026688  29.6631241
  86.1508102  43.2701950  22.8851814  86.2372131  42.3888626  22.5218372
  85.9273911  43.1291313  23.8051910  62.8251915   8.2825460  36.1914139
  63.2274971   7.6238556  35.6252785  62.1989555   8.7342978  35.6257477
  64.5715485  15.3133459  23.3350220  64.4653931  14.9986095  24.2327423
  63.8075104  14.9726362  22.8698425  81.7363968  13.8591299  21.1499405
  80.9193649  13.3664789  21.0725822  82.3609390  13.2315989  21.5137939
  42.8957253  32.1461067  83.0226974  42.1956596  31.5615940  83.3133621
  42.4666901  32.9936295  82.9049454  57.8853302  29.6308117  43.5025177
  57.3171043  29.5258179  44.2656212  57.8369026  28.7886410  43.0501518
  85.3446045  65.8641129  76.7845840  84.7694244  66.4002151  76.2386932
  85.7905655  66.4928284  77.3520966  42.8863373  17.6594734  12.8022738
  43.2561684  18.4236927  13.2443428  43.4212875  16.9256134  13.1047812
  63.3619156  31.6502323  73.7269821  63.2767754  31.4371681  74.6562805
  62.6434898  31.1779804  73.3061829  67.5729904  11.3671570  46.9138107
  68.4180603  11.5043449  47.3419189  67.4585037  12.1375713  46.3574104
  70.2844543  13.8193769  53.0847168  69.7368469  13.2398853  53.6143913
  70.4720993  14.5621719  53.6585426   1.4662901  37.7059479  75.4492722
   0.6044750  37.8348694  75.0531845   1.9723668  38.4710884  75.1759949
  16.8462257   3.5675354  56.4905891  16.4210873   2.8145938  56.0800171
  17.1380062   4.1077156  55.7562141  46.5079155  29.7500648  83.0512161
  45.9760666  30.0085850  82.2985306  46.3815422  28.8037453  83.1200714
  54.4114761  61.5870247   5.2757163  54.8112869  61.0144691   4.6210680
  53.5109787  61.7045403   4.9731860  37.2311325  12.1898813  85.4889832
  37.1553001  13.1132507  85.2484207  37.8069878  11.8152361  84.8224564
  29.2812176  57.0125732  17.9878750  28.4152794  57.4203339  17.9771729
  29.3400574  56.5532951  17.1501198  59.9327621  35.6588745  17.6429787
  59.9456444  36.6151772  17.6035728  60.2332916  35.3794556  16.7782021
  10.6414127  63.2292252  46.7762871  11.0750628  63.7878304  47.4213791
   9.7880535  63.0341072  47.1635094   9.4062166  54.3134956   9.5538893
  10.0925198  53.9385681   9.0019388   9.3124094  55.2133598   9.2413540
  74.9579010  13.9559965   3.4175959  75.7469482  13.8962069   2.8790233
  74.4921722  13.1363087   3.2519469  12.2565584  19.8048553  79.6383514
  11.9685583  20.6781025  79.9042969  12.0003519  19.2365932  80.3647614
  85.0871353  31.1018028  73.1395187  85.4568634  30.4164009  72.5829620
  85.4137802  30.9004250  74.0164337  48.9804077  51.3307457  72.0232315
  48.3650970  51.0234642  71.3574982  49.4931679  50.5553894  72.2515564
  84.8506851  22.8820076  45.7422447  85.5173798  22.7606144  46.4182701
  84.6058426  21.9931374  45.4849586   7.0709481  31.0881138   9.4988461
   6.7789149  31.7461567  10.1296625   6.5065479  30.3325024   9.6623487
  76.3651733  59.9129562  47.6477509  75.7631683  60.0447960  48.3801689
  76.2807465  58.9840927  47.4325371  26.8475533   0.4308679   3.7174134
  27.1866722   0.1399779   2.8708839  26.4756184   1.2952752   3.5422077
  26.4452019  47.7850456  63.1391258  27.1544971  48.4220543  63.0534019
  25.9133415  48.1148224  63.8634186   1.5992354  51.9151497  18.6002426
   2.1336656  51.2578812  19.0459023   2.1715734  52.2670479  17.9184589
  35.0657959  46.5044365   5.2632036  34.2713203  45.9878235   5.1284828
  35.7517624  46.0103874   4.8142076  73.1266479  40.6656570  24.5490322
  72.5686035  41.4426613  24.5819378  73.7530746  40.7903061  25.2619724
  40.3749504  47.8024368  32.9959221  39.9554558  47.9791489  32.1538849
  41.3088074  47.9313393  32.8300056   0.4370773  31.4234695  19.2641907
  -0.1648314  31.4219456  18.5199223   0.0848054  30.7609253  19.8584728
  35.1708298  61.8499641  66.0260086  35.5468369  62.7212639  66.1512451
  34.6180344  61.7147675  66.7956619  81.1176300  44.9247360  77.5801849
  81.5993423  45.6951408  77.2790833  80.7082825  45.2032700  78.3993835
  41.8629227  22.8568821  20.6293907  42.7899437  22.7690830  20.4076862
  41.7948380  23.7203484  21.0368462  73.9301071  42.5336990  50.2859650
  73.6209869  42.6901207  49.3936577  73.6071625  43.2831993  50.7861557
  67.4108887  60.7129631  18.9549160  66.8789520  60.1491394  19.5165062
  67.0536880  61.5907402  19.0896225  46.9724236  34.2241058  16.7059326
  46.9656792  33.5654221  17.4004288  47.1673737  33.7303467  15.9094210
  44.9658699  51.1594353  32.4924698  45.6232719  50.5844879  32.1006889
  45.4738121  51.8590889  32.9032135  45.4455566   8.3726339  70.1516876
  45.9597092   9.0431910  69.7019882  45.8686562   7.5473785  69.9146881
  26.2942715   0.3639605  60.6013756  26.4679184  -0.0217491  59.7427101
  26.2166767   1.3026762  60.4310150  21.7464504   5.8026776   1.7395138
  21.7912731   5.1100755   2.3986993  21.9484425   5.3614802   0.9144222
  20.5029564  35.6404800   4.7005410  20.3487835  36.2024384   3.9411559
  20.7113419  36.2483559   5.4099751  80.6547928  68.4669647  24.0100231
  80.7258835  67.7406769  24.6294479  79.7480850  68.4337692  23.7050362
  71.7892303  31.8307877  12.5132761  72.4958267  32.3451538  12.1229277
  71.6327591  32.2442970  13.3622513  69.4985199  10.1908712   0.1888593
  68.5972824  10.0743475  -0.1118478  69.6707077  11.1253157   0.0731101
  73.2675934  65.6229706  38.7059708  72.4750290  65.4499359  38.1979103
  73.8340759  66.1100998  38.1076126  54.0556831  25.8965569  50.0124893
  53.8221550  26.0632000  49.0992966  53.5449486  25.1235828  50.2530975
   0.3272429  43.9742699  27.0369034   0.6956208  44.7768478  26.6675873
  -0.3849663  44.2751846  27.6012077  66.7478027  43.3322105   2.3855619
  66.6359863  42.5875778   2.9765365  67.6498489  43.6184959   2.5290213
  83.6590195  12.7787495  14.9967937  83.8507843  13.7117138  15.0918407
  83.3509750  12.6881990  14.0950489  16.5194492  64.9705887  35.7758789
  16.5072613  65.5376434  35.0048218  15.5959902  64.8358765  35.9887390
  32.8446579  34.7786827   1.7960577  32.7386246  35.6264572   1.3644669
  33.6949463  34.4602966   1.4929579  84.9559937  36.3633308  16.4541492
  85.1286163  36.3381119  17.3953190  85.2837296  37.2177124  16.1733398
  26.6335182   1.2890021  87.7415848  26.0049648   1.4578667  87.0397034
  27.3727226   1.8643583  87.5446701  44.7521324  23.4675694  21.7332306
  45.5817604  22.9918289  21.6929245  44.8661995  24.0873413  22.4537201
   7.9666348  41.2756195   2.3232009   7.5519500  40.5301933   1.8889115
   8.7949762  40.9291191   2.6548927  40.8464890  20.7506485  84.0055389
  40.9941216  21.6039600  83.5977478  41.3708611  20.7737885  84.8059921
  46.0366249  15.0293283  15.7842989  46.7295151  14.5884476  16.2759857
  46.4114571  15.8787489  15.5514545  70.1495895  42.7303696  35.4341965
  70.9899750  43.0029869  35.8025169  69.5387421  42.7789345  36.1695480
  61.0381355  44.6812973  41.7877426  61.3916283  44.2369194  41.0171585
  60.6768188  43.9768562  42.3257446  79.1626968  35.0166397   4.5706639
  80.0246124  34.8004723   4.9264665  78.6672897  34.1997719   4.6301312
   8.0223274  22.3127232  86.1466293   8.8834000  22.0925999  86.5020676
   8.1068020  22.1639690  85.2048416  19.3404884  17.6545868  73.2314453
  19.9433308  18.0481968  72.6006699  19.0060329  16.8746815  72.7885971
  24.1881371  56.7793236  14.8078432  23.9671154  55.8523369  14.7179899
  24.8936443  56.9196396  14.1763334  54.2530708   3.5771744  44.4395142
  54.4220963   3.1838934  45.2956619  54.6100464   4.4626727  44.5080185
  86.3559952  18.2273865  19.5880604  86.8872986  17.4579010  19.7926235
  85.6259766  18.1854877  20.2057571  43.9823227  54.5472679  11.8719625
  44.5212708  54.6129646  12.6602831  44.5644875  54.8148651  11.1608324
  54.2450409  12.3639364  80.8056335  54.0205612  13.2780981  80.9792709
  54.5206184  12.0194693  81.6551285  19.2733479  57.8286629  25.5429554
  19.5135593  57.4486465  24.6978989  18.3505325  57.6002579  25.6546478
  67.3900452  21.0060940  58.1893120  67.5673447  20.0661793  58.1524734
  67.5376816  21.3129215  57.2947235  52.9606667   6.5323796  22.7426376
  52.9657402   6.5285306  23.6998158  53.7365532   6.0285125  22.4969788
  61.8755188  69.6194839  36.1900826  62.1678505  68.9033279  36.7539024
  62.4741707  70.3397064  36.3878860  68.2565308  66.7939987  26.0786667
  69.0288010  66.5322266  25.5773640  67.6263123  66.0882950  25.9336224
  25.2190495  17.3775845  41.8985825  25.6181355  17.4949760  41.0365028
  25.2234154  18.2529793  42.2857475  48.6438217  57.3352280  76.0957413
  48.0707970  57.5801506  75.3691864  48.0979881  56.7831650  76.6556778
  37.9218102  16.4022312  16.8363686  37.3140259  16.4902802  16.1021500
  37.5535088  15.6973038  17.3689671  25.1919498  37.8483124  70.9341278
  24.3420124  38.2539215  70.7628860  25.1387310  37.5556755  71.8439407
  53.4177933   7.5751548  34.9806862  52.7011948   7.1312876  35.4342270
  52.9961281   8.0231209  34.2473679  35.5279274  28.7167263  73.3021698
  35.3464127  27.9700699  72.7313919  36.4804726  28.8085423  73.2808075
  84.1092377  28.8770866  83.5379105  84.0900421  27.9804478  83.8724289
  84.8491211  29.2848396  83.9879608  24.3659706  55.4849167  60.0579109
  24.4916229  55.1150360  60.9317703  25.1323395  55.1954308  59.5628281
   9.3406658  56.8427887   8.6456537   9.8037472  57.5021095   9.1624537
   9.4050550  57.1568069   7.7437234  68.4196625  51.1784325  59.1188736
  68.5410233  50.5035248  59.7867088  69.3013916  51.3488617  58.7875938
  45.1155586  60.0151863  16.9228706  45.7097740  60.7506142  17.0721455
  44.4008636  60.1548119  17.5441189  70.3045120  59.8730278  50.7353592
  70.9065704  59.2891808  50.2739716  70.7698746  60.1121445  51.5369148
  26.1954212   8.6997156  83.8580627  25.6567726   8.8174858  83.0756226
  25.6115894   8.9150229  84.5853958  60.2829704  62.4004288  31.7326126
  59.4435501  62.0238533  31.4684219  60.1483040  62.6725540  32.6403847
  18.8489571  56.3154678  52.7160797  18.9106979  56.0055962  51.8125305
  17.9129963  56.4582291  52.8568954  18.0291080   1.3842304  50.8674126
  18.8079815   1.1370714  50.3689156  17.3678532   0.7404837  50.6133194
  24.3488541  53.1213341  26.5862408  24.2003536  52.5131569  27.3103256
  23.8585854  52.7467308  25.8544350   6.3310051  65.9016266  25.1827335
   5.8434267  66.3889389  25.8468323   6.7326021  65.1778564  25.6634674
  29.1083012   5.2474647  37.8275948  29.9362907   5.3074460  38.3041115
  28.9899120   6.1159158  37.4428749  66.4024124  10.6156025  83.0693283
  66.6929932   9.7068100  82.9925919  66.8193893  10.9335890  83.8701019
  80.7867508   6.7027326  37.5353508  81.6127396   6.9677110  37.1306686
  80.4798355   5.9728308  36.9975052  79.8128662  60.7511635  85.7822647
  79.7888565  60.7574081  86.7391434  80.5609970  61.3044815  85.5578308
   3.3320878  24.8910389  67.0255051   2.4001379  24.7368641  67.1802063
   3.7737811  24.4110203  67.7260208  82.3644257  22.1555443  55.2853432
  81.9070892  22.6985989  55.9273453  81.6664429  21.6885357  54.8260498
  52.8552208  71.0317001  50.5468521  53.4954224  70.3917465  50.8580322
  52.1177139  70.9459076  51.1509705  10.9122610  42.5892563  74.3668900
  10.0516701  42.3343353  74.6995010  11.3636389  41.7598991  74.2098618
  68.8784409   9.3838501  77.4177094  68.3302460   8.9315166  76.7765274
  68.8608322  10.3007565  77.1434784  56.6969757  50.3267136  45.9892540
  56.3040237  50.1660309  46.8471565  57.2458839  49.5589523  45.8296432
  56.2809639  40.6995354  71.9926300  56.0255623  40.9126549  72.8901749
  56.2749557  41.5406532  71.5357742  73.4826355  18.3381443   2.1226277
  73.9807739  18.6489964   1.3666791  74.0875549  17.7592163   2.5864632
  10.7410641  61.5920486   1.4409517  11.0980501  62.0888901   0.7047839
   9.9775429  62.0961266   1.7223282  70.5643234  49.9949417  38.7139664
  71.1957626  50.0800591  39.4282990  70.1543427  50.8577194  38.6526222
  61.3976059  54.5213737  27.6139069  60.4774780  54.7648582  27.5123520
  61.3732071  53.6127892  27.9140854  75.8430481  33.2261391   1.5816532
  75.1226349  33.7254295   1.9662832  76.5635223  33.3273430   2.2036743
  26.0518303  60.4397888   6.1369371  26.3978825  61.2904549   5.8670278
  26.7295628  60.0751762   6.7061214  58.2487946  18.2949047   2.6406631
  58.8500748  18.0926056   3.3574402  58.7891006  18.7529449   1.9968455
  57.6780128  49.3873672   4.7554927  57.7877579  48.5059357   4.3987465
  58.3713760  49.9013252   4.3415761  47.3743706  57.5143089  33.6688614
  47.0695915  56.8720436  33.0278931  47.0614815  57.1806221  34.5096855
  29.2411861   9.0179119  34.1136742  30.1729889   9.2229366  34.1907349
  28.8213902   9.8646507  33.9618950  81.4038620   1.4401985  25.3777008
  81.6591263   1.0733186  24.5312538  82.1534348   1.9727154  25.6437855
  23.6851635  18.5521927  88.3286285  24.2917175  19.1140957  87.8463516
  23.3238964  17.9645691  87.6649857  64.5229034  22.7338924  64.4542542
  65.1240616  23.0711670  63.7901154  65.0131989  22.7946224  65.2741013
  43.9211540   2.6696446  52.4603004  44.3619766   3.4914420  52.6760712
  42.9980736   2.9081810  52.3751488  81.4180145  54.2162971  81.3176880
  80.8407898  53.5062180  81.0369263  80.8470993  54.8108482  81.8043137
  79.3406982  71.2011261  21.2886734  78.8400803  71.7882919  21.8551083
  79.2336807  71.5666046  20.4104919  70.3468170   7.4658537  39.4706993
  69.7999191   7.9428134  38.8464851  71.1345978   8.0025425  39.5578575
  67.5419998  32.2193718  48.7072716  67.6980515  31.2786007  48.6246033
  68.3825302  32.5773888  48.9928703  66.7787094  63.5028267  19.8364525
  66.8806686  64.1135788  19.1065121  67.4256058  63.7897644  20.4809837
  35.6054611   5.1114693  84.8934937  35.3284950   4.8635325  85.7755661
  34.8210526   5.4858289  84.4925079   5.9700694  20.0157280   4.9788356
   6.0636997  20.9589653   5.1121459   5.0360479  19.8889332   4.8122258
  24.6435413   9.3467674  27.3583202  24.9330559  10.2048779  27.6682549
  24.9274616   8.7376270  28.0399132  67.2167282  54.7026100  38.6947823
  66.8997192  54.6221123  39.5943680  67.9022141  54.0384941  38.6220627
  84.3336945  69.6328201  11.9916143  84.9322433  70.1676636  12.5130682
  84.1770477  70.1498566  11.2014475   5.0435710  60.0969734  48.7651215
   4.8027897  59.6317635  47.9639740   5.8002896  60.6274910  48.5158005
  43.0075111   7.3330603  71.0695267  43.8613243   7.6901555  70.8251572
  42.4198647   7.6169214  70.3692932  52.0614815  69.9501648  67.6374435
  52.2860603  70.1329117  68.5498047  51.1204643  70.1171875  67.5843353
  37.7547188   3.4098766  31.9445934  37.6993904   2.6531641  32.5281639
  38.3626099   3.1381006  31.2569618  72.5467529  47.7624168  78.0680695
  72.8597488  47.5595055  77.1865387  72.5594406  48.7184982  78.1125641
  52.7855377  55.6798363  38.2402458  53.2447586  56.0713730  37.4972458
  53.1358032  56.1357536  39.0055466  55.5705338  64.9331970  74.3725967
  55.8407745  64.0273132  74.2223129  54.6734581  64.9736481  74.0411606
  52.9154053  58.1464462  61.5405807  53.4219551  57.7205009  60.8490524
  53.2194290  59.0540695  61.5357552  64.6986923   9.7167511  61.2096291
  65.4067612   9.7455378  60.5661659  65.0177307  10.2459402  61.9406624
  68.5774155  25.3851013  58.6998138  67.7261276  25.7319679  58.9666901
  68.5744476  24.4791431  59.0087852  45.3807526  59.6950912  29.5708981
  44.8196983  59.3258171  28.8889256  44.8811531  59.5817375  30.3794670
  63.5592270  52.6383018  46.9896889  63.0865707  51.9795151  46.4809341
  62.9819870  53.4018593  46.9878769  36.9459496   0.7766835  68.5256882
  36.3961945   0.5558857  67.7738571  36.4654999   0.4383675  69.2812958
  83.4112625   2.0803812  66.6887131  82.7920074   1.9635692  65.9682159
  83.1177063   1.4635487  67.3592148  48.1196251  36.9587326  84.6779633
  48.7014618  36.4122505  84.1497116  48.5774536  37.7962685  84.7497940
  61.0993423   9.7530890  34.6771278  60.9701729   9.5473537  33.7512665
  60.4986725  10.4786682  34.8473167  17.0987720  65.3665009  50.0769043
  17.7708149  64.7110596  49.8898468  16.8383789  65.6948929  49.2163315
  47.0390701  19.2464466  62.1642036  46.1959000  19.5358715  61.8156013
  47.5955658  19.1454163  61.3919754  24.1009617  58.5584946   6.0163550
  24.7383938  59.2028923   5.7086830  24.5858040  58.0229416   6.6443233
   6.3611212  57.3956375  78.6742630   6.1778889  57.9711914  77.9317093
   6.8988018  57.9265594  79.2618484   9.1882076  54.3772774  26.5795612
  10.0264921  54.6772003  26.9310665   8.6086941  55.1345024  26.6632748
  55.7752914  70.6603470  28.6926575  56.6318932  70.9792023  28.4084034
  55.1644478  71.3494263  28.4313583  33.5466614   0.9807704  28.3522263
  33.3186531   1.1440485  29.2674236  33.4116936   0.0403027  28.2358837
   4.4415622  45.6360931  21.6118050   4.2491403  46.2441902  22.3255444
   5.1007004  46.0870056  21.0841236  22.9869709  33.9360046   6.4581342
  22.7564049  33.3952599   7.2135592  22.2767467  33.7898636   5.8332686
  67.6437531  28.5837059  13.4356909  66.9227524  28.4245758  14.0448427
  67.9844131  29.4422646  13.6868181  58.6686249   4.8039570  79.7724228
  59.2186852   5.3077078  79.1725082  58.3482132   4.0716300  79.2458649
  78.0048676  29.3429947  23.6958351  78.0956726  28.6300507  23.0636177
  77.0674133  29.3762169  23.8863602   6.6730304  36.2866020  58.0792160
   5.8199759  36.5670853  58.4106674   7.3035059  36.6563530  58.6972923
   7.5925369  70.2796173  49.2108040   8.4379215  69.9212494  48.9403763
   7.0285325  69.5128250  49.3115807  64.8983002  46.9618912  47.2555885
  65.6873398  46.4428215  47.0999832  64.1922989  46.4478378  46.8637390
  14.1865320  45.1157913  68.5555344  14.2636261  44.2207718  68.8860397
  14.3960142  45.6681137  69.3087158  14.4989843  11.5124645  21.5638332
  14.4252501  10.6094332  21.2550774  15.4414234  11.6720152  21.6146564
  76.2663269  37.6365318  70.3623886  76.9056778  36.9688110  70.1141663
  75.6586685  37.6726418  69.6236954  61.2320366  27.0610580  25.3340626
  61.9949913  27.0705128  24.7560997  61.2530479  27.9117393  25.7723904
  73.8685837  37.9691010  13.1900120  74.5103912  37.3654060  13.5639944
  73.4031754  38.3234482  13.9476862   4.6930499  52.4006577  37.1254005
   4.8632617  51.6219254  37.6553383   4.1101956  52.0947495  36.4304657
  18.5161572  45.9351387  21.0815525  18.5417976  45.1356697  21.6073132
  17.6747589  46.3370781  21.2977161  52.3907967   7.4597182  89.4822159
  52.6389275   6.5762196  89.7544174  52.3195572   7.4055877  88.5292053
  72.1471939   8.4419613  47.8354607  72.2168274   9.3957186  47.7938728
  72.9449234   8.1248741  47.4120102  52.7002907  63.5921783  74.2389450
  52.4132690  64.4690552  74.4937592  52.7642860  63.1118011  75.0643997
  57.6277428  49.7635994  82.0660095  58.4419823  49.8629036  81.5726700
  56.9407005  49.7779694  81.3996735  47.0735703   1.5954684  13.1278095
  46.9996338   2.4332314  13.5848856  46.2081146   1.4549543  12.7437840
  18.6010666  65.8008804  86.2943192  17.8092136  65.3709869  86.6174164
  18.7551022  65.4055634  85.4362793   8.7787237  41.7946510  76.2208023
   9.0106878  40.8738213  76.3411865   8.6941185  42.1385689  77.1100693
  21.6806240  43.0812454  23.1438866  22.5646801  42.8625832  23.4386082
  21.8024044  43.4340248  22.2624397  54.3946953  37.6048584  81.9070663
  54.0199699  36.8621902  81.4335098  55.2400627  37.2856750  82.2228317
  78.8878937  47.3774109  30.9785461  78.2271729  48.0699921  30.9818230
  79.2420883  47.3800812  31.8677979  73.6615448  53.4866600  29.6170712
  72.7053986  53.4775620  29.6610165  73.9180679  52.5816078  29.7940235
   8.7220249  56.2097511  73.6850586   8.3890142  56.9357376  74.2125854
   8.1409321  55.4775925  73.8912354  23.6270008  19.1769581  27.8824711
  23.4856739  20.1220894  27.9371109  24.1916714  19.0630188  27.1180115
  70.0091858  13.2974100   3.1578472  70.5078506  13.2837639   3.9747777
  69.1412354  13.6107378   3.4122548  12.9933710  54.5758667  36.9964066
  13.4598827  54.0337334  36.3602562  13.4633036  54.4380722  37.8188477
  45.9058113  22.1672306  80.0413818  45.2690620  22.2710171  79.3342590
  45.5445480  21.4698582  80.5885468  44.6276512   5.4489136  12.9429216
  43.9286728   4.8526359  13.2114553  44.6818047   5.3422256  11.9932280
  45.2140503  60.9539566  80.8316116  45.6545334  61.5100288  81.4742508
  44.3639870  60.7590866  81.2261353  59.7936707   2.0114865  24.1074715
  60.6033745   1.8156602  24.5789185  59.7666664   1.3673080  23.3999844
  66.4672241  46.9579735  51.2566147  66.4545898  47.6212311  50.5665741
  65.6197205  47.0492287  51.6920929  51.5836220  25.1263676  74.8311996
  51.5758705  24.3623619  75.4077988  51.4918060  25.8735542  75.4223938
  83.5978165   4.7158241  72.9732361  84.2406158   4.6422806  72.2678070
  84.0229797   5.2698069  73.6278915  69.3525009  36.6254158  77.6973114
  70.3087921  36.6620674  77.7171631  69.1340027  36.5751915  76.7667389
  81.6549377  29.6347294   9.7190199  80.9764786  30.1547642  10.1497107
  81.1754990  28.9326401   9.2791986  85.9624023  46.5772514  88.4291687
  86.8780289  46.6837845  88.6870728  85.8359680  45.6296883  88.3805237
  48.3584480  16.3319817  48.2497711  48.0677032  15.4243946  48.3391190
  49.1031723  16.2869816  47.6501083  85.2216415  68.7106018   7.7446036
  86.1464386  68.4676132   7.7886796  84.8575363  68.4200287   8.5807991
   0.1259917   4.1410813  55.7266769  -0.4631861   3.5104170  55.3127174
   0.3887139   3.7214406  56.5458908  77.9070358  71.5653915  50.7807693
  77.7632065  71.0179977  51.5527115  77.5312271  72.4138794  51.0154305
  66.3941193  44.1397896  64.0094757  66.1744156  45.0214539  63.7084312
  65.5759583  43.7994843  64.3714752  86.2514267  13.1113005   5.7826247
  86.9564514  12.8195782   5.2046356  86.1530380  12.4016705   6.4174294
  56.1962090  56.2810669  61.7804832  56.8649178  56.9612312  61.8607254
  56.6706810  55.5158501  61.4556046  40.2906799  38.0925941  76.4824600
  40.5690460  38.0668068  75.5669937  39.8979645  37.2335739  76.6376801
  11.1270523  46.2044258  71.9354324  11.1340351  47.0417099  71.4715958
  10.1989002  45.9890099  72.0268784  68.9116058  53.6573944  84.9751968
  69.7369003  53.2284927  84.7489929  68.3803558  53.5880318  84.1819763
  70.7973099  15.8363867  13.1947250  69.8862228  15.6426506  13.4152231
  71.2548447  15.8249245  14.0354176  39.3549919  57.4890633  65.4123077
  38.7744637  57.4019814  64.6562424  39.6330261  56.5936737  65.6051865
  69.7542953  38.4635696  36.5009727  68.9331055  38.0551071  36.2270279
  70.2222061  38.6325836  35.6832199   5.1784525  55.1190033  26.9644279
   5.5929222  54.9306183  26.1224327   4.5560060  54.4028435  27.0905476
  76.8590851   3.6526647  45.4683228  77.7910919   3.4366021  45.4984055
  76.6283875   3.5895765  44.5414848  61.1468925   8.3566723  73.2772598
  60.8328781   9.1134796  73.7721024  60.9404564   8.5640039  72.3658676
  59.7572975  31.5940819  46.1058540  59.1825333  31.0004444  46.5890427
  59.1825180  32.3041115  45.8199921   2.5614002  48.9707947  37.6133232
   2.2782137  48.5661774  36.7933693   3.0089183  49.7725105  37.3427467
  49.4256363  50.2205887  11.7778606  50.1137848  50.8606873  11.5963259
  48.6612434  50.7491875  12.0070353  32.7981377  63.2005997  27.0789814
  32.8708229  63.4406013  26.1552124  31.8562603  63.1324425  27.2353439
  20.2302017  57.4902840  28.4153633  20.3026562  57.6112213  27.4686031
  20.8475628  56.7865105  28.6148643  50.7092781  54.8252831  27.8717117
  49.9028549  54.3118935  27.8233414  50.4537697  55.7006149  27.5806084
  50.3836784  49.2069702  63.3777847  49.5190964  48.8180618  63.5099945
  50.9923668  48.4736595  63.4671249  69.6389618   1.6066445  24.0734806
  70.5013199   1.2338313  23.8902168  69.6240540   2.4283392  23.5827389
  32.4686661  59.8536644  29.8720112  32.1977272  59.1798210  29.2485046
  32.7566948  60.5843506  29.3248672  64.9748154  59.2687187  85.9975357
  64.7606812  59.4737320  85.0874023  64.2009964  58.8130188  86.3288498
  17.3545074  31.8711109  81.1752853  16.6584301  32.4637337  81.4590225
  18.1172619  32.4370728  81.0564346  28.0564384  26.1133213  19.1704521
  28.3511086  26.8790398  19.6634789  28.5222111  26.1717834  18.3362637
  56.8076820  65.7192612  22.7313061  56.5612869  64.8373489  23.0101585
  56.8011589  66.2358322  23.5371227  35.2252388  65.6297760   4.5818200
  34.5116463  66.1854172   4.2683253  36.0104866  66.1672897   4.4784145
  55.3892250  29.1057262  49.7606010  54.9195557  28.3172493  50.0325356
  55.6678123  28.9211903  48.8636246  51.0848770  10.3080139  69.6516418
  51.0273705  10.7752752  70.4850616  51.2094803  10.9969501  68.9989014
  75.6181412  40.6902275  71.0763397  75.9751816  39.8316002  70.8493805
  76.0003815  40.8903198  71.9307938   1.3636844  14.9059238  79.4921646
   1.9789426  14.1810932  79.3812180   1.6140167  15.5378695  78.8182144
  41.7453537  36.4830017  17.4464645  40.8823242  36.4538574  17.0334702
  41.7260513  37.2733154  17.9861546  47.3194809  48.9670563  82.8724136
  48.1080894  49.4444580  82.6147003  46.7053032  49.6486588  83.1452408
   4.2592978   8.2023478  32.2832680   3.9731781   7.5358987  31.6585979
   4.1445227   9.0312424  31.8185177  66.1679840  32.3259315  71.0715179
  65.4598923  32.0324097  70.4981995  66.3625336  33.2152748  70.7757950
  34.9303398  33.5590477  16.6063118  34.3347702  33.1700554  15.9658337
  35.1525764  32.8381157  17.1954632  81.8001709   9.0348778  56.8694534
  81.3190308   9.6578102  56.3247528  82.6977234   9.3673744  56.8777847
   7.1474195  66.7437744   8.8112097   8.0014858  66.4251556   9.1032438
   6.7288599  67.0710983   9.6073847  68.9744568   2.0440798  35.0986290
  69.0019760   2.1329076  36.0513000  68.4284210   1.2729245  34.9456558
  59.4662781  28.7789154  13.7263546  59.1910934  27.9085560  14.0144157
  58.6650887  29.3022881  13.7464428  28.2277946  51.1720886   3.9541326
  28.5203133  51.2224121   4.8641496  27.3148174  51.4585266   3.9798336
  81.7786179  42.2784958  46.5502357  81.3908615  41.6527519  47.1620522
  81.3753204  42.0707016  45.7073822  36.2860374  12.8851194  80.2703934
  37.2210922  12.9696922  80.0839844  36.2401772  12.7746305  81.2200851
  82.6873398  43.4861183  16.6828251  82.4491196  43.9151917  17.5046387
  82.0985489  42.7335663  16.6260929   8.3988485  19.4837132  33.4623489
   8.3571243  20.4039783  33.7223511   9.3045626  19.3552723  33.1805382
  32.9653015  49.3974304  19.9600964  32.2603264  49.7928162  19.4473457
  32.6945343  49.5155487  20.8705711  70.4609222   6.0937295  35.2784576
  70.8124695   6.9477377  35.5300865  70.2174530   5.6813059  36.1072311
  58.7163124  32.1103859  62.3731689  57.9844933  31.5124054  62.5251083
  59.2380371  32.0587654  63.1740265  56.2518806  40.7663765  26.5587807
  55.6793480  41.4591217  26.2293282  55.7942162  39.9541016  26.3420277
  80.2192688  37.9073677   8.1248789  80.6989136  37.3063393   7.5548468
  80.6610107  37.8386040   8.9712648   7.6532378  46.6610184  32.7261543
   7.5463705  45.7593117  32.4232788   8.3958492  46.9960480  32.2236443
  73.1813431  43.7216454  17.9537125  72.9789047  43.3393669  18.8075962
  73.5840073  43.0068092  17.4606571  68.6579361  70.7523270  71.1262207
  69.2467270  71.2707672  70.5777893  69.0577545  70.7757339  71.9956055
  18.8162098   1.1285363  19.6450100  18.6702652   0.4525195  20.3067760
  18.4437981   1.9228635  20.0278740  58.3736534  14.7957191  36.2871284
  58.7267113  14.2257280  36.9702797  57.5374222  14.3951349  36.0494766
  73.8952255   4.4644494   8.9925652  73.9232330   4.9395208   8.1620502
  74.7088089   4.7069192   9.4347410  54.5563354  11.5915670  83.3453979
  53.6399689  11.3175087  83.3080139  54.6049576  12.1607504  84.1134491
  82.5652695  40.9914131  49.8151131  82.2809830  41.8954201  49.9499702
  82.9822235  40.7457352  50.6409645  84.2465439  21.7816601  84.6111526
  83.5682755  21.1137180  84.7113647  83.7640457  22.6064682  84.5552979
  67.7689285   5.4565740  46.4710464  68.4223785   6.1448169  46.5957680
  67.1285172   5.8400841  45.8718567  74.1350632   3.5402024  12.9197884
  74.1662598   3.8777571  13.8149509  73.3450470   3.0003121  12.8947983
  42.8518486  71.1894073  14.4274101  42.6551781  70.5831604  13.7132521
  43.4515419  70.7048035  14.9946537  73.7304077  55.8517876  14.5886822
  74.6732101  55.8931351  14.4285450  73.3727798  55.4318085  13.8064079
  78.2893372  61.5716515  30.0785294  78.8379288  62.0811653  29.4821491
  77.4114075  61.6248779  29.7008419  78.2422333  67.3312149  85.6496582
  78.9845734  67.4967194  85.0684738  78.0559769  66.3986588  85.5406570
   0.3081210  36.8885574  48.1570168   0.0944889  37.7924232  48.3885727
   1.1575067  36.9477081  47.7196655  78.9572525  55.1892014  15.3127289
  79.6916885  55.1955147  14.6988907  79.2228546  55.7885895  16.0101681
  60.8900337  36.4509888  25.0999622  61.5547371  36.2978783  25.7714939
  60.8326378  35.6212425  24.6261902  10.7584209  45.6575775  15.6583900
  11.5208731  45.2297821  16.0481224  10.3595629  44.9824753  15.1094084
   6.0317268  70.6576462  69.0666046   6.8225961  71.0749969  69.4080429
   6.3477988  70.0727463  68.3779678  46.4270210   3.6645429  26.4721928
  47.2666054   3.3037620  26.7570953  46.6579514   4.3093839  25.8035488
  66.9531326  65.7826309  63.4345779  66.8314285  66.3611603  62.6817665
  66.1596832  65.2476501  63.4562531  83.6238403  44.1120148  29.7671642
  83.0860748  44.8135834  30.1343746  84.1797104  43.8309097  30.4939480
   7.8833694  26.8990822  29.4099636   7.6388268  27.8243351  29.3915539
   8.8030653  26.8890991  29.1448364  25.2593079  45.4944534  61.7914162
  25.0305023  44.7614975  62.3629532  25.4167290  46.2247429  62.3898506
  78.2196045  50.7923393  70.0809097  77.7231445  51.5429573  69.7548141
  77.5757141  50.0865021  70.1395111  28.5835285   4.0834179  31.8761139
  28.0040340   3.4458559  32.2931671  28.6140079   4.8170180  32.4902267
  82.1764908  20.9673786   9.0468903  83.1327438  20.9326382   9.0714483
  81.8967896  20.1314297   9.4199696   2.6611090  16.7597351  40.3821144
   3.3006656  16.4086094  41.0017204   3.1777194  16.9920502  39.6105080
  64.8805008  33.6930542  16.9076710  65.6274567  33.6488571  17.5046158
  64.2367096  34.2305946  17.3689823  26.4727707  69.0390320  25.9263592
  27.3123798  69.2274170  25.5070744  26.0753860  69.8989334  26.0637550
  24.0768051  66.4599686  63.2208252  24.1150284  67.3526611  63.5641479
  23.1425743  66.2890015  63.1015968  20.0582142  63.5478783   3.5330389
  20.3539696  63.3186188   2.6520162  19.1074200  63.6251526   3.4539738
  64.1882172  52.0471344  21.0628147  63.9113503  51.7614250  20.1922150
  65.0482635  52.4432487  20.9226418   5.1005936  32.4413376   1.8651059
   4.7309318  32.6069374   2.7323771   4.8969579  31.5227089   1.6893663
  40.5083771  62.0138550  19.9779263  40.4979973  61.0896149  19.7291203
  41.4327049  62.2603722  19.9450684  74.2055054  31.2322865  86.8182144
  74.6329422  30.3840637  86.6996918  74.8724670  31.7809944  87.2309189
  66.0514908  68.0585709  14.2552080  65.8340759  67.2445831  14.7094984
  65.7742233  67.9097595  13.3512115  83.8356705  57.3953018  13.7163429
  83.4728928  58.0461121  13.1154499  84.1065979  57.9013176  14.4823570
   1.4657480  44.5153999  56.9734459   1.7614688  45.4257584  56.9783936
   0.6031453  44.5415192  57.3875313  39.7046776   0.1243908  43.9052238
  40.3267937  -0.4170593  44.3910561  40.2361603   0.5614296  43.2398262
  81.5813980  47.4403877  36.8288231  82.1683197  47.2077026  36.1093712
  82.0657043  47.2026176  37.6194801  60.9891014  66.9602890  52.2667923
  60.1972389  66.7512512  52.7622566  60.6887627  67.5444565  51.5705299
  22.7749519  36.4241371  81.4153366  22.3426361  35.5772972  81.5257721
  22.2590160  36.8707047  80.7440567  69.6635361  27.0547123  71.9644623
  68.8950958  26.5043850  71.8132019  70.4071198  26.4600029  71.8662872
  74.4094467  63.7506447  55.7425728  74.6091080  64.3115692  56.4920616
  74.0445480  62.9548073  56.1295052  69.7330856  52.7297478  24.8704376
  70.1407089  53.4505501  25.3505592  70.4104156  52.0545044  24.8316269
  76.3822861  53.0925865  78.5300980  76.0678406  53.9950218  78.5845413
  75.9006348  52.7151146  77.7940521   9.5623322  62.1502762  24.9451828
   9.5866060  61.8819962  24.0266705  10.4700069  62.3707199  25.1543827
   6.4391732  26.3236351  84.7719269   6.3872252  25.6661987  85.4656906
   7.1616545  26.0297375  84.2170563  49.9694939  39.2689362  50.7054863
  50.4506378  38.5802498  51.1642303  49.9637337  40.0052223  51.3171082
   2.3448977  62.9506378  81.2727127   2.4186602  62.3958015  82.0492096
   2.2257955  62.3353996  80.5491638   5.5181379  26.7442341  60.6772423
   5.9818783  26.7541485  59.8399353   6.1919169  26.9456768  61.3266068
  76.9178696  34.0027275  80.2861786  76.0579071  34.0991783  79.8770447
  76.7338486  33.9666328  81.2248306  53.2129135  70.2211304  75.9410477
  52.3172379  69.9091644  75.8119278  53.7564468  69.4408875  75.8313980
  61.4718399  37.7330666  75.1087723  62.0199318  37.4932709  75.8559799
  61.3372841  38.6760368  75.2032623  12.5795889  65.1515350  69.3016129
  13.0689459  64.8059769  68.5550613  11.6610899  65.0113373  69.0715408
  20.3357506  67.8348083  60.1219559  20.6462154  68.7382812  60.1818390
  19.5393810  67.8897247  59.5937424  34.7506828   2.1367133  53.7175636
  34.2029839   2.0711825  52.9352798  34.5789185   3.0149479  54.0573158
  70.3583908  45.0232620  75.9250565  69.8539505  44.9833069  76.7375641
  71.0909424  44.4240112  76.0682220  69.5712662  34.6786118  12.9113712
  69.5950317  34.2255859  13.7542429  70.3470154  34.3630066  12.4478617
  64.5446320  24.2935925  80.0583649  65.0162125  23.4681339  80.1700058
  65.2175140  24.9681568  80.1501312   4.4347229  28.8926258  21.9462471
   3.6205292  28.5375156  21.5895729   4.6416049  29.6346188  21.3780231
  82.7641602  41.5569801  28.4275055  81.9993668  41.6573715  27.8607216
  83.0680161  42.4516869  28.5804596  78.0399780  24.4688396  15.9839325
  77.8588104  23.6085033  16.3623924  77.1782684  24.8742180  15.8871965
  45.9829674  63.3640022  33.2888031  45.3848457  64.1001053  33.1598206
  45.5025177  62.7616920  33.8568077  32.1229401  59.2627754   9.4269180
  32.7766151  58.8554192   9.9952478  31.8242989  58.5530434   8.8583021
  55.7655449  51.9377518  40.0476799  55.3546524  52.0025482  39.1855927
  56.2007294  51.0852165  40.0421181  21.8435841  44.6897850  20.7735214
  21.5523777  45.4545517  20.2769737  22.7972164  44.6999245  20.6915779
  66.6787109  12.6794262  72.3633652  66.1376038  12.7251167  73.1516190
  66.1261597  12.2372618  71.7188416  44.0716896  47.4370918  29.7373028
  44.9394455  47.2046471  30.0677624  44.2335968  47.7762833  28.8569813
  56.4132843  49.0400200  48.4562569  57.0579147  48.3553009  48.6347084
  55.6090279  48.5638466  48.2497139  63.2453384  18.5656681  26.7750320
  63.5816765  19.1011124  27.4936466  62.3559494  18.3354683  27.0437927
  16.0942497  56.3703537  53.1000786  15.7631760  57.2303352  53.3590240
  15.8991833  56.3102608  52.1648941  66.3767700  41.2302856   7.1240764
  67.0998917  41.8460464   7.0050650  65.8464050  41.6156044   7.8215508
  19.5533180  51.9011497   7.7490950  19.4577389  51.4342690   6.9189625
  20.2492008  51.4317513   8.2091427   1.4189587  48.0606537  81.6488037
   1.1633289  48.6847191  80.9695206   2.2197433  48.4283028  82.0227127
  26.5293808  32.5426369  83.0602188  26.6483746  33.2147179  83.7313156
  27.2091465  32.7280998  82.4123306  85.5116501   7.7428408  47.4527931
  86.1536636   7.3243437  48.0262947  84.7643890   7.9250703  48.0225525
   1.9325606  48.1028175  60.3375702   1.4492418  48.6951447  59.7615662
   1.9431480  48.5482407  61.1847496  52.3502388  58.6417389  30.2666035
  52.4579163  59.2868118  30.9655476  51.8049889  59.0830421  29.6153088
  28.9213886   3.3431480  46.3271637  28.0766811   3.2056859  46.7558861
  29.5088463   3.6082523  47.0348663  63.7314835  28.8897934  55.2277756
  62.9799805  29.1547432  54.6974182  63.7318535  29.5006714  55.9647026
  64.5129471   5.3299208  32.1310081  63.8715706   5.2464266  31.4253941
  65.0493240   4.5401425  32.0618286  39.0226517  -0.0172197  47.2861977
  38.4854965   0.6858886  47.6513481  39.9198494   0.3108692  47.3464203
  52.9647293  68.9401245  39.5471382  52.6748810  69.4328842  38.7794113
  52.2402573  69.0161743  40.1680946  29.0654545  59.0491829  20.6489849
  28.7658310  58.1413956  20.6977444  29.9863014  58.9842033  20.3959045
  15.3088760  49.1199532  24.1542645  14.4843693  48.8587151  24.5643559
  15.8630667  49.3949890  24.8846474  73.1239395  27.2784958  28.2702560
  72.4677505  26.5830154  28.3144798  73.6869965  27.1251373  29.0289879
  59.6051369  13.8056364  32.9227715  59.7146187  14.0291214  33.8470535
  58.6709900  13.6182203  32.8306961  27.3395672  25.0254955  88.9848328
  27.2006245  24.2814140  88.3989410  27.2531509  24.6573505  89.8641739
  58.6406593  24.6738815  40.9478416  59.4353752  25.1447792  41.1986694
  58.8532295  24.2786198  40.1023750  34.2791748   2.6870801   9.3291187
  34.9438400   3.2764993   9.6855431  34.3693848   1.8851259   9.8438644
   1.1992905  31.1000252  22.7873898   1.5804429  31.7991161  22.2561398
   1.0777438  30.3736897  22.1759224  52.7586861  24.6580200  87.7166595
  52.9959831  24.6488857  86.7893829  52.0046654  24.0714417  87.7767181
  44.3460388   9.4989185  19.1666908  45.1051140   9.7105865  18.6233368
  43.9172554  10.3412704  19.3177547  31.2197208  35.2215843  81.9067307
  31.4118843  34.5077705  82.5148163  31.0329876  35.9724998  82.4701920
   7.1733532  33.8295860  58.9974785   7.3403745  33.3103294  58.2108955
   7.1321692  34.7329979  58.6838188  85.0544205  42.7130699  60.5804710
  85.8199234  43.2735519  60.7073364  84.7303238  42.5463371  61.4655647
  33.0168839   2.8698478  47.5611649  32.9061127   3.8205180  47.5748672
  32.2085533   2.5289855  47.9441109  68.4033737  56.1668091  41.4339294
  68.9830017  56.8054619  41.0187378  68.9655762  55.4125633  41.6107826
  44.5769005  26.0313835  19.2028179  45.4226761  26.4403000  19.3863392
  43.9597206  26.4922161  19.7711086  76.7942047  27.1949177  67.9336853
  76.8245468  28.0328369  68.3954239  76.0683365  27.2876148  67.3166351
  29.0274734  69.7138596   9.7138252  29.2186069  69.6271362   8.7799196
  29.1417561  68.8306580  10.0647173   8.6448784  16.2797794  83.0394821
   7.7763605  16.4882832  83.3836212   9.1796722  17.0420818  83.2611160
  62.3132896   4.0535312  77.7606201  61.8488922   4.7734728  77.3337097
  62.4341164   4.3482752  78.6632614  15.6789207  55.8486710   9.0488701
  14.7743416  55.8395386   9.3617334  15.6345062  55.4577599   8.1762609
  49.5372200   1.4859798  80.8814087  48.6821747   1.3552657  81.2913284
  49.9167747   2.2288873  81.3507233  36.6847954  57.9558487  44.1168594
  37.0251846  58.4750862  44.8453903  35.9831200  57.4319496  44.5034065
  53.3849182  44.3924446  37.2649918  52.7723236  45.0041542  37.6733665
  53.3962631  43.6368179  37.8524742   3.3134880  53.1245651  25.4739342
   2.5298209  52.6168556  25.6844826   3.0565054  54.0345268  25.6228065
   7.5945201  18.4457226  20.5359650   8.4162121  17.9834709  20.7014217
   6.9870496  18.0949841  21.1872654  11.7710733   4.3146963  21.6356907
  11.6664181   4.3184853  20.6842365  11.1557722   3.6483552  21.9416752
  40.0943680  44.5206070  55.0299339  40.3597832  43.6028938  55.0898399
  39.3767891  44.5215378  54.3964462  86.1057663  30.0003929   4.5404572
  85.9478912  29.7712402   5.4563169  87.0035172  30.3322144   4.5279050
  10.0125694  43.6768608  26.6745853  10.5263062  43.4088936  27.4364910
   9.5547752  44.4674110  26.9604015  58.8369789  58.8751030  55.0202446
  58.1838188  58.2956657  54.6279869  59.0922966  58.4343376  55.8306580
  41.7652016  36.3469391  20.9024658  41.7311096  37.2314262  20.5381203
  41.1578407  35.8417015  20.3620205   6.9812818   3.6517215  61.8945770
   7.7661328   3.9400785  61.4286461   6.7205930   2.8458078  61.4487343
  39.9875793  43.3405380  81.1435318  39.5974693  43.9227676  81.7954941
  40.5873070  42.7876930  81.6444473  60.8741684  53.8332748  86.6860657
  61.0243683  53.6097031  85.7675476  61.3127861  53.1381264  87.1765900
  17.5553303  59.2490616  38.8150330  17.1540909  58.3823013  38.7520523
  17.9862366  59.3755112  37.9697151  59.7166328  54.2927589  21.9282436
  59.3677292  53.4868889  21.5473614  60.6587944  54.2461090  21.7658138
  59.7999268  68.6857910  55.0150452  60.2570572  68.2586288  55.7394753
  59.6118546  67.9773102  54.3994904  85.8988037  27.1722374  54.6198044
  86.2814713  27.7396355  55.2890282  86.4507751  26.3902283  54.6246376
  42.3406906  19.9948349   6.6816726  41.4889069  20.3794804   6.4749422
  42.4896545  20.2219810   7.5995212   3.1953702  16.1025238  85.3172531
   2.7335134  16.9369049  85.3992691   2.5380208  15.4977064  84.9732742
  82.2611160  24.0069885  88.4826813  83.0513916  23.4727764  88.5621490
  81.7013016  23.5182495  87.8793716   1.0324908  34.4963531  71.8995056
   0.2432287  34.2491570  72.3813629   0.7314393  34.6343727  71.0014191
  67.8707199  49.8131790   8.3645964  67.5950623  49.5607567   9.2458048
  68.6427460  50.3618355   8.5030975  79.1300888  32.8819580  83.5044022
  79.3366852  33.6546097  82.9785080  79.4558182  33.0935783  84.3792419
  27.9544735  15.6412363  76.1367645  28.4317131  15.9914417  76.8889847
  28.4104519  14.8276205  75.9214859   2.9496586  70.8405457  18.7491245
   2.5524747  70.1299667  18.2455845   3.8476322  70.8931732  18.4218521
  13.3171625  40.2634811  17.0357113  13.4377079  39.7333641  16.2478809
  13.1741066  39.6250572  17.7344093  66.2307968  71.1865540  77.4203415
  66.4742584  70.6943512  76.6363220  65.7485046  71.9435349  77.0877609
  69.3808899  19.1649227  78.4705048  70.0378265  19.7107391  78.0383530
  68.8021164  18.8812122  77.7628555  76.4485321  23.8374653  23.9221497
  76.0448456  23.0166931  23.6400146  75.7199631  24.4557209  23.9785919
  77.9174042  49.2421074  19.4913425  78.4450912  49.5827522  18.7690334
  78.0797653  48.2988167  19.4824982  55.0026779  47.0775528  52.5639038
  54.2866287  46.7893562  51.9978218  54.7768478  46.7352676  53.4288177
  77.0163116  63.5847282   8.1321478  77.5637360  62.8266907   7.9273477
  77.5571594  64.1211395   8.7117910  57.0528717  30.9235535  52.6379929
  56.5621834  31.1758900  53.4201584  56.5247154  31.2483559  51.9087563
  15.3763351  40.9930649   4.5491343  15.8292761  40.4095917   5.1579351
  16.0250053  41.1820679   3.8710954  61.1560860   5.4084110  25.9892635
  62.0777016   5.2084088  26.1531506  61.1002808   6.3608551  26.0665169
  38.3486977  36.9387169  69.3616943  38.5333290  37.6507416  69.9741974
  38.9442024  37.0931396  68.6283722  78.1622314  29.1117859  84.3719635
  77.8728027  29.0371456  83.4626236  79.0402145  29.4885960  84.3137054
  35.0423965  52.7737579  35.7544289  34.2893677  53.0976601  36.2486610
  34.7816658  51.8988571  35.4666748  36.6846542  68.0680542  69.1702499
  36.7983398  67.4349442  68.4613876  37.3642349  67.8414001  69.8050919
  65.4767609  62.4722862  10.4891768  65.2324829  63.3255119  10.1306076
  65.0971832  61.8389359   9.8800621  57.5763893  39.9940567  60.5917091
  57.9479103  39.6017723  61.3818436  56.8542137  40.5356865  60.9100304
  23.8464317  10.0210686  17.2801208  24.5826645   9.7141628  16.7509670
  23.4909248   9.2270231  17.6792908  37.3563728  23.3741665  86.4479675
  37.5147667  24.2526855  86.1025009  38.0345497  23.2522011  87.1123734
  15.6566954  61.1331673   7.5831437  15.2653427  60.8007393   6.7753277
  16.5984783  61.1298141   7.4120712  52.1589165  65.7957077  10.1468906
  52.7584229  65.9549103  10.8759155  52.2921638  66.5402374   9.5602484
  14.1842823  32.0692711  78.6137772  14.0449629  31.6799908  77.7504807
  15.0980606  31.8729401  78.8204041   3.4216959  24.2829380  19.1426411
   3.2134736  25.1518192  18.7992458   2.9590063  24.2389107  19.9794273
  28.2690334  44.2464561  23.0620537  27.6521111  44.8719521  22.6820660
  28.9853840  44.7878799  23.3936119  16.5396862  31.1079082  19.4307690
  16.8179817  30.4047413  20.0175724  15.7640858  30.7598572  18.9908390
  20.4159412  58.3540268  13.6767120  20.8619576  59.1752777  13.4697132
  19.4924793  58.5949364  13.7502871  11.8282185  69.9133148  34.2751923
  10.9535770  69.7263107  34.6161652  12.1640024  70.6060333  34.8440742
  71.1458893  12.6084776   5.7707348  71.8507309  13.2275867   5.5806484
  71.4242554  12.1677456   6.5735426  78.1189194   1.3211707  34.7180862
  78.2361374   2.1700146  35.1446495  77.5312881   1.5010213  33.9842110
  81.9451981  26.7146282  67.3410568  81.0711975  26.3924007  67.5613632
  82.3049240  27.0198250  68.1739349  37.0291748  55.0666885  46.4302826
  37.2809105  55.5403938  47.2230415  37.6882362  54.3779869  46.3433380
  34.5752182   0.4890921  45.8833122  35.3686142   0.0701868  45.5497360
  34.8606949   0.9479538  46.6733627  46.3979301  68.2748642  27.4931602
  45.5433693  68.5284653  27.1443787  46.5350876  67.3852463  27.1675797
  71.5730515  10.0655756  68.0766830  71.3317566  10.0692644  69.0029678
  72.0074234  10.9073563  67.9389801  34.5717163  28.6358070  80.0762405
  33.8836288  29.1151962  80.5377121  34.1105232  27.9264164  79.6286926
  22.0520878  69.3517151  54.4754601  21.8689518  70.2860794  54.3771973
  23.0075169  69.2949753  54.4883690  39.5657501  46.8198509  86.4873123
  39.4177513  47.3941841  85.7360077  38.6876144  46.5664062  86.7716980
   3.8374538  24.3188190   3.2794352   4.2466202  24.0390244   4.0982943
   4.3382568  23.8724079   2.5966866  29.2467232  29.8497639  11.0840883
  29.1294022  30.5303707  11.7468405  29.2172890  29.0290375  11.5757933
   7.1520925  49.6820068  35.8608131   6.8388252  49.4375420  36.7316360
   7.9967470  50.1033707  36.0196877  27.3476067  35.6898880  79.0264435
  26.7929859  35.2677917  78.3703537  26.8041935  35.7233276  79.8137283
  30.9928169  46.1476250  60.8605652  30.2302532  46.4307556  60.3560181
  30.7749767  45.2604294  61.1463394  41.0823402  13.0466080  86.0922165
  41.4533157  13.1841240  85.2206039  40.7843361  13.9142761  86.3653030
  55.3711967  21.6029949  73.9674911  54.9141922  21.5489426  73.1281738
  56.1455116  22.1352329  73.7847595  59.3365097  36.1695824  49.8238487
  58.7946396  36.0545502  49.0432243  59.8360748  36.9680252  49.6531067
  63.3649864  45.2543449  45.6237640  63.7588501  45.4364777  44.7705727
  62.6113358  45.8426361  45.6701431  49.0727768   0.9414904  84.5184479
  49.8501129   0.6438243  84.0458221  48.5173111   0.1643327  84.5794067
  71.9756393  65.9116058  75.9204025  72.2006531  65.8277359  74.9938126
  72.0687103  66.8460464  76.1058426  21.6785431  47.8338890  22.7889347
  21.9782410  47.4605865  21.9600430  20.7869949  48.1321220  22.6088562
  58.7849159   6.7853942  61.3708611  59.4047928   7.1763716  60.7551308
  59.2276764   6.8315454  62.2182465  80.5709991  48.9900017  59.2047424
  80.4968262  49.3370552  58.3157616  79.9237518  48.2857742  59.2417068
  22.4175930  24.9626255  25.9103203  22.1978264  25.8716087  25.7061577
  22.9711590  25.0191784  26.6891651  52.8831711  58.7064857  44.5401459
  53.4898872  57.9998055  44.3193855  53.1222382  59.4206924  43.9493942
  61.7711716  14.8993053  22.6431904  61.6752510  15.6926498  22.1162796
  61.1650581  14.2735920  22.2465267   5.3904161  20.4518261   8.3803520
   4.8142624  20.5701904   9.1355133   4.8102736  20.1497402   7.6814876
  47.3473701  13.7805634  48.5084763  47.4972458  13.2118587  49.2636909
  46.4141808  13.9899445  48.5477715  34.3579521  47.6079178  82.7590714
  34.7098618  47.1949997  81.9704666  34.4961967  46.9605331  83.4504547
  51.8374062  52.5991859   3.6145377  51.8478165  51.7269783   4.0087137
  51.2452469  52.5171242   2.8669789  19.4659996  25.9633236  22.5331154
  18.7261372  25.6822720  23.0714874  19.9200840  25.1514568  22.3074780
  30.5676346   4.2701178  88.5930099  30.7141552   5.1826935  88.8419418
  31.3921337   3.8300800  88.7998886  21.1726265  32.2258224  78.9313583
  21.7530270  31.8533344  79.5951538  20.6514702  31.4836121  78.6251755
  69.8507233   9.9821911  27.8560181  70.2747650  10.7170401  28.2992134
  70.5720596   9.4048319  27.6058788  69.0848389   0.9793178  16.1553936
  68.3421631   0.9354272  16.7576675  68.9743881   0.2199573  15.5832005
   5.3374166  50.2958717  76.8947983   4.8873358  49.9227753  77.6527252
   5.2655072  51.2426796  77.0156860  38.2149773  65.6305084  11.8948202
  37.7796745  64.9658356  11.3610144  37.5787163  66.3430176  11.9559679
  67.1451187  39.4368706  87.4662552  67.8977890  39.8128929  87.9226837
  67.5198517  39.0168571  86.6920471  20.2887306  54.4772682  10.3728991
  19.6474800  54.3745384   9.6697102  20.0143871  53.8489799  11.0408974
  86.4396515  27.7407360  -0.2177177  86.3816681  28.6857643  -0.0770311
  86.2080078  27.3579540   0.6284817  82.9010315  35.8312607  25.2174644
  81.9668884  35.9111099  25.0244751  82.9789200  36.0904007  26.1356201
  54.2708817  47.8167534  46.5994911  53.7357712  48.5995216  46.4684944
  53.7782631  47.2928276  47.2312050  60.8024445  44.1499176  88.7597351
  60.3123474  43.4031754  88.4156265  60.2237358  44.8999329  88.6226120
  13.4285221  48.7216072  30.3455048  13.5718317  47.9846344  30.9392796
  13.2935181  48.3162956  29.4889259  53.4301186  70.4466019   6.3218241
  53.8507309  69.6165848   6.0973582  52.8242950  70.6112137   5.5992541
  44.3769493   9.4846544  72.4595795  44.6303787   8.5658255  72.5476608
  44.4337654   9.6597958  71.5202560  13.6598368  61.7907944  21.3812752
  13.4637661  62.7244644  21.4590816  14.1618719  61.5849609  22.1698341
  30.8629532  45.9034233  23.2654991  31.4645672  45.8685875  22.5218067
  31.4125690  45.7185097  24.0270500   6.7273231  61.9879189  72.7499161
   6.7540884  61.0352516  72.6608200   7.6463103  62.2487183  72.8105698
  19.7319336   7.6267810  65.2737045  20.4240360   7.0675998  65.6266098
  18.9328442   7.3165812  65.6996918  65.2318649  42.4841537  79.6987991
  64.9991913  41.5970573  79.9729538  65.5589981  42.9028511  80.4949799
  40.9551048  55.2758865  48.5504646  40.0054512  55.3120842  48.6648445
  41.3068085  55.7053642  49.3302650  17.9889870   0.0652886  21.9772720
  17.9400711   0.8965253  22.4493790  18.5730286  -0.4771560  22.5072556
  73.4140244  36.8065186  18.4230118  74.3593826  36.9548416  18.4459915
  73.0655594  37.3755226  19.1093311  22.6670513  66.8663254  29.3000660
  22.1200523  67.2384338  28.6082878  22.2001724  66.0777435  29.5764599
  78.1046677  21.4495468  72.3912048  78.9658661  21.3695183  72.8012848
  78.2406921  21.1582050  71.4896240  20.5335426  53.6779823  89.0731659
  20.9669743  54.4229240  88.6567154  20.6835766  52.9474716  88.4730988
  51.3090477  37.4878082  52.0035553  52.1036186  37.0075226  51.7707176
  51.0564537  37.1338654  52.8562851  75.6864777  27.8346748  61.4576492
  76.2413788  28.6118832  61.5228996  75.2557678  27.9186268  60.6069603
  55.5125923  34.7309380  35.3135681  55.1098480  34.8541718  34.4540100
  55.9485474  33.8808517  35.2541466  22.0058746  43.4772835  70.5900497
  22.0194740  42.7668266  69.9487228  22.7485352  43.2946014  71.1656494
  83.8376694  53.4562607   6.5314932  83.5995560  54.3291893   6.8437943
  83.1857071  53.2560806   5.8598433  78.9541702  54.8034973  20.5004501
  78.3461304  55.5305367  20.3665524  78.5393906  54.2654610  21.1747684
  67.4757919  18.7824059  50.9827232  66.6558075  18.6184425  50.5169220
  67.2463150  18.6989346  51.9082527  75.0872955  64.0180664  12.1772804
  74.9615555  63.0711823  12.2392130  75.8853378  64.1869659  12.6781130
  61.1973991  34.0659866  31.5910740  61.2358208  33.6587868  32.4564896
  60.3073044  33.8931389  31.2843418  70.8533249  55.1180115  19.8512459
  71.8039551  55.1943169  19.9332371  70.5159073  55.4055672  20.6995907
  33.9349403  35.6756973  24.2995586  34.3896484  36.0457878  25.0561981
  34.6277237  35.2687912  23.7792549  63.5794678   3.3933060  60.4732018
  62.8704948   3.2159197  59.8550377  64.3772736   3.1734912  59.9921417
  15.4037762   2.5164492  11.2702198  16.2424374   2.1453342  11.5443621
  14.9767456   1.8105977  10.7847824  74.7236786  43.9138641   5.8816419
  75.1922913  44.6226463   5.4408903  73.9161072  44.3200569   6.1963854
  19.3807774   6.4810181   8.6717701  20.2987385   6.5032344   8.9421082
  19.3953209   6.7472510   7.7524548  57.0438461   7.5168257  12.0726509
  57.4009895   8.3185654  12.4546108  57.7085037   7.2340169  11.4445744
  47.1052361  52.0571709  52.6964569  46.1530876  52.0463371  52.7940750
  47.3367691  52.9858551  52.7092934  60.7402649   7.9809957  84.2457809
  60.6004791   8.9002047  84.4732590  60.8001175   7.9771023  83.2904663
  61.9276848  55.0769043  63.7050285  61.1666145  55.5745392  64.0039673
  62.2903671  55.6002312  62.9903069  71.0337753  42.9488297  59.9246445
  71.7098007  43.6045990  59.7537880  71.5091476  42.1188469  59.9617729
  73.0125580  57.7394333  16.8868084  73.0138245  58.6461105  16.5799522
  73.3464661  57.2350426  16.1449680  73.8273926  52.2135010   5.5400300
  73.4896698  52.9922333   5.9824624  74.6079483  52.5198784   5.0784092
  26.9996834  31.2899513  78.6615753  26.0790977  31.3100529  78.4001389
  27.1748962  30.3681126  78.8506470  81.7527008  61.5770264  68.4266891
  81.6932831  61.9606857  67.5517578  82.4973297  60.9777527  68.3753662
  23.4528770  37.5475998   1.5993888  23.6509495  36.8148499   2.1825511
  22.7253494  38.0019455   2.0242510   9.9750948   9.4629526  15.8477945
  10.6016712   9.0331421  16.4299431  10.5188580   9.9405279  15.2213163
  79.5592880  56.4677887  49.1924667  79.8534622  57.3644104  49.3529816
  80.2136612  55.9198265  49.6257782  79.2597275  59.4873657  45.6501579
  78.7997055  60.2991219  45.4364777  78.9464035  59.2576599  46.5249710
  75.4037781  49.9918289  40.9671211  76.3566055  49.9436913  40.8893738
  75.2032623  50.9238586  40.8814354   8.7698832  40.4071312  17.7733955
   8.0639696  41.0187607  17.9827499   9.2421494  40.2949753  18.5983906
  59.9101334  29.5668602  57.7790527  59.9867439  30.2502460  57.1132126
  58.9714966  29.3863335  57.8300858  50.5569687  21.4550495   5.3116679
  50.0063438  22.1382790   5.6940856  49.9490891  20.9080772   4.8141384
  63.6042671  15.8472404   8.5941334  64.0132904  16.7079964   8.5045118
  63.1457329  15.7124329   7.7647920  68.5472717   1.2124716  29.2823200
  68.2285690   2.1077638  29.1678104  68.9372253   0.9871846  28.4376831
  53.8871803  41.4027100   5.0317836  52.9355583  41.3042297   5.0626478
  54.2133751  40.5214806   4.8493910  39.6820755  65.7744064   7.4272480
  38.9237404  66.3575745   7.4599595  40.3827820  66.2685852   7.8527179
  45.1764336  13.3105164   2.3582599  45.2503853  12.9629622   1.4694576
  45.7538872  14.0738792   2.3657455  56.5447197   7.1490803  47.0000000
  55.8856010   7.8066416  47.2222748  57.0094948   6.9886870  47.8212738
  44.5490417   5.4239612  39.5637474  44.0618057   5.1113343  38.8014526
  44.3766937   4.7712469  40.2423439  42.7980728  26.9752274  82.8561630
  43.0170975  26.2647285  82.2532959  43.3749580  27.6943111  82.5985718
  55.7796021  30.2680283  45.3071938  55.3153954  30.4174194  44.4835281
  55.6385307  31.0699196  45.8104820  53.0072746  41.1442070  58.4961662
  52.2270164  40.7799835  58.9142189  53.5346222  41.4773178  59.2222366
  68.7172241  69.5303802  67.0157928  68.9450378  70.2898865  67.5519638
  68.0866699  69.0432281  67.5461960  10.7809772  43.4121246  82.9113541
  10.4908190  42.6126060  82.4722519  11.2129192  43.9195175  82.2241745
  51.3711319  59.4610748  64.7260208  52.2799606  59.5220985  64.4318466
  51.2434196  60.2370148  65.2717667  30.9554386   2.7360244  30.9883575
  30.9668617   1.7793806  30.9577999  30.0768375   2.9552758  31.2985554
   6.0448122  59.2038994  81.5825653   6.9550724  59.1822548  81.2872925
   5.8518744  60.1345673  81.6959915  85.2570724  53.5357399  69.6934738
  85.0717163  53.8730164  68.8170471  84.4079742  53.2381096  70.0200958
  76.7630920  26.0107517  46.7157516  77.4799881  26.0698948  46.0842476
  76.9617386  25.2289562  47.2310829  12.9642010  19.5720158  85.7994843
  13.2194395  20.4592400  86.0522995  12.8491812  19.6171799  84.8502960
  54.8543816  18.8417072  34.5863991  54.9276390  18.3136654  33.7913895
  54.6174660  18.2144794  35.2695465  50.6686401  65.2716522  17.9333439
  50.5617180  65.1654434  16.9880829  50.1917000  64.5335464  18.3127613
  58.4020004  71.1749268  28.3594341  59.0537529  71.6317520  28.8911877
  58.8490639  70.3830261  28.0606670  59.9103203  70.7089767  18.0973949
  59.0280037  70.8092346  17.7400513  60.3082581  70.0213547  17.5634842
  84.4914322  10.5800648  67.8119507  84.1869278   9.6745377  67.8713455
  85.3952637  10.5091677  67.5048676  73.5163269  14.5666656  33.5911713
  73.5781479  13.7805300  33.0485840  74.3856735  14.6573687  33.9813499
  61.1921730  54.9863815  73.4904709  60.9290314  55.4518242  72.6965256
  61.4795303  55.6763458  74.0884705  18.1788902  48.4681702  72.7449799
  19.0099258  48.7392159  72.3549271  18.2191772  48.7931709  73.6444168
  59.6310463  50.7559891   3.3696351  60.0641327  51.3052750   2.7162216
  60.2517700  50.0464592   3.5354619  19.1530857  66.5595779  30.4033279
  19.2118568  67.4612122  30.0873508  19.0349598  66.6445541  31.3494015
   3.7931602  57.8041153  64.4901352   4.6404290  58.1491432  64.7717743
   3.1644468  58.1811485  65.1055984   3.3294761  43.6898613  35.3902092
   3.3782434  43.4124603  34.4753838   4.1686440  44.1197548  35.5551949
  61.6440620  26.3204956  49.4291077  61.7373466  26.7953491  48.6032486
  62.5378036  26.0712852  49.6643715  15.3547516  54.6661301   6.4967122
  14.5485792  54.7045708   5.9820862  15.9628239  54.1660461   5.9522910
  17.8052540  16.6738167  33.3245087  18.4092445  16.0712051  32.8905869
  16.9622517  16.5151825  32.8997536  12.3199987  48.3399620  86.1206894
  13.2122707  48.1190681  86.3876953  12.1027498  47.6911621  85.4512939
  11.9330263   1.5677638  30.8282585  11.7836456   2.0173116  31.6600170
  11.7091026   0.6542801  31.0061264  12.7420540   4.6962914  57.1720352
  12.0309353   4.8378000  56.5471230  12.8864202   3.7501128  57.1603661
   9.7686014  31.8337002  35.6255379  10.7175236  31.9111977  35.5266876
   9.4272041  31.9204044  34.7355042  66.5569916  24.6711960  53.9779472
  67.4382629  24.3859615  54.2192726  66.6900635  25.5056763  53.5283165
  81.8076172   0.8146417  64.4731674  82.3381195   0.6234413  63.6997108
  81.1970978   1.4924761  64.1832733  68.3117371  64.6756744  12.5494814
  67.4058228  64.4668503  12.7774115  68.7707062  63.8371849  12.5996151
  77.8023911  10.0711384  13.2959433  76.9878845   9.5727978  13.3627863
  78.3209915   9.7843895  14.0476475  72.5009384  47.2154846  34.1948624
  72.1149445  47.8722420  34.7744370  72.0463867  47.3351059  33.3610115
  33.2396278  61.1659737  22.4554100  33.7513618  61.2344818  21.6493912
  33.0956650  60.2264519  22.5685844   7.1689868  57.1246948  41.1136398
   6.7466602  57.6971779  40.4732170   7.3348093  56.3120308  40.6358185
  52.4984207  59.3479156  71.5958557  53.2523575  59.9171982  71.7499084
  52.8672066  58.4651489  71.5649948  37.1148453   6.7388334  69.4671021
  36.1580849   6.7544436  69.4915237  37.3792725   7.5330071  69.9314270
  62.5205612  33.3917999  67.7564697  61.9828873  34.1761971  67.8653488
  63.3637466  33.7207413  67.4449081  18.1154327  38.3708763  84.4404449
  17.2486629  38.7418098  84.6058197  18.1273499  37.5564842  84.9432983
  22.1885166  69.6030960  13.5086527  21.5909328  70.3060532  13.7635574
  22.2960930  69.7110748  12.5636663  24.7903557  47.6795120  36.4477043
  25.0437946  47.8098640  37.3614922  23.8946362  48.0132942  36.3976288
  66.0671768  27.1431007  40.1011124  66.2981567  27.0087757  39.1819611
  66.6829147  27.8086224  40.4080086  37.6516533  11.8965635  82.8154602
  38.5658302  11.7336884  82.5831146  37.1835480  11.1222239  82.5031967
   7.1898489  36.9006348  39.1380653   7.6967487  36.4029121  39.7795944
   7.8102098  37.0835342  38.4324226  66.1202240  49.3428192  58.1899147
  65.4625092  49.6618919  58.8078423  66.8812943  49.9037857  58.3393135
  74.3445892  26.1208401  11.8984404  73.5388641  26.3545265  11.4375362
  74.7206573  26.9600735  12.1639338  57.8068848   3.6561775  59.0671425
  57.8273544   4.5259247  58.6679497  56.8868599   3.3952591  59.0257950
  11.5279770  63.0544586  52.0524826  12.0444994  62.8294373  52.8263054
  10.6227598  63.0648346  52.3634567  39.6870804  62.9732170  62.0156937
  39.0411720  63.5370140  62.4413338  39.3172646  62.7958450  61.1508217
  23.9126625  38.7426071  29.8507195  24.5067272  39.4162712  30.1816177
  23.0919647  38.8960762  30.3188400  73.2436905   4.2987823  83.0195847
  73.5143738   3.7324462  83.7422409  73.8905792   5.0042768  83.0129242
  52.5152588  70.6134186  25.4397507  52.2514381  71.0716171  24.6418266
  52.8247719  71.3066025  26.0227890  38.5241432  57.5077095  22.7828312
  38.5901413  57.1224289  23.6565781  37.8614769  58.1925926  22.8724976
  28.0007439  54.8062096  63.6459961  27.7377758  53.9317207  63.9329720
  28.4077396  55.1993370  64.4180298  49.1031990  69.5104828   8.7020521
  49.2611389  70.2276306   8.0880604  49.6372490  69.7274323   9.4662218
  50.6854744  42.9279556  76.7751770  50.0715637  43.2272987  76.1045532
  50.3216362  42.0963287  77.0788956  63.4012184  54.0136528  17.4663391
  64.0913315  54.5962181  17.1491814  62.9544830  54.5190582  18.1454754
  74.3743210  53.0612068  15.3186426  75.2683640  53.2054977  15.6286592
  74.1544876  53.8609734  14.8408613  48.7563553  10.3349094  43.6184731
  48.2236786   9.5535927  43.4700470  48.1783600  11.0646935  43.3958359
  67.4597931  11.7339125  85.3319092  67.8992844  11.9967709  86.1406021
  66.8540878  12.4510136  85.1445007  56.1888351   9.4904747  64.0508423
  57.0894737   9.6694670  64.3211060  55.9352989  10.2584572  63.5388298
  48.5251732  67.5123520  14.3850927  47.9350433  67.9720612  14.9822912
  48.1497726  67.6595078  13.5169621  19.5363388  12.4300022  79.8180542
  18.8134480  12.7782154  79.2961273  20.1963997  12.1754427  79.1732635
  70.9714890  61.8096008  85.8107376  70.3668060  61.1312218  85.5100784
  70.5636368  62.1601601  86.6025696   1.4762185  21.0848198  79.3299026
   2.3932381  21.2004910  79.5787506   1.2644943  21.8694191  78.8241272
  69.1316376   2.4908879  51.6463509  68.6135254   3.2868302  51.7657738
  69.2580872   2.4271970  50.6996803  35.7602310  66.9640121  80.3572617
  35.8926849  67.8607407  80.6647873  35.5789948  66.4625168  81.1521683
  52.7543716  17.0255718  79.2802353  51.8787270  16.7828140  79.5811539
  53.0257874  17.7261429  79.8733368  79.2306442  15.4755764  84.0300827
  78.3448105  15.8160067  84.1550980  79.7456665  16.2385941  83.7678146
  51.1735802  58.0846100  48.1518784  50.5746346  57.3724937  47.9274025
  51.4440765  57.8957977  49.0504379  51.8788834  57.8384781   5.4839206
  51.5632935  56.9566269   5.2864923  51.7111015  58.3374748   4.6844940
  56.4706421  18.9742622  12.2834787  56.6309052  18.9826908  13.2271299
  56.7429314  19.8425426  11.9865284  49.1931381  60.8099747  68.1517792
  48.3301506  60.4125938  68.0352859  49.2589378  60.9679375  69.0935593
  53.8769989  64.0856705  55.7696991  54.5351562  64.7725754  55.6637230
  54.0345001  63.7363281  56.6468468  41.4029350  54.9420929  88.6802139
  42.1593285  54.3607445  88.7585526  41.0958252  55.0580368  89.5793686
  65.8155975  58.4810448  45.3936539  65.1745300  57.9397278  44.9329643
  65.2922897  59.0175743  45.9890709   9.8215361   1.3476658  19.7034035
  10.1119728   1.4092863  20.6133919   8.8849382   1.1593920  19.7631435
  23.4448032  71.2541275  30.0862732  22.8361874  70.9027786  30.7361717
  24.2808189  71.3136902  30.5486164  10.0694437  35.3556328  25.8645515
  10.1413670  36.2762489  25.6125145  10.7284088  34.9094925  25.3326149
  58.5885048  59.8286781  34.1676254  59.3774605  60.0105629  33.6570435
  58.1615486  60.6803513  34.2603035  63.3539391  12.5557194  80.3558884
  62.4254036  12.3547640  80.4728088  63.4938164  13.3501158  80.8712540
  70.2870102   3.1652081  68.3088531  70.6821136   2.3111873  68.4842834
  69.5560532   2.9747224  67.7209320   3.8210363   9.5435991  87.0004501
   4.6790028   9.2387714  87.2957611   3.3857982   9.8437090  87.7984085
  82.8841629  56.6779099  40.4068565  83.3714676  57.5017815  40.4087334
  81.9645615  56.9435654  40.4069862  11.9690504  57.4055023  70.1586380
  12.5836563  56.6969414  70.3495026  11.4404440  57.4844513  70.9527283
  48.4371109   3.4260256  66.5358124  47.5734825   3.0195479  66.6076126
  48.9436760   3.0399764  67.2503662  84.2300110  27.2142963  73.4573059
  84.6875000  27.8790989  72.9425583  83.7758102  26.6785030  72.8070297
  76.9779510  42.3064117   7.2250738  77.8088379  42.7621498   7.0903130
  76.3244171  42.8740654   6.8165522  79.5081863  14.9869413  47.6441345
  79.9648819  14.8542538  48.4748306  80.1264572  14.6828718  46.9796715
  59.1760521  16.9870205  72.9095764  59.1435394  17.2356110  71.9857941
  59.9313164  16.4024906  72.9738770   7.6625853  43.8310776  16.2960529
   6.8856893  44.3426857  16.5217037   7.6497445  43.7851219  15.3400421
  82.0057373  60.7175980  72.2670593  81.7974625  61.5964584  71.9501114
  82.4922714  60.8645630  73.0781860  49.0704803  28.3092136  75.2251892
  48.8826714  29.2469425  75.1848984  49.7005081  28.2216434  75.9404755
  85.5602875  49.9307899  25.0869408  85.0065460  49.5510025  24.4047661
  86.1986084  49.2458916  25.2861805  49.4128647  29.3958797  10.0901184
  49.8555336  29.7259045  10.8720121  50.0198746  29.5833206   9.3741312
  71.5335083  40.6135712  66.9580536  71.3853760  41.3439369  66.3573456
  71.9783936  41.0072250  67.7086182  18.5380459  71.6866074  75.5053253
  19.4092045  71.5149689  75.1477585  18.0585938  70.8691406  75.3707886
  59.7034760  13.4352627  21.5372734  59.1311340  13.8192816  22.2014942
  59.2508125  12.6376257  21.2632236  11.1628866  29.2388210  15.7701283
  10.4588795  29.7206192  16.2042675  10.9659557  28.3184071  15.9441566
  58.6127167  20.6819973  72.9110870  57.7098236  20.4756279  72.6693649
  59.0589447  19.8351860  72.9157333  33.5440750  22.6768398   2.1209865
  33.7694321  23.5661774   1.8479949  33.3347206  22.2217293   1.3053408
   8.7396631  18.0114326  14.4233637   9.6824026  18.1632805  14.3569059
   8.3432932  18.8068085  14.0676956  19.0653477  50.0953064   5.8802509
  19.3959484  49.5920372   6.6243310  18.1653938  49.7900848   5.7655544
  38.1668854  58.2796059  39.5615616  38.6982918  57.5407753  39.8581543
  37.4680634  58.3484116  40.2120590   5.9675865  35.3056374  67.9766235
   5.9835525  35.7200966  67.1139526   6.1160917  36.0247803  68.5906372
  43.1441383  25.9498234   2.8452096  43.1245918  25.8062134   1.8990457
  43.7364502  26.6925430   2.9625478   1.7295901  31.4612236   5.5988669
   1.5835357  32.3999443   5.4817967   2.6781862  31.3555660   5.5265226
  81.9849625  63.3889999   0.5616992  81.9615631  64.3348999   0.7064855
  82.8491135  63.2258606   0.1837267  71.4349518  10.9572878  19.6586933
  70.6364594  11.3995075  19.9469318  71.3050613  10.8154955  18.7210083
  76.7781525  40.5829430  59.2053757  76.5056992  40.2343636  60.0541954
  76.5984650  39.8748817  58.5868340   8.4918528  51.2857704  12.7982340
   8.6367617  52.2319374  12.7977571   7.5552506  51.1869965  12.9692688
  18.8874817   5.8941588  77.5593491  18.1041756   5.4445896  77.2422485
  18.7674770   5.9443150  78.5076675  85.9934235   5.3581948  34.0839348
  85.5531464   4.5121827  34.1655006  86.9081879   5.1363664  33.9100723
  26.4002094  46.7673569  11.4411783  26.0123463  46.0990028  10.8762903
  27.2441311  46.9642296  11.0346470  42.3426857  22.0894794  30.2625580
  41.9831085  22.5720081  29.5181770  43.2904587  22.1967278  30.1822414
  84.5281601  33.8708458  51.1020889  84.4512329  33.3492470  50.3031845
  85.3756332  34.3085213  51.0216980   4.3511639  36.4834976   3.9716651
   3.4372995  36.2938347   4.1840596   4.8544807  35.8837280   4.5222845
  54.5865097  45.8922768  78.4870453  54.1030960  45.0675049  78.5349655
  54.0795860  46.4321289  77.8805695  67.7526016  70.7294617  59.1528893
  66.8756409  70.5548401  59.4944763  68.2407913  71.0631104  59.9056091
  71.9365692  48.5847244  87.8872604  72.7282486  48.9609642  87.5026627
  72.2214890  47.7455139  88.2488861  74.7110977  63.0881348  66.5179520
  74.7584229  62.1373672  66.6181259  74.6039124  63.2247467  65.5766296
  84.3943405   1.0065155  17.2361221  84.3522949   0.3122886  17.8937798
  85.1041183   0.7401681  16.6517410  11.4772177  60.1412277   6.9794798
  11.3608513  60.4183922   6.0707054  12.1489315  60.7291183   7.3250427
  60.5979767  48.1898651  35.0225029  60.9868088  47.6900864  34.3046837
  61.2411156  48.8721046  35.2152596  73.5397873  29.5558109  78.7077255
  72.8490372  30.2166824  78.7560959  73.6993103  29.3089600  79.6186829
  52.1892319  24.5669823  47.0414505  52.6646576  25.3594513  47.2908478
  52.8734856  23.9154015  46.8882332  21.8081112  35.2143555  74.5872116
  21.2906322  34.4189720  74.7129593  22.7033100  34.9001160  74.4603119
  76.9406357   2.5292535  49.0556030  77.8953171   2.5790238  49.0071983
  76.6753006   2.1836069  48.2033348  12.2482948  45.6138725  80.4501801
  12.7625523  45.1806488  81.1314163  12.7472372  45.4706879  79.6459503
  63.5770302  33.4857216  76.0548019  64.4370422  33.8992882  76.1294556
  62.9558868  34.2109146  76.1219177   2.5170407  70.2106247   8.4490337
   1.6627592  70.3820038   8.0527201   2.3722599  70.3235931   9.3884525
  10.0517912  23.8735523  21.5461102  10.6746225  23.1524067  21.6370125
   9.1992664  23.4453449  21.4681950  78.7524719  25.5654449  44.9519005
  78.8381500  25.3647480  44.0199089  79.2076874  26.4005146  45.0599136
  46.0065727  46.0186462  22.8774395  46.5048332  46.7699852  23.1990852
  45.1942596  46.0355644  23.3834934  48.1045113  66.4039230  48.7236443
  47.3915176  66.5992966  49.3316727  48.8881035  66.7426834  49.1566048
  64.1190948  40.8817062  75.6444473  64.6070862  40.4841652  74.9233017
  63.1997223  40.7518158  75.4118347  76.4120026  69.0996094  14.8437052
  76.5940018  68.1720886  14.9947119  75.8136749  69.1077499  14.0965977
  26.4156265  33.3544922  14.6501179  26.3909588  32.5166740  14.1878548
  26.7987404  33.1466484  15.5023251  76.1499252  45.4247017  37.6337585
  75.8698959  45.7804718  36.7904053  76.0284348  46.1465988  38.2504730
  46.6333885  19.8955097  77.3549118  47.5761452  20.0244293  77.2508545
  46.5507927  19.3557396  78.1410751  62.9407768  69.0565262  52.3725090
  62.1342888  69.4326630  52.7251129  62.6932068  68.1736069  52.0979195
  54.5264435  35.4679222  44.5068245  53.7491188  35.9427223  44.2126045
  54.5244370  34.6618767  43.9905739  29.9095745  59.5882111  23.8322735
  29.1554623  60.1521492  24.0040913  29.5283051  58.7640800  23.5294971
  82.1232529  69.1678238  56.8671188  82.0197296  68.6130676  56.0939713
  82.4493256  68.5757141  57.5448456  58.4869576  59.7704735  86.1690521
  57.9187851  59.7386971  86.9387283  57.8834572  59.8199081  85.4277267
  61.4069748  24.7895412  46.2476387  62.1810493  24.7389145  45.6868553
  61.3567581  23.9294834  46.6647835  50.0415611   9.5210896   8.2134571
  50.2716942  10.0823841   7.4730382  49.4326744  10.0467167   8.7323093
  31.3090096  23.9150658  13.9442425  31.3040295  23.0205669  13.6035376
  31.7890511  24.4189949  13.2870932  36.2184982  34.5800781  12.1588106
  36.9438553  34.8066826  11.5767946  35.4541130  34.9988670  11.7631350
  38.3374977   5.8431630  32.9424629  37.6967964   5.7857981  33.6512947
  38.3013344   4.9864755  32.5170097  35.4816704   6.5109901  76.5147629
  34.6117096   6.2177811  76.2437897  35.9705811   5.7021575  76.6663742
  60.3431740  62.8947830  26.8648739  59.5458183  63.3736992  26.6388264
  60.5121269  63.1282043  27.7776718  48.8305740  68.4318848  66.1275330
  48.8378716  67.6022034  65.6502304  49.6395798  68.8686142  65.8610687
  61.7927856  50.4735374  31.2355213  61.8043709  50.0382233  30.3831139
  60.8879051  50.3881950  31.5357590  36.8363495  19.6494617  11.5566101
  36.0216331  20.1460590  11.4800854  37.1092606  19.7755756  12.4653711
  29.5325642  31.3459358  13.3210449  29.8260307  31.0044613  14.1657362
  30.1797924  32.0138702  13.0947876  38.4942436  64.1253891  18.2152691
  39.0733643  63.7455482  18.8760090  38.2210464  63.3806305  17.6796074
  26.2600517  59.5933418  23.0106697  25.7509079  59.6122704  22.2003345
  26.3829403  58.6620598  23.1946259  83.5110092   9.2559900  40.5224838
  83.4136276   9.4513550  41.4544601  82.7721481   9.6999035  40.1062355
  52.2178955  15.6451464   8.4214449  52.3251839  14.6951256   8.3747330
  53.0062866  15.9535379   8.8681707  41.1626015  52.0142517  45.4915352
  41.9205742  51.5139275  45.7938309  41.5274239  52.6587982  44.8851624
  82.8858871   7.7868032  35.9902344  82.4975739   8.2863111  35.2719498
  83.2652206   8.4507217  36.5660362  41.7724648  21.1392784  15.9840746
  41.1130257  20.9047031  16.6370277  42.5538063  21.3467598  16.4966049
  34.1127968  47.1590462  22.7494125  34.0367012  47.4935455  23.6430283
  34.7760315  46.4712524  22.8067932  14.3263903   7.9739327  29.1591377
  15.0638514   8.3152647  29.6649780  14.2601089   8.5612631  28.4062214
  76.5927658  56.9068947   0.7853310  77.3912964  56.9969597   1.3053867
  76.0156937  57.5976944   1.1109360  62.9757614  22.0764465  74.4093246
  62.2451820  21.7390003  74.9276047  63.5769081  22.4469013  75.0555496
  22.4133053  25.5803127  20.8578682  22.7221756  25.9623737  21.6793671
  22.5254936  26.2779522  20.2121563  21.0041447  64.8948364  24.1567745
  21.7912025  64.3502045  24.1688538  20.5294800  64.6124954  23.3749752
  40.7681160  64.6963501  29.0349045  40.7546120  65.1854630  28.2122173
  41.4716682  65.1008148  29.5424995  75.5411453  27.9535732  23.7812366
  74.7164993  27.8195038  24.2483730  75.4716949  27.3944836  23.0073967
   4.7563744  59.4404945  53.8003464   4.3257947  60.1847000  54.2210541
   4.2435713  58.6803932  54.0751343  43.9244156  66.2309570  12.8311691
  43.2413368  65.7836838  13.3307486  43.9731293  65.7477951  12.0062952
  64.5509033  56.9499969  23.6600800  64.0970917  56.3439827  24.2457695
  63.9140015  57.6450653  23.4943409  62.3449516  21.3286018  65.1260376
  63.0554771  21.8635998  64.7722549  61.9291649  20.9425030  64.3551407
  66.0469818  31.5035229  73.8116760  66.3691711  31.7913074  72.9575119
  65.0947723  31.4871769  73.7154083   3.0116074  56.5315285  30.5435562
   3.1168244  57.4214401  30.2070694   2.4458830  56.0989571  29.9039707
   4.3728809  53.0944176  81.6239471   3.9704716  53.7627068  81.0692444
   5.3076768  53.2995377  81.6062241  50.7179070  44.8593483  14.5902872
  50.8888130  45.0132065  13.6611204  51.3807869  44.2208443  14.8532228
  65.9800949  63.6095428  78.2221451  65.9736938  63.2936325  79.1256866
  66.6990738  64.2408295  78.1942215  28.1133423  35.4599228   6.7829499
  27.9011288  35.0226097   5.9583559  27.3762798  35.2562256   7.3586917
  78.0905914   5.0830274  32.8656502  78.6366501   5.7181411  33.3289833
  78.6895905   4.6515398  32.2563515  45.5297318  42.7487259  30.0151043
  44.7737465  42.9043770  30.5812206  45.2080994  42.1433029  29.3470860
  73.7106400   5.6298447  79.7995148  74.6228333   5.4583402  80.0334549
  73.3820038   6.1841426  80.5073166   5.3573251  32.7088737  60.5522385
   4.6682291  33.2805138  60.2136993   6.1510439  32.9980392  60.1021004
  75.5617294   7.8271298  68.5999985  75.1700439   8.4417601  67.9794769
  76.0062408   8.3833036  69.2397766  69.9261322  52.4701767  42.7434845
  69.4482117  52.6537209  43.5522728  70.4469757  51.6925888  42.9442596
  64.4820404  63.4094963  83.9973679  63.6916771  63.9358292  84.1179123
  65.0732498  63.9753952  83.5009155  33.6535492  38.5016708  68.9789276
  34.5290680  38.1903687  68.7491760  33.4200478  38.0033798  69.7621384
  22.0483971  51.5189629   1.5542349  21.6939659  52.3259201   1.1808342
  21.5864525  51.4170113   2.3863678  67.2663956   4.2953539  80.6274109
  66.9833755   3.7321792  81.3478088  67.1292877   5.1856074  80.9512711
  31.0598392  15.4654722  16.9391747  30.2158794  15.3130388  16.5140533
  31.3064156  14.6117840  17.2950516   1.4634495  29.4168568  26.0084953
   1.6537746  29.7467613  25.1303310   2.1347537  28.7528553  26.1656075
  55.3977890   4.3263712  72.4082870  56.0367889   4.4067378  71.7001572
  55.8475304   4.6759415  73.1775513   3.1858244  32.6831589  68.6901932
   2.6560261  32.0964050  68.1505051   4.0458937  32.2645378  68.7258148
  41.9806709  53.9667892  21.7632885  42.1296921  53.0220871  21.7237816
  41.7966919  54.1418533  22.6861858  70.8252335  21.5789738  35.8453827
  70.8252869  21.8921432  36.7499008  71.4186172  20.8279171  35.8519249
  71.0746002  46.2677574  54.2130165  70.6757736  45.5762367  54.7411880
  70.3323441  46.7652779  53.8698540  81.9375076  44.7331543  32.0228958
  81.2492447  44.0683403  31.9996052  82.6757965  44.2987099  32.4500084
  53.2340393  48.1217880  80.4125290  54.0509224  47.8627167  79.9861298
  53.4778557  48.2723198  81.3258362  12.1931753  29.4080734  75.7262268
  12.4399977  28.7027454  75.1280441  11.2565622  29.2787876  75.8754730
  77.6542206  50.1993561   3.0205612  76.7467575  49.9483643   3.1930065
  78.1377716  49.3733711   3.0334895   0.8130648  51.5131912  33.3069305
   0.7900625  51.8175583  34.2141609   0.2123073  52.0965767  32.8432732
  43.9324226  57.5435829   5.0474319  44.7901726  57.1371002   4.9238763
  43.9988937  58.3850632   4.5960689  55.2349243  38.5593681  32.9630775
  54.8907204  38.9568558  32.1632309  55.2938919  39.2847633  33.5848198
  86.2920074  56.6627541  54.3143654  85.9657593  57.2881775  53.6673431
  86.7448730  57.2026215  54.9622002  19.3387814  62.4627533  10.5692749
  18.4883976  62.1116180  10.3051090  19.9763145  61.8622169  10.1830835
  13.7049532  47.8199387  56.3236809  13.8123617  47.5949631  57.2478485
  13.4531965  46.9970322  55.9045448  66.4169006  34.4861984  73.3320007
  67.0963669  34.9307480  72.8251114  66.5970459  34.7303047  74.2398529
  45.7602882   1.9868350  40.4025803  45.3761826   1.4288535  41.0788574
  45.2800522   1.7623334  39.6055832  31.4871387  49.3032570  15.6576567
  30.5833645  49.3841438  15.9624186  31.9502640  48.8925819  16.3877888
  87.0662155  23.0343227  40.0021896  86.1204376  23.1347485  40.1100845
  87.1716385  22.7019672  39.1107521  23.1907139  55.7165565  18.2825413
  23.4117374  55.2584381  17.4716721  23.8047466  55.3686600  18.9291973
   5.8122845  20.5616779  28.7298298   6.5892639  21.0107098  28.3968067
   5.6172967  21.0020199  29.5570602  65.7365723  70.6101303  19.3360844
  64.9864273  70.9412079  19.8299408  66.4303436  70.5159454  19.9888077
  27.3262730  42.6228142   2.4799919  26.6628571  42.5553322   3.1666927
  27.9359264  41.9084206   2.6649101  72.8091125  59.0159988  88.9018784
  73.5964127  59.4098969  89.2776718  72.1398163  59.6956444  88.9816132
  26.3113270  57.9652710  82.8792267  26.2512646  58.3428001  82.0016785
  26.7347202  57.1171036  82.7466125  48.3152504  43.9969444  31.7004738
  48.9888039  44.4347763  32.2209167  48.7270966  43.8523483  30.8485909
   0.5788557  56.9306259  15.7581949   0.5283660  57.6953697  15.1847420
   0.2291356  57.2355537  16.5954208  77.8545074  21.8554955  17.2307854
  78.5911789  21.3454418  17.5675240  77.1502304  21.2163429  17.1225643
  45.9132309  61.3299904  22.1668015  45.3947983  60.5567284  22.3893375
  45.8396645  61.4019241  21.2151470  51.6266098  43.6627197  45.7515106
  50.9435501  43.3029785  46.3174171  51.4715996  44.6072502  45.7597160
  32.7410622  30.9197578   1.0363939  33.3248711  31.3139400   0.3883040
  32.7728806  29.9817619   0.8482959  26.4547844  34.7260933  34.4098854
  26.4276638  35.3778191  35.1104164  26.8558311  35.1846275  33.6715508
  70.7209702  52.0145340  69.7203674  70.7633438  52.5767326  70.4939117
  69.9724884  51.4402809  69.8823395  78.6975632  56.5850716   9.0900898
  78.9696426  56.2746925   8.2264519  78.8427048  55.8374634   9.6699553
  52.3402290  18.3208961  43.6255722  51.7181740  19.0374870  43.7511902
  53.1318512  18.6084137  44.0804329  28.4597301  42.4283409  73.0709839
  28.0047054  41.9574089  73.7691269  27.7635193  42.8781891  72.5922775
  62.8536453  30.9165440   7.5261998  63.1882629  30.4856014   8.3126793
  63.4594803  30.6541157   6.8331423  22.1300316  60.6609154  37.8327293
  21.7101936  59.8672409  38.1644669  22.0503864  61.2911797  38.5487289
  26.5176334  16.0548954  78.8103180  25.8940430  16.3666420  78.1544342
  26.6796055  15.1420965  78.5720062  28.5443382  51.4699059  69.7635956
  28.8951817  51.1391602  68.9367065  29.2792721  51.4154778  70.3744507
  54.2345848  28.7679386   3.4191806  54.3282356  28.0617180   2.7798736
  54.3959503  28.3487778   4.2644596  40.4127045   0.6589764  63.6275902
  40.4501610   0.2873423  64.5089035  39.8347778   1.4173559  63.7118149
   2.4785576  10.1739779   2.9255977   2.1264737   9.2839384   2.9354897
   3.2003503  10.1390581   2.2978816  83.1327591  15.7296038  33.7341499
  83.8347473  15.2109213  34.1271019  83.5871124  16.3972015  33.2202377
  86.0217209  28.3700180  46.2473373  86.1276932  28.8593273  47.0631676
  86.7777023  27.7835236  46.2198868  68.5782547  63.5833855  84.5389328
  69.1497955  64.2310333  84.9514084  67.8664856  63.4578362  85.1665039
  36.4964828  21.0361328   0.9724033  37.0293655  20.2674465   1.1758400
  36.0188560  21.2174988   1.7818546   4.0677671  60.4440880  79.2681198
   4.2711291  60.9524994  80.0532303   3.5953858  61.0551796  78.7027435
  75.3402557   9.2156172  38.6012535  75.7779465   9.1524410  37.7523346
  74.4150162   9.0681696  38.4052467  39.4021797  69.4773941   8.7053471
  40.1881065  68.9593277   8.8790102  39.5733185  69.8969040   7.8621669
   4.3981047   1.0615060  58.3087997   3.7030933   1.3566093  57.7204933
   5.2088251   1.2590523  57.8398209  75.2297897  61.1152534  80.2944107
  74.7838898  61.2386093  79.4564438  74.8624573  61.7919502  80.8630829
  70.5876999  22.3973770  56.4555817  70.9346542  22.4960613  57.3422127
  71.1658020  21.7562084  56.0421448  83.3711853  51.9465828  81.5749207
  82.4362869  52.1508446  81.5529251  83.5048065  51.5273209  82.4249802
  36.3447952   5.1386938  44.3826752  36.3643837   4.3181725  43.8901405
  36.5330925   4.8809123  45.2850761  79.1553116  20.4002247   7.1128731
  78.6240158  21.1543903   6.8575482  78.6236115  19.6408825   6.8742871
  51.6519890   1.7332189  14.5462074  51.8000832   0.8959090  14.9857674
  51.7904968   1.5443038  13.6181135  16.5467682  50.7782669  62.7259407
  16.5499840  49.8868523  62.3772278  15.6691446  51.1078949  62.5326691
  74.9867172  23.7823582  75.4285660  74.8147354  23.0750961  76.0502014
  75.4703598  24.4345055  75.9355469  33.7192726   8.2189341   3.2184324
  34.6316719   8.2690039   3.5034838  33.2574692   7.8291821   3.9607675
   3.9246058  62.3146744  49.9036789   4.2356076  61.4208565  49.7601509
   4.4162498  62.8431854  49.2750320  70.4264297  70.6493454  20.1849403
  70.4490585  71.6002426  20.2922630  69.7287521  70.3585663  20.7722511
  17.5637951   7.0825024  50.9011459  17.4922752   7.9992332  51.1670799
  18.2826614   6.7352977  51.4292641  37.9320641  54.8763275  75.9831543
  38.6464615  54.4497795  76.4563599  38.0714684  54.6322060  75.0681686
  80.1267014  58.0491638  74.5046387  80.1206589  57.2441635  75.0224915
  79.9182434  57.7633591  73.6152115   0.6242247  41.5605392  51.2543335
   0.5393829  42.3585434  51.7760849   0.5683090  41.8604965  50.3470650
  78.2748795  61.4250565   2.6898444  78.1097336  61.5806923   3.6197562
  77.4050369  61.4153709   2.2904475  15.1999378  64.9578171  64.2804642
  16.1055298  64.7205505  64.4800720  14.9525967  65.5660172  64.9769897
  71.9929810  47.6001358  69.4495239  71.1917038  48.1236000  69.4625015
  72.4031143  47.7689400  70.2977753  82.2892532  48.4279137  16.3329277
  83.1809235  48.5743370  16.6487064  82.2135010  48.9885826  15.5608244
   3.8258896  42.0534439  26.2644310   3.0732067  41.6009865  26.6451969
   3.6511610  42.0588303  25.3233299  70.4941559  40.8883438  80.9947052
  70.4431534  39.9494476  80.8155212  71.3652191  41.1432495  80.6905746
  76.9477539  59.1873360  42.3081589  76.8674774  59.8376274  43.0059471
  76.0887833  58.7664223  42.2730446  51.7350464  25.7654877  59.8446579
  51.7378883  24.8179455  59.7090530  50.9891319  26.0784416  59.3328896
  25.2775364  40.5295792  47.8046570  25.4992561  40.3664055  46.8878975
  24.3698139  40.2372513  47.8872299  48.4900780  19.7624741  82.9519501
  48.7390099  18.9882278  83.4567337  49.1522636  19.8225555  82.2633743
  37.6406708  54.0030975   0.3110206  37.5292511  53.7984886  -0.6173933
  38.2036018  54.7772217   0.3197947  10.6053553  35.6005669  76.6426849
  10.0507479  36.3267326  76.9278641  10.2249889  35.3214264  75.8098373
  31.5013466  26.1872063  81.6505966  32.0000839  27.0031090  81.6082230
  31.5350571  25.9335175  82.5729523  74.2004776  16.3941746  55.2958183
  74.3116074  16.2107983  56.2286911  74.8446579  17.0766640  55.1074753
  85.8670120   7.3941598  19.8332291  86.5044632   6.7067184  19.6400757
  85.0193253   6.9507565  19.8006897  77.4238586  24.2472420  63.0597954
  77.6353302  23.5895958  63.7223740  76.4911194  24.4220333  63.1849670
  32.2036781   7.4233856  23.0037270  31.9803944   8.3471766  22.8897705
  33.1572647   7.4159040  23.0864754   8.9740429   4.0856695  25.2279568
   8.8160324   3.2715647  24.7499428   9.6457739   3.8592262  25.8711777
  47.6378479  57.4654198  11.2656107  48.0052948  56.6369324  11.5735483
  46.7056236  57.2841759  11.1458635  59.2288742  53.9750671   7.5317025
  59.4985809  53.0586586   7.5924201  59.8543701  54.4458237   8.0824947
  73.5365372  21.9984207  85.7224045  73.8271942  21.5383911  84.9349213
  74.3351288  22.3832664  86.0834732  80.4881821  57.2334442  87.8130798
  79.9326477  56.5657158  88.2152710  81.0965118  57.4884720  88.5067139
  26.9325142  49.9731102   1.1261016  26.1464520  50.1124725   1.6542263
  27.6491413  49.9655571   1.7606237  64.5424576  31.4347000  77.6954117
  64.4968262  32.1538582  77.0653687  65.2912598  30.9120274  77.4084702
  45.7774887  68.3889771  46.8590469  45.8602715  68.8869629  47.6723099
  46.3683128  67.6445312  46.9728508  74.4316864  56.5721436  72.1739960
  74.4833603  55.9052010  72.8586502  75.3300247  56.6578102  71.8547974
  55.8974419  35.5283165  48.6223869  56.0390739  34.5822830  48.5878601
  55.8079338  35.7906914  47.7062111  57.1077652  67.1957016  79.6849518
  56.5803604  67.5992737  80.3743057  56.5550690  66.4944000  79.3400879
  12.4581299  12.7064857  26.9969444  12.7988214  12.1896286  26.2668610
  11.8418655  13.3164845  26.5915413   8.9409657  52.8415146  64.2468262
   8.2830296  53.5367088  64.2541809   9.5317459  53.0784111  63.5319214
  77.8550262  69.2263184  49.0734863  77.5416183  69.7466431  49.8132591
  77.9406128  69.8555527  48.3572617  64.1119461  64.7555847  87.0648804
  63.5885277  64.2616348  86.4337845  63.5200882  65.4354782  87.3868866
  48.4692039  65.5509415   2.3488748  47.6307182  65.4399414   2.7970459
  49.0915337  65.7451401   3.0497463  14.5557899  66.6224747  12.1051712
  14.4681187  65.8234329  11.5854797  14.4975204  67.3319702  11.4652843
  64.7581787  53.7392159  43.1796494  65.2681198  54.1899490  42.5065689
  65.2157211  52.9087334  43.3107643  39.1890831  23.7352066   9.6775618
  39.1054535  22.8623829   9.2936144  40.1267815  23.8360271   9.8412361
   0.7261874  32.8678551  57.8194656   1.3728201  33.5548439  57.6577644
   0.1200478  32.9309311  57.0813255  23.1364079  33.4797935  58.9488106
  22.2199192  33.4302521  58.6771011  23.5934849  32.8788795  58.3604088
  40.2664070   9.6722250  73.4958191  39.3438568   9.9233532  73.5412369
  40.5229950   9.8650236  72.5940247  78.6121674  46.5024185  12.2143593
  77.6930847  46.6152802  12.4568262  79.0095978  47.3578644  12.3771229
  53.6362686  58.0117188   1.9296861  53.8253822  57.3827324   2.6259911
  53.2062874  57.4936790   1.2492570  54.9551926  23.5914574  89.2396393
  55.6927223  24.1122246  88.9216995  54.1810341  24.0395966  88.8989258
   8.2748575  51.5341759  79.3041840   8.8274164  52.2862167  79.5171280
   7.4970946  51.9159851  78.8973236  34.7659683  55.8368645  82.6345444
  34.0547638  55.6039619  82.0377350  34.3674202  55.8093033  83.5043869
  11.7501659   5.1385112  59.7127571  11.8601522   5.9540071  60.2017365
  12.2657013   5.2654166  58.9162941  50.7353020  46.3609619  45.9943886
  50.8419342  47.0710411  46.6273575  51.3804741  46.5488548  45.3127136
  40.3180885  62.1187897  30.2746449  39.5599709  62.3565254  30.8084736
  40.6004143  62.9433632  29.8789120  22.6697292  65.1368561  12.4214945
  22.2102776  65.5484238  11.6895447  22.9209862  64.2740479  12.0918531
  70.0958862  58.2953987  77.9862595  70.7454147  57.9599075  77.3683701
  70.6026993  58.5259743  78.7648544  78.3202133  54.0620346  28.9639149
  78.2180786  54.9530640  29.2983875  77.9532242  53.5049820  29.6503849
  45.6561966  46.9464569  69.7881775  45.5622902  46.9364357  68.8356476
  45.9722099  47.8275146  69.9884415   6.4843163  42.3820305  23.3811588
   5.5932164  42.5063705  23.0544891   7.0268464  42.9257965  22.8100109
  65.8025742  35.8973007  53.3446465  66.5215454  35.8067703  52.7192497
  66.2322617  36.0974312  54.1762390  47.2015076  36.0801926  19.1244755
  46.3868065  36.0618439  18.6223164  47.4259453  37.0088692  19.1829624
  43.1191330  44.9987144  10.3571434  42.1927414  45.1541634  10.1731081
  43.1251144  44.5765877  11.2162151  61.8637543  13.0088701  84.8839417
  62.8028488  12.8565102  84.9893723  61.5617485  13.2568121  85.7577515
  82.6503983  28.6019001   4.2726626  82.0269928  29.3216972   4.1752806
  83.2267075  28.6796627   3.5123606  52.1342201  66.7968445  56.7671051
  51.3601227  66.4192886  56.3494301  52.5842056  67.2618027  56.0617256
  51.8679352  69.9660110  36.8890686  51.9790840  70.9011765  37.0603600
  52.1929054  69.8456650  35.9967995  21.4483662  70.3249588  51.4774590
  20.8785400  70.1323318  50.7328644  20.8780060  70.7644424  52.1081505
   6.3855529  60.7253838  59.0918121   6.8239570  61.5571938  59.2710571
   6.9812293  60.0611191  59.4384422  26.9496479  46.2908745  84.3017273
  27.0192413  46.3442497  83.3485489  27.1843014  47.1667213  84.6084290
   9.9773722  30.7152901   8.5460234   9.2627487  31.0641117   9.0788164
   9.6156511  29.9227619   8.1494274  28.8054752  64.8616714   2.1748981
  27.8572845  64.9448624   2.2761054  28.9466896  63.9318161   1.9969676
  17.5857944   4.5458593  45.6538506  17.7475796   4.9967823  46.4825401
  17.3301620   3.6595283  45.9093933   4.9051995  24.7722778  16.3644238
   4.3340654  25.1067429  17.0559216   4.4495335  23.9996777  16.0302219
  64.0711670  12.8837185  21.0646553  64.3577118  12.6107578  21.9362164
  64.7300034  12.5222225  20.4717884  28.0540028  24.1639748  35.1028366
  27.5875740  24.2622986  34.2727737  27.7252769  23.3417664  35.4663582
  14.6879406  62.3712540  51.8645630  15.2173500  62.7166901  52.5833359
  14.6644249  63.0804253  51.2220993  11.3689413  17.8433361   7.9183164
  12.1727591  17.4414883   7.5887313  11.4276476  18.7579060   7.6420045
  60.5085526  13.5728073  78.5048904  59.5844116  13.6765375  78.2780914
  60.4988708  13.1194925  79.3478851  73.8225021  35.6555023  49.9515648
  73.9333344  35.3212471  49.0614967  73.7267532  36.6015701  49.8419342
  58.6352043  56.3393021  85.3252640  57.8271332  56.3583641  85.8379898
  59.3339920  56.3878708  85.9776230  78.2432861  24.7038174   8.6618052
  78.8341827  24.9229813   7.9413605  78.8060074  24.6852112   9.4359026
  61.0873871  69.0375900  88.6826553  61.9386673  68.9946976  88.2471008
  60.5218163  69.4927521  88.0588074  50.7650261   2.8305004  54.0100136
  49.8522339   2.6654065  54.2461967  51.2112961   2.9509025  54.8482132
  55.1490746   4.0261226   5.3439636  55.0494423   3.0900240   5.1706843
  55.5400810   4.3774910   4.5440350  23.5762501  17.6875992  30.0735664
  23.6700191  18.3659134  29.4047432  22.8368549  17.9782524  30.6074638
  84.9463120  38.6307030  66.0877533  84.5502701  38.7678757  66.9483109
  85.2420807  37.7204628  66.1025543  64.2079773  70.0363007  80.2575912
  64.9077225  69.7340240  79.6786118  63.5448685  70.3923950  79.6662292
  11.4523392  58.1427841  86.4229889  11.9805088  57.5786667  86.9878235
  11.9560823  58.2085266  85.6117172  66.0231934  11.4315405  62.9702034
  66.7582779  11.0084782  63.4139366  65.4439774  11.7107553  63.6792679
  76.0378189  40.7678070  13.9338131  75.1712112  40.6686592  13.5396128
  76.6098175  40.9951363  13.2007523  71.3870468  16.1639671  67.2155075
  72.0034943  15.8368254  66.5603638  71.9352722  16.6221142  67.8525162
  85.4644318  34.8932724  31.5323963  85.2107162  34.4854164  30.7044392
  86.3509598  34.5715637  31.6961117  83.9764175  12.0368986  56.8509216
  83.0342407  12.1170073  56.9996529  84.0998535  12.3129692  55.9427490
  44.1600151  69.3429718  25.6392097  44.5828629  70.1908188  25.5028725
  43.3307953  69.5550308  26.0677643   0.7714180  67.3382416  86.4587402
   1.0794288  67.3884735  85.5538483   0.7694416  68.2461929  86.7618256
  17.3924751  15.5571690  74.7967606  17.9942913  14.9202070  75.1818924
  17.8566875  16.3921013  74.8569641  79.4625320  12.7026072  67.8622894
  80.1007767  12.3238039  68.4667587  78.8832626  11.9742708  67.6382217
   9.6455584  50.7325134  71.0312347   9.9482317  49.8383522  71.1896591
   9.7310896  50.8502388  70.0851593   6.9901628  55.2958946  53.2144470
   7.4528856  56.0283508  53.6214256   7.4210963  54.5161552  53.5644951
  42.7623596  60.2504005  71.8605804  43.2971115  59.5935364  72.3064499
  43.0679474  61.0867004  72.2119293  24.9601593  47.0004463  19.9488449
  24.2483597  47.6373177  19.8858509  25.1715984  46.7868919  19.0400429
  73.5872726  17.9690189  62.2125435  74.0353928  17.2881203  61.7107506
  73.1407623  18.4986649  61.5519867  25.7979641  48.7390976  68.1620865
  25.3443527  48.2767410  67.4573212  25.5239792  49.6511345  68.0653992
  65.0282135  60.7047997  20.7715759  65.6413651  60.5435295  21.4887028
  64.2057953  60.9310532  21.2059345  82.2195663  70.3077393  79.4522705
  82.9397659  70.7645721  79.8868332  82.5770569  69.4460068  79.2381210
  19.2819653  62.0300179  82.5667114  19.9498825  62.6304932  82.2357254
  19.7448215  61.2012711  82.6898804  82.0555649   5.7403970   3.1027877
  82.6826324   6.0324683   2.4411924  82.4275360   6.0377088   3.9331319
  72.5245285  34.6626892  16.8727627  72.7851562  35.4067230  17.4156418
  73.1268845  34.6860809  16.1292191  70.3647308  14.4235735  36.6179237
  69.5302963  14.8019381  36.8950539  71.0141907  15.0935040  36.8315201
  14.4501781  31.8553867  83.2878036  14.0403214  30.9942589  83.2058945
  13.7241678  32.4744644  83.2110825  19.7754364  58.4953651  81.4077072
  20.3633690  59.0751610  81.8918686  19.0594139  58.3169174  82.0173798
  51.5788841  17.7346191  15.5089521  52.1537552  17.8799744  14.7575359
  52.1704025  17.7053680  16.2609386   5.0367398  16.8098583  74.1954117
   5.2776012  16.7301998  75.1183853   5.2303505  17.7210255  73.9751358
  78.5912704  10.4073725  73.2868500  78.5682907  11.2528334  72.8386383
  77.6809540  10.2412643  73.5317001  50.1578178  14.1344919  83.5410767
  50.8075294  14.2919159  84.2261505  50.6463089  13.6972580  82.8436279
  17.5324554   4.8159442  13.1056538  16.7174320   5.0757470  13.5351543
  18.0740280   4.4643188  13.8122587  73.8932495  70.2544861   5.5789919
  72.9752426  70.4168320   5.7960987  74.1317139  69.4898529   6.1031065
  67.3166656  51.0582504  54.2388039  66.7583160  51.7668991  53.9189644
  68.2053833  51.3332329  54.0134087  23.9199276   3.9368525  68.7205505
  24.6865234   3.4999220  68.3495331  23.7663784   4.6836252  68.1417770
  23.3920727  59.8856087  76.4719391  24.0132217  59.8091698  77.1962051
  23.9063473  60.2531166  75.7531281  80.1280212  67.5790939  42.9383888
  79.7694168  67.8246613  42.0855522  79.5431824  67.9938431  43.5725555
  27.5279236   4.9537501  40.9157562  28.3374252   4.4702277  40.7509995
  27.7781162   5.6335692  41.5414429  42.6530647  30.8215008  76.0422668
  43.4022789  30.4275150  75.5954056  43.0397072  31.4644413  76.6367035
  41.1941109  57.6281204  26.2823391  40.3006477  57.2878685  26.3291149
  41.0992889  58.5702095  26.4227257  61.9849586  46.3176765  33.5422211
  61.8895531  45.3808479  33.7139206  62.0438156  46.3816948  32.5889778
  62.5102158  34.0638885   6.2218537  61.7254677  33.6058464   6.5228577
  62.7585220  33.6098289   5.4166174   6.2849932  61.0658569   7.7881684
   6.1375756  61.9975243   7.9509430   6.2715096  60.9842567   6.8345480
  46.6208382  26.6248779  32.1254768  47.1197891  26.0980015  31.5012283
  47.1563416  26.6271114  32.9188652  47.6353035  49.6358147  53.7169571
  47.4364052  50.3977699  53.1728134  48.3055191  49.1597404  53.2266617
  84.3900070  13.4217663   3.2620330  84.4721527  14.3055773   3.6203098
  85.2923508  13.1376448   3.1161373  79.5212173   0.5021083  48.9212799
  80.0326080   1.0935434  49.4734688  78.8836288   0.1092121  49.5173874
   0.3816421  36.2694588  69.1618576   0.2738611  37.0190048  68.5763702
   1.3244671  36.1043243  69.1684570  38.6079216  45.2910080  57.0872688
  39.1336861  45.0991211  57.8637886  39.1842804  45.0858574  56.3510933
  47.1478271   1.1189231  19.7034836  47.8148499   1.3905282  19.0729733
  46.3931694   0.8794107  19.1655636  45.9379845  40.0086784  32.8668098
  45.4651756  39.9338036  32.0379105  45.6993332  39.2181702  33.3509293
  31.7583447  51.8751564  71.5039139  31.9794140  52.8051567  71.5534973
  31.5218945  51.6370506  72.4003677  66.2445450  56.0518417  76.9507980
  67.1878967  55.9017830  77.0124512  65.9207764  55.9096794  77.8402863
  10.1034803  38.9345322  15.8738890  10.8692484  38.8655205  16.4440365
   9.5893497  39.6495819  16.2488613  78.4995956  71.2361908  65.9940796
  77.7302551  70.6719360  65.9168777  79.2369461  70.6674881  65.7724228
  79.0390549  70.1153641  43.4816093  78.9866867  71.0575409  43.3210106
  78.1692200  69.8785324  43.8033676  16.6681633  61.9720688   0.0459529
  16.2766476  62.7146034   0.5059397  15.9346018  61.3805046  -0.1218911
  24.9525833   5.2601800  23.1403408  24.1255684   4.8906598  23.4497490
  25.0140381   4.9787397  22.2275181  20.0355301  21.1423721  83.0541916
  20.0834465  21.9975529  83.4815140  20.6756039  20.6051540  83.5210266
  49.4733925  70.3276520  27.6909046  50.0547295  70.0260544  26.9928207
  48.6347961  70.4798355  27.2552204   8.3121433  11.1517687  30.2335205
   8.6858225  10.7456808  29.4514141   7.5962257  11.6943321  29.9028854
  45.7266426  52.1530113   0.9568272  46.3158913  52.8973808   0.8346536
  45.9326286  51.5629654   0.2318117  85.4718399  18.2029171  65.5563583
  85.3193970  19.1476841  65.5765839  85.0959778  17.9174309  64.7236176
  46.4692574  45.6968842  55.8609848  46.8998413  45.1308212  55.2203560
  46.4980354  46.5690231  55.4675674  77.3079529  13.1462965  82.4991226
  76.5906677  13.7783489  82.5464935  77.5399780  12.9784346  83.4124756
  76.6971436  59.4689255  69.0262146  77.4380188  59.0315666  69.4457932
  77.0122757  60.3547630  68.8467255  12.2329092  61.5159683  62.2177811
  11.3171825  61.5408478  62.4953766  12.3802156  62.3653259  61.8017044
  30.9335880  63.3529854  30.2446976  30.8481083  62.8893738  29.4116364
  31.8747177  63.3604050  30.4192009  47.4197273  33.5584984  13.7787914
  48.1951675  34.0862808  13.5880804  46.6846046  34.1010780  13.4934263
  61.2584953  64.0153656  38.5062332  60.7928085  63.2628860  38.1413460
  61.3649330  63.8043785  39.4338036  74.9222488  58.7292099  63.9060516
  74.8192825  59.1242180  63.0402565  75.7440109  58.2414932  63.8506088
  53.1204338   6.2955446  29.5273705  52.2168808   5.9900646  29.6080055
  53.0659599   7.2420235  29.6594391  85.4290085  36.5623207  71.3625946
  86.2537994  36.6724319  70.8894958  84.8200073  36.2232590  70.7065582
  74.9086075  21.9951973  19.5734577  74.8444595  21.1422119  19.1438885
  75.7321701  21.9571095  20.0597973  28.5974941  56.9615440  28.7945290
  27.7756023  56.6773682  29.1944923  29.2309608  56.9459381  29.5119610
  52.5770149  10.2638388  25.1131649  52.0020828  10.3294048  25.8756523
  53.3372307   9.7746305  25.4277725  44.5182533  58.0154915  20.9344578
  44.6211395  57.5787621  20.0889320  44.2401009  58.9041481  20.7127552
  76.0650406  67.6417694  87.3660431  76.8814621  67.9817505  86.9998398
  75.8028564  66.9467697  86.7623291  47.1278992  18.4590855  10.9684200
  46.9094429  18.8406506  11.8186665  48.0784225  18.3488483  10.9924698
   1.8951753  65.4872589  25.2090530   1.2653350  65.1842728  24.5550385
   2.1360104  66.3673935  24.9199257  30.2170448   4.3908486   4.6085572
  29.4291382   4.8411245   4.9130001  30.1179142   3.4933882   4.9263148
  80.7745514  70.7208862  47.0545387  80.8466187  71.3219757  46.3131065
  80.3644714  71.2410126  47.7455750   0.0198781  49.7502670  18.0861912
   0.5865410  49.6830635  17.3176804   0.3225630  50.5374832  18.5388565
  83.4594574  44.3924484  55.6396523  84.0670013  43.7526207  55.2685165
  83.7238235  44.4700623  56.5563431  42.6332550  45.7538834  57.3061409
  42.7667847  44.8103256  57.3961601  41.8821144  45.9441719  57.8681107
  68.1519775  58.8683853  58.9662819  67.4428253  58.2790184  59.2231750
  67.7461243  59.4763527  58.3483086   1.7749642  37.3098717  87.8814926
   1.2834285  37.7136002  87.1662064   2.2647641  38.0328331  88.2734833
  68.3030701  11.1530638  66.7330627  67.8285141  11.8611755  67.1685028
  69.2255630  11.3919640  66.8234177  41.8645287  66.5987854  21.6647644
  41.9920654  67.4911270  21.9867725  41.4262962  66.1447678  22.3845215
  10.3578157  52.5142670  54.6495323   9.8389435  52.8195152  55.3937302
  10.3981009  51.5642281  54.7592354  82.2141113  71.8707199   5.0197520
  81.4677353  71.8671875   4.4204669  82.0467148  71.1401138   5.6150904
  15.0788660  13.0911856  28.0994568  15.1456079  13.0160141  29.0513649
  14.1376753  13.1022758  27.9254799  49.0699005  33.9641037  21.3622398
  48.8561211  34.8243942  21.7233906  50.0209541  33.9789848  21.2549515
  42.7461510  47.2885208   8.4206467  42.8865395  46.7105789   9.1706486
  41.8530045  47.6139641   8.5329294  27.6980686   9.6719427  24.8633347
  26.9532070  10.2498627  24.6977444  27.5324306   8.9047604  24.3154049
  37.8400192  39.5652542  24.7217407  38.5574036  39.8982239  24.1825562
  37.0933304  40.1200142  24.4960556  42.7819061  19.8871574  72.5531387
  42.4921455  20.6622448  73.0342941  43.6860809  20.0822487  72.3069000
  36.8030891  14.7488346  84.8732605  36.6419907  14.9285059  83.9469757
  36.2325783  15.3605261  85.3386383   5.7526159   5.2139373   7.7611108
   5.8286581   6.1652784   7.6876268   5.2814560   5.0740571   8.5824957
  81.2441483  28.2072639  65.1361465  81.7872467  27.8531570  65.8403397
  81.4796982  29.1341171  65.0949936  82.3572540  50.1553230  86.4065170
  82.7692490  50.3274803  87.2531891  82.5943832  49.2502594  86.2043762
  64.1685181  61.7716789  59.9379616  64.1362228  60.9102135  60.3539734
  63.6204529  61.6818733  59.1583557  25.0211964  46.5208244  47.8477859
  24.6536102  45.7415771  48.2647820  24.5163593  46.6213188  47.0407715
   2.5577385  27.4197350  20.4887409   2.7715504  28.2077084  19.9891281
   2.3470967  26.7642879  19.8237209  75.9193420  22.9323635   3.8913782
  74.9983521  22.6984406   3.7761161  75.9191055  23.8881989   3.9424798
   2.7638023  56.9915276  13.1931973   2.4739494  57.0903549  14.1000881
   2.4680524  56.1167374  12.9412003  13.3640003  16.4303284   9.0087290
  12.5119886  16.0438881   9.2111416  13.9213266  15.6823311   8.7939768
  80.2472992  54.4209976  26.8122959  79.7759018  54.5912666  25.9968071
  79.5688477  54.1426773  27.4274998   1.8294157  31.8903618  83.5244446
   2.1246650  31.1589890  84.0668106   1.5583137  31.4839649  82.7012939
  24.6530743  24.4564781  19.7639713  24.7646561  24.7357731  18.8552494
  23.7173023  24.5638580  19.9343586  53.2757225  42.5049706  75.2087173
  52.9168587  42.9803619  75.9580231  52.6895638  42.7225914  74.4839554
  54.7305145  23.3472919  46.1630211  55.5896873  22.9853363  46.3798981
  54.6558380  23.2355747  45.2153015  67.7604523  31.6690083  11.6633959
  68.4805603  32.0136642  11.1352930  68.1879120  31.1277695  12.3271532
  17.1711597  53.8873978  62.4806747  17.6743927  53.7095833  63.2752609
  16.4096851  53.3110313  62.5454254  53.0276527  21.9600391  16.1803188
  52.9011421  21.0116291  16.1530266  53.7758331  22.0851688  16.7641029
  28.8110046  47.0420151  55.9101906  28.8398590  46.0855064  55.9323807
  28.5443268  47.2528992  55.0154076  71.2149200  37.7129555  45.7403412
  70.8239746  36.8569412  45.5653267  71.0763855  38.2090073  44.9335136
  13.7942486  58.5655594  68.4358063  14.7142181  58.3829155  68.6269302
  13.3206921  58.2337494  69.1986160  32.1331902  65.7101059  21.5845642
  31.8962688  66.4159088  22.1861801  32.7743874  65.1887894  22.0675983
  64.5049744  59.2512169  77.9271622  65.4524918  59.2453003  77.7915115
  64.3009186  58.3665886  78.2305145  78.7740555  17.4566250  41.4007225
  77.8869934  17.7998905  41.2934303  79.2370758  17.7387123  40.6118774
  20.2723827  17.0709934   5.9024940  20.7314854  16.2412548   6.0328479
  19.4936924  17.0032444   6.4550195  67.7151337  27.5801868   1.2101809
  68.2381897  28.3479309   1.4408742  67.6963196  27.5819569   0.2531675
   1.5059606  70.6787872  86.3940964   0.6748813  71.0506821  86.6894608
   1.6208416  71.0226288  85.5082092   8.7722082  32.2738075  75.9810181
   9.0999355  31.7803192  75.2291565   9.5241919  32.3413353  76.5693970
   8.2915974   9.3393478  53.0133934   9.0512962   9.9153337  52.9277840
   8.4157667   8.6765680  52.3340263  76.7947540  64.2025452  49.1201897
  76.4955673  64.2313232  50.0289764  77.0071716  65.1116867  48.9090576
  82.9430161  16.4171829  50.3340492  83.6836090  16.1311340  49.7993317
  83.3006134  16.4904060  51.2189178   8.7317162   9.9074469  21.7397404
   8.0570831  10.4837933  21.3806744   8.5855637   9.9277973  22.6854973
  57.8848801  52.3172417  63.6744690  58.7830124  52.3803978  63.3495064
  57.3428116  52.3379707  62.8858185  57.7887344  24.1082687  46.2590027
  58.3737450  23.7175083  45.6099243  58.2534752  24.8885517  46.5613327
  58.4537430  33.8923454  45.2630348  58.5256271  33.8436279  44.3097801
  57.9474487  34.6884422  45.4246750  14.4769802  33.2006302  27.3340473
  13.7816610  33.4624405  27.9375534  14.9116278  34.0205040  27.0992661
  18.7276821  46.7584114  86.7832260  19.4123039  46.0942917  86.7027817
  18.0959702  46.5352135  86.0995865   4.3000660  42.6032257  48.1884079
   4.1623411  43.5365257  48.0264969   4.9470234  42.3395348  47.5340805
  42.1678658  23.3973675   3.1998959  42.7789345  24.0917187   2.9535098
  42.5579643  23.0001793   3.9785452   7.0716929   2.9032831  48.8793640
   7.3746233   3.3063505  48.0657272   6.5903888   2.1256664  48.5967140
  29.7123108  29.1004810  17.5299702  29.8963261  30.0002689  17.2602425
  29.9952602  29.0616894  18.4435711  28.9127598  66.2428741   8.1095533
  28.3165169  65.4996490   8.2008715  28.9117546  66.4369812   7.1722422
  82.7616653  34.8179512  35.3868752  82.9233017  33.9168663  35.1073227
  82.2802277  34.7307854  36.2095833  82.6744156  64.6920624  26.1886978
  82.1665726  64.2097778  25.5362167  82.1157227  65.4313965  26.4284248
  27.8537788  59.8213768   7.9219885  27.6567345  60.0589409   8.8280621
  28.5480061  59.1660805   7.9917483  85.0274658  20.7913685  27.5430870
  84.5863113  20.1559658  26.9792805  85.5933304  21.2855797  26.9499779
  44.6845703  32.8891945  25.1245327  44.2955627  32.9085541  25.9989071
  44.5205498  33.7630653  24.7700157   7.8179159  36.9922714  36.1002350
   7.8011150  36.1601181  35.6275063   8.3578434  37.5658150  35.5564003
  77.5882874  45.1694946  69.1170273  76.8832245  45.7960548  68.9541321
  77.2267761  44.3260193  68.8448410  55.0588150  30.1078892  20.0368576
  54.8834267  29.8086891  20.9290180  54.4605103  29.5975609  19.4911213
  15.0598545  63.6336555  79.0738068  14.8210506  62.7288628  78.8724213
  15.6672335  63.5628242  79.8102264  22.8117218  31.2141399  81.1713409
  23.2634373  30.3710213  81.2078781  23.5149860  31.8633747  81.1835327
  63.7824783  22.2457657  45.2124634  64.4370422  22.7575855  44.7372589
  63.5607758  21.5292263  44.6177750  32.2637100  42.9879150  22.6530514
  31.3850746  42.6759415  22.4364738  32.4399414  43.6736450  22.0088902
  36.3316650   0.6333812   7.8483663  36.0075455   0.9234499   8.7010307
  36.4347267  -0.3137478   7.9408717  34.5984039   3.3190398  13.7353010
  33.6861649   3.0428791  13.6470470  34.6361923   4.1662445  13.2914009
   0.8427294   3.3146508  58.4888382   1.0865630   3.4512374  59.4043274
  -0.1019314   3.4675553  58.4672050  24.9649696  25.9854889  12.0652237
  24.9052715  25.4229641  12.8373861  24.1499958  26.4875011  12.0710268
  79.5975952  58.0466805  14.2942448  79.8021545  58.9769096  14.3894176
  79.6463089  57.6984291  15.1845140   4.6253171   0.7694574  12.2572536
   4.1792841   0.0792179  12.7480240   3.9690964   1.0832603  11.6350527
  39.0224190  23.1093407  83.4120407  39.2193985  22.7581425  82.5436554
  38.4091377  22.4799385  83.7914810  86.7372742  58.0883293  83.0769043
  86.9418793  59.0141220  82.9454575  85.7886124  58.0682449  83.2029114
  69.0820465  11.3501387  43.4871063  69.9349747  10.9188881  43.4345016
  69.2288589  12.2180014  43.1109505  84.5659943  58.0164642   5.7299623
  84.7631531  58.8272667   5.2609673  84.0556793  58.2971840   6.4895754
  16.7962093  18.0429401  78.2944260  16.0759125  17.8385868  77.6980667
  17.5805321  17.9955330  77.7477798  42.5598335  60.3279114  88.1324387
  41.9756660  59.5743484  88.2168045  43.2868233  60.0087242  87.5978012
   0.6053483  62.7732162  21.0209293   0.4181087  63.4488640  20.3692608
   1.4467489  63.0305786  21.3978138  69.2517548  26.5981140  38.4527397
  69.8951950  27.0754395  37.9289360  68.4116898  26.9919987  38.2174187
  30.8463955   5.9214439   2.5455155  30.7747574   5.3214488   3.2878807
  29.9688053   6.2918563   2.4513774  23.9939632   1.1676520  22.4077282
  23.6567917   1.4970896  21.5746498  23.6917706   1.8032070  23.0565586
  20.3253746  53.6476364  60.3381500  20.7160091  54.0009651  61.1373978
  21.0257473  53.6962624  59.6875000  42.0824966   0.3297867  52.4230576
  42.2194939  -0.5193943  52.8430023  42.8910866   0.8135425  52.5915604
  40.3537445  68.2630844  59.5137672  40.5051041  69.0464325  60.0426140
  40.1816902  67.5719376  60.1532555  27.3455620  61.8596878  32.7622528
  28.2143974  62.1858597  32.5278015  27.4502964  60.9092407  32.8059692
  62.2955284  67.6913834   6.2108040  62.1472054  68.4966278   5.7150073
  63.0679588  67.2986145   5.8042135  37.9946709   5.9294982  85.2683334
  37.2110062   5.3830004  85.3270187  37.7083893   6.7082715  84.7910614
  14.6749716  68.1487503  47.2571449  13.9556513  68.4653931  46.7107468
  15.4242325  68.6872101  47.0023842  76.4901733  28.5286255  53.5593300
  75.8898163  27.7855854  53.4985275  77.1272278  28.2680187  54.2245178
  54.3069839  52.2183380  61.5097351  53.7321053  51.4529953  61.5100899
  54.2332382  52.5736885  62.3954659  64.8362656  53.1729431  23.7320576
  65.6895905  53.6002960  23.8058491  64.9489517  52.5327950  23.0293865
  60.3595505  60.0074997  14.4620247  60.1333351  59.3359146  13.8185720
  61.3155594  60.0491562  14.4387455  50.2447968  67.0999298  68.2359848
  49.6154633  67.6310959  67.7480927  50.9681816  66.9634247  67.6241684
  55.3460007  70.5805817  88.7802887  54.7622032  70.5562057  89.5384521
  56.0069695  71.2344666  89.0078735  32.2308998  70.1525269  74.9193497
  32.4392052  71.0603409  75.1400452  31.6867905  69.8482590  75.6457138
   1.9342360  16.5629883  67.4157104   1.6917952  15.9099016  68.0721664
   1.6500522  17.3965302  67.7907791  51.7808800  57.1475143  77.2651138
  52.3052406  57.5435944  77.9611053  51.3123932  57.8828888  76.8701782
  18.9250259   7.9668326   6.3214974  19.5484123   8.4741459   5.8016391
  18.3859081   8.6257362   6.7590261  83.4965668  24.0306396  70.5951614
  82.6829605  24.5075512  70.7589951  83.9532318  24.0400124  71.4363480
  11.9238615  42.7413826  11.1098576  12.0783806  43.6422348  11.3941555
  11.8451004  42.2435837  11.9236279   8.6996298  43.2418327  60.2603111
   8.9340391  42.3522110  60.5246239   7.7642446  43.3099442  60.4517441
  56.9024124  43.9400749  22.8838406  56.6937256  43.0439301  22.6200027
  56.7985344  44.4555740  22.0840263  15.2239456   7.6618037  23.7303276
  15.5637522   6.7903304  23.5271091  14.3248167   7.5067930  24.0197620
  24.4988270  32.2574501  87.7415619  24.5024509  31.4017448  88.1704941
  25.4176540  32.4236984  87.5309677   5.0717669   7.9341660  63.6662865
   4.1878414   7.8525033  64.0243912   5.3211193   7.0388103  63.4373894
  85.1923141  27.4653950  69.4409180  85.1018219  26.5972195  69.0480881
  84.2933044  27.7450867  69.6134872  62.6049080  21.8371449  10.1346006
  63.5082321  22.1502953  10.1812763  62.0755386  22.6344776  10.1184368
  80.7101364  71.2413940   9.5416803  79.9788742  71.8367920   9.3773985
  81.3738174  71.4944229   8.9000111  82.8008499  12.1717558  12.4029903
  83.1095581  12.0431910  11.5061035  82.1680298  11.4671268  12.5418005
  62.0360184  29.7071114  26.0595398  62.9470253  29.7193680  25.7660313
  61.6827927  30.5515461  25.7795506  49.9474297  48.4287834  81.5884781
  49.8940392  48.6073418  80.6495972  50.4044800  47.5897942  81.6471100
  38.9026070   5.8775172   1.1441374  38.6247635   5.2064700   0.5206553
  39.4560204   5.4092665   1.7692018  13.0511503  57.0021477  79.9711990
  13.6410828  57.4716682  80.5609207  12.8907070  56.1660118  80.4086533
  25.3365116  43.5710564  63.9218826  24.6854630  42.9664993  64.2780838
  25.6740246  44.0373955  64.6866302   5.7001896  32.6464005  33.6078758
   5.8816681  32.2064133  32.7773857   4.8669205  32.2755432  33.8983231
   3.8736672  62.2842064  73.9699554   3.2095587  62.0239906  73.3316193
   4.7038817  62.0216675  73.5724030  67.4808960  35.0113068  51.4133492
  67.4611969  35.3423424  50.5154305  67.1661987  34.1100349  51.3433037
  52.0337181  30.1585388   1.9414209  51.8227463  29.2302914   1.8410461
  52.7210197  30.1772976   2.6073759  68.7318573  43.0978928  51.2389259
  69.1817703  42.2628059  51.3671265  69.2377243  43.5403290  50.5573196
   7.5124378  27.7482071  59.1351204   8.4166403  28.0384178  59.2552414
   6.9946537  28.5518799  59.1824608  78.1696930  31.8572083  60.7583351
  77.9006882  32.6870499  61.1523247  77.7005310  31.1906185  61.2601128
   7.6521173  19.0805607  25.9790192   6.9285808  19.6769352  26.1715412
   7.2838006  18.4485989  25.3616066  54.8461952  33.2865677  42.9488945
  54.7968025  32.3374939  42.8346710  55.0597649  33.6218109  42.0781288
  51.0087280  10.7648554  17.9691143  50.4616699  10.6174335  18.7406216
  51.8139687  10.2801037  18.1503048  76.6523972  26.1007881  55.9227180
  76.4085541  25.1752167  55.9130745  76.0908585  26.4894352  56.5934334
  15.3109007  67.6886368  76.5190887  14.7267675  67.1026459  77.0003738
  15.5120935  67.2159653  75.7114182  32.2582817  44.6633949  25.4074192
  32.7954063  44.0339470  24.9262524  32.0464668  44.2192497  26.2284565
  49.9421349   2.8560319   0.5333925  50.4705505   2.4175231   1.2002643
  49.9210052   2.2398686  -0.1988153  83.0393753  70.2311630  49.5436592
  82.1557312  69.8964157  49.3908882  83.2321854  70.7603226  48.7696762
  62.6113167  11.4631596  72.8158264  61.6784821  11.3125525  72.6629486
  62.9144363  11.9101238  72.0255280  48.9016457  12.3441916  81.2497253
  48.0960693  12.3629837  80.7330780  48.7302094  12.9359474  81.9822998
   3.3776772  31.1980953  34.3766365   2.6789141  31.5231113  34.9443741
   3.6478624  30.3722458  34.7781410  29.7498798  48.7095947  27.9902287
  30.2447739  48.0454788  27.5103683  29.8934097  49.5176773  27.4976521
   7.6783600  58.1851540  68.1010284   8.4289894  58.7046394  68.3889847
   8.0228586  57.2967987  68.0094833  40.1445923  54.5368271  28.8633728
  39.1895142  54.5974922  28.8438587  40.4426308  55.4463844  28.8526764
  48.4949989  28.3793697  24.3386269  48.2370262  27.9299526  23.5338249
  47.6672516  28.5982780  24.7665806  57.3163147  67.6432571  57.7536392
  57.8762665  67.2560120  58.4264908  56.6134911  68.0702057  58.2435265
  86.2295761  65.7607346  70.5287018  86.9902039  66.1608582  70.9501114
  86.2215195  66.1321640  69.6465454  24.8795052   8.4463053  72.5009003
  24.3678226   7.6768742  72.2511215  24.2448006   9.1627235  72.5120850
  36.7182884  17.1322327   7.6957016  37.1900787  16.3495235   7.4110770
  37.4065056  17.7526073   7.9359593  31.4797859   5.3166890   7.7051539
  31.6025944   4.5358396   7.1653171  32.3060570   5.7936916   7.6278467
  77.2593689  36.9686279  60.6416588  77.9466248  37.5204544  60.2682915
  77.4045486  37.0118523  61.5867996  32.7039680  50.5702400  57.2172241
  32.5134125  49.8794250  57.8518028  31.8657665  51.0137634  57.0870705
  44.2031784  29.4856319  56.0795822  45.0565033  29.3561935  56.4934769
  44.1391792  30.4323559  55.9536896  49.6199913  17.3349113  10.7835302
  49.4578629  16.6883812  10.0965490  50.4259224  17.7748394  10.5130291
  78.8423309  16.4597626  76.5300598  78.8164368  15.5396080  76.2676163
  78.5999680  16.9413261  75.7391129  82.8894806  12.8594656  36.0005951
  83.6944580  13.3675032  36.1012917  83.1861267  11.9938507  35.7196312
  39.1360550  50.7422676  37.0278320  39.4604340  51.6412354  36.9743156
  39.4246025  50.4342690  37.8869629   1.2555199  43.0216179   0.6555587
   1.3896848  42.3241463   1.2972479   1.5957119  43.8081360   1.0820450
  59.8916206   7.9064388  66.8393326  60.6945953   8.1132050  67.3175735
  59.8036041   8.6147194  66.2014999  75.0959778   6.2928066  71.3815002
  74.4324646   6.7116766  70.8332901  75.8003464   6.9382734  71.4403610
  16.9029236  60.0602036  47.4653358  16.1725140  60.4072533  46.9531937
  16.4903316  59.4948425  48.1183052  11.5032921  46.6639595  47.2925453
  10.5909653  46.9375916  47.3874969  11.5714283  45.8695183  47.8221245
  76.1565781  66.1749573  43.0528488  77.0760040  65.9914474  42.8599510
  76.0278015  67.0793991  42.7671280  55.7537613   5.3350625  74.9806442
  55.0167313   5.1156149  75.5506134  56.0252571   6.2076507  75.2654419
  18.2466087  28.8781567  71.6801071  19.0080853  29.1923122  71.1925659
  17.5889111  29.5640354  71.5650635  84.0140305  62.2420692  64.2013321
  84.7705536  61.8794098  63.7404861  84.3332825  63.0623817  64.5773544
  48.7820740  70.8453217  76.9868164  48.5359612  71.4671097  76.3019562
  48.0419693  70.8522186  77.5938034  16.8783588  69.7088776  46.9055214
  17.0510159  69.6697922  45.9648361  17.6948757  70.0329742  47.2856407
   7.2505350  19.8173485  70.3778534   7.5655828  20.3477745  71.1097107
   6.5264778  20.3235378  70.0094147   8.0052719  19.3365459  86.8334274
   8.1963177  19.0969505  87.7402573   7.5028005  20.1484509  86.9009857
  53.4224091   1.8375037  61.6496391  53.1728477   2.7501829  61.7944412
  52.8109550   1.5249090  60.9828262  67.6511002  19.1003647  18.8810139
  67.3930283  18.7626686  19.7386818  68.3402786  19.7367096  19.0716343
  29.1087799  47.5614853  40.6751480  29.6209412  47.1391563  39.9855385
  29.6792088  48.2550697  41.0064850  15.7497749   4.3179049  27.6865330
  16.2108421   4.3830070  26.8502254  15.4291868   3.4163978  27.7137451
  39.7088089  59.8804359  81.7234421  39.6697960  58.9724541  81.4229736
  39.7040329  59.8170738  82.6785355  10.2860813  58.9999924  68.6174240
  10.8105288  59.5449944  68.0307693  10.8502445  58.2534676  68.8190384
  35.4543648  44.7689362  71.7771683  34.5294418  44.8126602  72.0197372
  35.9243774  44.9365807  72.5940018  55.9877586  70.8744965  73.7446289
  55.4687309  70.0914688  73.5610275  56.7763290  70.7693939  73.2123337
  76.9902420   3.0593982  62.0222511  77.2562714   2.6221378  62.8311157
  77.2194901   3.9784391  62.1602364   1.6281737  31.4455147  80.5355911
   1.5509164  32.2433815  80.0124512   0.7383121  31.0945168  80.5699158
  64.4593735  15.4320517  50.1755447  64.6113586  15.5694456  51.1105614
  64.5260544  14.4843445  50.0587692  30.3889389  48.7245598  32.7473106
  29.4618034  48.6637611  32.5171890  30.8508339  48.4497299  31.9552555
  50.2612305  35.2073441   2.6090567  50.2538223  35.1511421   1.6535368
  50.7235527  34.4183350   2.8918152  51.4630470  21.5566864  46.2945786
  51.2636337  21.2081852  45.4256630  51.2762833  22.4929638  46.2257690
  46.9721603  52.3152313  29.9181995  47.4824867  52.8947716  30.4838257
  47.2689743  51.4345551  30.1474209  66.2581863   4.6928859  10.7361851
  66.8868561   4.8879128  11.4311419  66.7468033   4.8326731   9.9250479
   5.2510729   1.0215967  48.0995216   5.8687143   0.4412151  48.5443878
   4.5119863   0.4568678  47.8735466  62.6333466  61.6661186   7.7917967
  63.3097229  62.3375626   7.7028189  62.1615410  61.6896248   6.9592838
  14.1082296  38.5969429   8.2522364  14.7524786  38.2544098   7.6326847
  13.6183596  39.2496567   7.7520127   0.4210406  40.5355453   1.8120929
   0.3171190  40.1010780   2.6586578  -0.4732834  40.6528168   1.4916816
  35.2780762  61.4231949  39.5753098  34.4824753  61.5823631  40.0831604
  35.7825356  60.8076057  40.1071014  72.7804565  65.7735596  73.4284821
  73.4718399  66.4189529  73.2812119  73.2465286  64.9456940  73.5452881
  12.5370178  48.5741539  60.1840630  13.2719011  48.0644150  59.8429680
  12.4046049  48.2394943  61.0710258  77.5062103  38.5531654  72.8027191
  77.1052780  38.2974052  71.9720154  77.7221451  37.7241440  73.2297287
  47.7547035  69.0878372  50.7410927  48.1780396  68.9476852  51.5880737
  47.0701065  68.4199753  50.7020760  67.1912003  37.5817299   2.2936609
  66.8221817  37.8241005   3.1429613  66.4678650  37.6950760   1.6770837
  39.8381348   3.5966868  80.8160095  40.7465744   3.7482324  81.0767899
  39.6004105   2.7737627  81.2432251  79.4001236  44.3564339  74.5524673
  79.1648331  44.4757881  73.6323471  80.3566208  44.3197975  74.5522766
  18.1486340  61.6579857  15.2698622  18.3211555  62.5890656  15.4097328
  18.9221573  61.2158661  15.6197548  57.4456978  65.5350494  60.3599930
  57.5960350  65.5046234  61.3048210  58.2158432  65.9823303  60.0092049
  43.9715157  43.0531349  42.9301033  43.5939598  42.2216682  42.6431427
  44.8143768  43.1018028  42.4790459  31.8552265  38.8846092  21.3019943
  32.0054207  39.6894417  20.8060913  32.3248482  38.2099380  20.8115730
  13.0647316  13.1806393  80.8681030  14.0217657  13.1831264  80.8857346
  12.8080454  13.3592758  81.7727814   0.9447747  46.9729385  75.4421234
   1.4136143  46.2795219  75.9064484   1.0563805  46.7587967  74.5158844
  42.0774498  33.2584839  88.3880157  42.5986900  32.5090981  88.6760406
  42.3605919  33.4151115  87.4871597  38.2035637  43.2632332  22.4968033
  39.0270691  43.1427994  22.9696312  38.4613113  43.6571312  21.6633511
  59.2984810  34.7296982   8.6656580  59.7319336  35.5397797   8.3971004
  59.8048325  34.4254456   9.4188318  74.8986359   8.1543789  49.1232758
  74.0111923   8.4176302  49.3669281  75.0993500   7.4214354  49.7052917
  75.9061508  19.9248772  77.2897491  76.5905457  20.0748997  76.6375732
  76.1949844  19.1459408  77.7652054   4.9017878  24.1689625  26.9517021
   4.5809884  23.4250717  26.4418526   4.3595290  24.1703796  27.7404900
  38.2621078   9.2401810   5.4082046  38.8577538   9.9731827   5.2528038
  37.4913101   9.6393099   5.8116889  75.7136078   7.3261108  10.5151510
  75.7748108   7.5021968   9.5762796  75.5123596   6.3919749  10.5710211
  79.7622299  42.5530434  79.4707565  80.6204300  42.1594238  79.6282043
  79.9376221  43.4917679  79.4054260  38.3465347  22.5705299  79.0176697
  37.6782837  23.1301804  78.6221161  39.1769142  22.9410610  78.7186584
  54.1201744  46.1754799  27.0527763  53.2702293  45.7600174  27.1984253
  54.6629982  45.8718872  27.7803783  37.8650742  47.1558533   8.4634418
  37.8579712  46.5445862   7.7268715  38.7609215  47.4922180   8.4869156
  39.1328583  17.6692944  18.8014526  38.7561913  17.4529152  19.6544075
  38.5885773  17.1959343  18.1722298  25.7868423  57.9681282   8.2045450
  25.3392391  58.4614067   8.8919764  26.4977722  58.5431213   7.9213543
  51.5321312   7.7531424  27.0981312  50.9900436   6.9665613  27.0376015
  51.6569633   7.8862700  28.0377731  45.1780739  43.7794151  25.8298054
  45.1788826  44.5514069  25.2638893  45.5708199  44.0822029  26.6485252
  39.4524879  26.7191792  17.9571171  38.6756630  26.7127514  18.5163460
  39.1186829  26.9333115  17.0859356  45.6390190  61.5257416  37.8787155
  44.9098167  61.2817383  38.4487686  46.1008797  60.7034073  37.7153625
  10.8862667  67.5067520  57.5319099  10.0821724  68.0065918  57.3911095
  10.6301222  66.8044128  58.1296959  43.0334511  17.5546894  80.5436630
  42.1746788  17.4358692  80.1379242  42.8987007  17.3215427  81.4622040
  43.8625603  62.6170654  63.1620903  44.1377983  63.1628151  63.8987274
  43.8267212  63.2187424  62.4184952  19.5942364  23.0148029   5.8516412
  19.7369843  23.9507065   5.7104425  20.4215355  22.6984119   6.2145567
  37.9863358  10.7450838  11.8453016  37.9675446  11.6983757  11.9296331
  37.1445389  10.4567814  12.1981373  85.8086319  28.2098484  49.5706215
  84.8913345  28.1784191  49.2989540  85.7735062  28.3475380  50.5172157
  84.3395996  42.7918510  63.0119133  84.0281525  43.6964378  63.0428505
  84.6990128  42.6323090  63.8846130  12.0288258  14.8199120  69.9046478
  11.9396563  14.1368227  70.5692291  12.7342663  15.3794537  70.2294464
  61.2130356  15.1386671  50.6337662  62.0850563  15.5008659  50.7906837
  60.9000015  15.5971632  49.8540077  86.2157822   0.9866573  79.6351547
  87.1138306   1.1095443  79.9427948  85.9737244   1.8327222  79.2585754
  86.1454239  11.3569288  25.5121288  86.4489517  10.7738466  26.2079144
  85.4299469  10.8782330  25.0935917  12.1312094   9.6768551  82.2078247
  12.1561003  10.4886160  81.7012100  11.6197653   9.0736008  81.6686172
  80.5974274  65.0685959  58.5418968  80.5308609  64.1140442  58.5165634
  80.6170349  65.3318253  57.6218147  34.9134979   5.8795295  21.6777191
  34.3919754   5.7937684  20.8796616  35.5913200   6.5171213  21.4535255
  65.1901016   5.5651345  50.0143127  65.2865906   6.4179716  50.4380913
  65.7036362   5.6379700  49.2098198   2.3888197  67.5565491  15.3461695
   2.4208584  67.6941910  16.2928791   3.1438231  66.9985275  15.1595850
  15.2958498  63.8638077   1.6059889  14.4375687  63.4559288   1.4910074
  15.4403362  63.8551178   2.5521812  22.0720539  17.3062744  21.9667854
  21.6389484  17.6593761  22.7439423  21.3567715  17.1144810  21.3603039
  72.4874725  25.4662762  56.2613335  71.6643295  25.9509335  56.3227501
  72.3167953  24.7859058  55.6100273  72.6926422  42.7315292   2.1113365
  72.2477646  42.7392235   2.9588370  73.6101685  42.5608253   2.3240101
  54.0149269  66.9049149   5.3148656  54.9337463  66.6873627   5.4719558
  54.0198402  67.3790817   4.4833784  30.9864159   2.1332269  49.5053978
  30.3431835   1.4259036  49.5520630  30.4849014   2.9259844  49.6957932
  14.9990025  58.4634323  81.0033340  15.5750608  57.6991158  80.9888840
  15.0064363  58.7517319  81.9160538  15.4747648   9.8609467  30.7681179
  14.6739912  10.3437366  30.5634079  15.2398291   9.3143549  31.5179691
  15.5746918  34.1372757  83.8272476  15.0113220  34.2837296  84.5871124
  15.3606720  33.2503433  83.5378036   6.5873613  48.2916260  80.4577103
   6.4530277  47.5854263  81.0897446   6.8809991  49.0335770  80.9864044
  23.4739685  51.8539352  15.4400816  23.1430092  52.4629250  14.7799110
  23.9310551  52.4099236  16.0710945  44.6207581  43.7275887  59.6929321
  44.5857849  43.2231445  58.8801918  45.3631401  44.3202477  59.5752258
  72.7545700   7.7622447  70.4457245  73.0629654   8.3749084  71.1133804
  72.9022217   8.2172422  69.6166229  73.5866699  63.7252693  44.1471977
  73.0557480  63.5875206  43.3627396  73.3359756  63.0120888  44.7343559
  81.3665848  18.3403263  76.6045685  80.5457535  17.8714066  76.4542923
  81.1139145  19.2632122  76.6305161  72.0647202  56.8720894   4.3602352
  71.7450562  56.3748436   3.6073761  71.4702454  56.6367607   5.0725946
   2.6329567   1.6380450  35.7560387   3.1531034   1.5079721  36.5489845
   2.7058682   0.8090439  35.2831001  77.1090317  53.3872375  11.1950769
  77.8890152  53.9307518  11.3066273  77.0063095  52.9403915  12.0353193
  65.0414047  17.7929134  23.0343895  64.3603210  17.8834515  22.3679333
  64.9234467  16.9075890  23.3786583  76.1838760   2.9720857  78.2456055
  75.5486832   2.2967937  78.0074158  75.9387741   3.7295718  77.7142181
  58.2378578  12.2919798  11.0426636  58.1241341  13.2172985  10.8256760
  57.3506279  11.9746656  11.2110863   8.0699673   0.9208477  16.2116241
   8.3172894   0.4035760  15.4451427   8.8985481   1.1039559  16.6545181
  73.6366653  34.8381500  20.9960632  72.7570190  34.9311295  21.3618565
  73.5556641  34.1330986  20.3537426   8.7202168  41.9358139  30.0671844
   8.4475842  41.7323761  30.9619007   9.4083014  42.5932198  30.1700935
  78.7564774  64.9238510  42.9078903  79.2904587  64.2012329  43.2378960
  79.3604965  65.6647415  42.8581505  76.5592651  53.5617104  42.0047798
  76.6501541  54.0836143  42.8020172  75.7837219  53.0222282  42.1587906
  64.9825058  52.5962181  34.8231430  64.5402756  53.3432083  35.2264633
  64.2850876  52.1193581  34.3732033  20.6487732  58.2996216  38.9293365
  20.6738167  57.4390068  39.3476028  20.3556499  58.1230240  38.0354004
  30.0688896   1.9282732   2.1343255  29.2514286   2.2041159   1.7197191
  30.1160870   2.4455140   2.9383569   4.2061243  16.9824409  15.7481794
   3.6208563  16.2427597  15.5851984   4.7811193  17.0059605  14.9832878
  61.1279068  56.9015388   5.3197742  61.6011238  56.1599770   4.9424367
  61.7446213  57.6316109   5.2659931  60.7166595  63.1235542  88.3029938
  60.3823128  62.5850563  89.0202560  60.9995956  62.4923477  87.6413651
  57.0059166  70.2122040  86.2704620  56.2942886  69.8836136  86.8198700
  56.6034546  70.9043045  85.7458191  43.0200500  68.1871567  31.6912975
  43.4408722  67.8545151  32.4840698  43.4877357  68.9987869  31.4944057
  81.3426514  21.7835979  62.9560699  80.8481598  22.4813843  62.5261765
  82.0620422  22.2361412  63.3964272  73.9755554  47.4802361  64.6504517
  73.0974274  47.7871094  64.8761826  74.5234451  48.2634659  64.7014160
  16.5413418   5.2983370  22.5735378  16.3576355   5.5073056  21.6576691
  15.7261372   4.9179125  22.9005737  58.6588173  29.2025051  84.4075317
  59.4757957  29.4754562  83.9900742  58.9167595  28.9435425  85.2922058
  66.4076767  11.9444284  77.7427750  65.4676437  11.8101130  77.8632812
  66.7510605  12.0446615  78.6306229  38.9653740  33.4866714  25.9896526
  38.2974739  34.0774727  26.3376427  39.7356224  34.0415802  25.8670807
  68.7634354  27.5530739  35.3979836  69.3664169  28.2812500  35.5476418
  68.0692596  27.9248943  34.8538246   3.7073967   1.6821940  26.7340584
   3.9679472   1.3773422  27.6032009   4.4607825   2.1820498  26.4197559
   9.4877281  58.2407532  38.0862808   8.9838333  57.4272270  38.0639496
   9.0042562  58.8377037  37.5151978  31.7037888  38.1845551  17.6185856
  32.2236557  37.8489494  18.3488884  30.9461098  37.6011734  17.5759277
   8.7621927  14.5572567  19.1434879   7.8566456  14.5452757  19.4534454
   8.9935236  15.4856634  19.1155643  63.3505707   6.2626672  85.2010193
  63.9253349   6.4411988  85.9453354  63.5434799   6.9618068  84.5763397
  32.0837135  64.6675644  56.0710831  32.1262741  65.1104813  56.9185791
  31.1859131  64.8099670  55.7712326  56.1495743  37.8427734  54.8652267
  56.3821678  37.9770279  55.7839775  56.5599365  37.0096130  54.6335487
  50.1764145  56.5382309  80.3645477  49.6844749  57.1852646  79.8590012
  49.9774818  55.7026253  79.9421463  36.4762115  19.6503716  77.0734634
  36.3297882  18.7219696  76.8921890  37.1174583  19.9242210  76.4176865
  57.4959450  39.7868919   5.7961426  57.1077385  40.6559143   5.6945195
  57.9749489  39.8338127   6.6235394  52.1298904  68.1936646  78.2060547
  51.8834038  68.7263031  77.4498901  52.9731255  67.8104935  77.9644699
  84.2078171  57.2827873  66.8164673  85.1427536  57.1049042  66.7140579
  83.8729630  56.5306053  67.3046570  55.6145973  35.5308380  75.0712662
  56.1889114  34.7658195  75.0374756  54.7627068  35.1795425  75.3303223
   4.6355658  35.3729858  23.8502998   4.6400895  35.2454033  24.7989502
   5.5120449  35.7005386  23.6485023  20.3297939  52.5836563  15.4798117
  19.4116650  52.7129402  15.7176352  20.7964916  53.2830009  15.9373541
  65.5987778   1.0771877  34.1682625  65.2564468   1.8557931  34.6073685
  65.1068039   0.3506689  34.5508423  82.4297180  52.6140060  33.5043144
  82.7363129  53.4136620  33.9318390  81.9063721  52.9232674  32.7649231
   8.8745108  21.3258953  83.5269012   9.4663324  21.6261139  82.8370895
   9.2065411  20.4610252  83.7677078  81.8402710  17.6693058  64.5279312
  81.6422424  18.3537102  65.1671524  82.6153793  17.9895420  64.0665359
  65.2577286  55.0686836   9.0364218  65.1588745  54.2075539   8.6303253
  64.7146072  55.0261078   9.8234653  51.3389359  23.5245514  53.9646072
  50.6907768  23.4172287  54.6607437  51.9721947  22.8230724  54.1167412
  27.3945522  19.1216736   1.1863117  27.7338867  18.6896839   1.9701927
  26.9863930  18.4175415   0.6824906  63.9582443  35.7148209  62.0170631
  64.3918839  36.4758682  61.6310692  63.3128586  35.4490814  61.3620148
  70.8733444  13.6178856  55.9017448  71.1248779  14.4358110  56.3306465
  70.6147156  13.0404711  56.6200333  22.0868225  11.0000973  81.6078491
  21.8868542  10.5731783  80.7747955  21.4480438  10.6380301  82.2219391
  19.2289734  44.0379753  80.9292068  18.4752560  43.5791702  80.5582047
  18.8974895  44.4282761  81.7379150  26.0191174  30.7640152  29.3510590
  26.1501236  31.2357750  28.5285549  26.7220955  31.0761700  29.9208050
  67.7856827  69.4701385  21.1712284  67.4846649  68.7269592  21.6940117
  67.9576950  69.0999222  20.3054447   1.2006755  46.2456474  38.0464478
   1.7796752  45.5290604  38.3062401   1.7165612  47.0374908  38.1983643
  29.1704235  47.0624428  10.5852661  29.3791695  47.1681976   9.6571102
  29.2012234  46.1169777  10.7314739  46.2589378  31.8823719  34.4769707
  46.3662224  32.7161255  34.0191765  45.3433647  31.6447277  34.3303947
  23.3020725  67.0279312  19.0544052  23.5566540  67.1254730  19.9719582
  23.6139202  66.1563950  18.8106747  63.8563499  54.6472816  76.0863342
  63.5144005  55.4439926  75.6806870  64.6514969  54.9306068  76.5376740
  54.4709167  50.9111252  51.0907288  55.3449936  50.5236626  51.1365204
  54.4963989  51.6343498  51.7172470  54.1351166  60.6249390   2.4246669
  54.9989853  60.3341217   2.7168806  53.5937767  59.8361168   2.4554005
  80.7051849  59.2966843   4.2541614  80.3853836  60.0378723   3.7397652
  80.3128815  58.5291939   3.8378797  84.9123535   2.6754622  34.3887863
  84.9933777   1.7451622  34.1785278  84.0678787   2.9320753  34.0183182
  37.5003090  36.3334846  73.8954239  38.3860321  36.3696022  73.5342865
  37.0213699  37.0149536  73.4237747  50.1935883  52.1453438  52.6786118
  50.4624023  52.3216972  51.7770195  49.2838974  51.8567162  52.6052094
   7.2567029  52.3557129  17.5841713   7.2694974  53.0993538  18.1867218
   6.3393707  52.0834885  17.5591354  31.8196526  26.2920170   2.0257881
  31.7402344  25.5872250   1.3829874  31.1294250  26.1127453   2.6642861
  34.9473801  38.6520348  25.3419685  34.1640205  38.5093727  24.8107224
  35.6520767  38.7649002  24.7040844   9.8987017  13.9978409  30.7313023
  10.6887045  13.4694786  30.6174583   9.2030811  13.3585386  30.8850422
   7.0048170  33.1097260  63.0574760   6.3397541  32.7677040  62.4600296
   6.8092241  32.6937370  63.8970795  66.3894501  68.3002548  68.3651810
  66.4397125  68.4896011  69.3021164  65.6602783  68.8351746  68.0514984
  61.7779808  50.8817978  78.4339600  62.7132492  50.8632469  78.2310867
  61.3530579  51.0388489  77.5907516   5.3330712  70.1195984  79.8537445
   5.8948207  69.4848862  79.4089890   5.2471929  70.8412857  79.2308197
   6.0460215  67.8226166  11.4613791   5.7288718  68.3901062  10.7588081
   6.2269435  68.4190979  12.1878185  56.9933395  24.0928230  15.8186178
  56.3262405  24.1910210  15.1392279  56.4984322  23.8923588  16.6130447
  23.5205803   5.6427903  81.3735352  23.8619919   5.7034388  80.4813461
  22.7079792   6.1482859  81.3539047  86.2108536  30.1627140  84.9539948
  86.7804184  29.3941822  84.9884949  86.8115997  30.9074421  84.9807739
   5.0036283  70.4780807  31.3742695   4.6250062  69.8634338  30.7457123
   4.8520117  71.3403015  30.9872017  16.8616543  49.0067596  16.0764809
  16.0234718  49.3801956  16.3489246  16.9355335  48.1938820  16.5764847
  55.6841774  18.0763092  19.2197342  55.5560532  18.0559139  20.1681004
  55.2629204  18.8885326  18.9385452  71.7050781  42.9748611  72.7397461
  70.8793640  43.4262161  72.5645065  71.7307816  42.8837624  73.6922531
   2.4822152  37.1733932  10.9106550   2.6478808  37.9679298  11.4180965
   1.7218133  37.3883896  10.3704720  10.8743181  71.3357468  49.3780251
  10.5165892  71.4733582  48.5009117  10.6222181  70.4398270  49.6016617
  17.4651642  26.7973003  80.5432587  17.0277615  26.0287991  80.1767654
  16.7588444  27.4252338  80.6950684   0.5528825  55.1099243  18.5881920
   1.1796315  54.4403305  18.3142147   0.6862141  55.8295441  17.9712620
  61.8085327   0.0548924  79.0274506  61.3716164   0.3394603  78.2247314
  61.8971214   0.8533436  79.5478897  54.6245880  41.1854057  60.9645691
  54.4401817  40.3823738  61.4517746  55.0548744  41.7575798  61.5999451
  77.1966095  24.4852104  67.1889877  77.4190369  25.2666798  67.6950073
  76.2638550  24.5817032  66.9969101  66.4496994  36.7706718  31.9948311
  66.7976990  37.5822601  32.3642349  65.5458679  36.9821053  31.7611485
  55.2466278   9.6513948  66.6047668  54.3557510   9.9991951  66.5647430
  55.4962540   9.5262699  65.6892014  77.2397003  23.9222832  19.0076733
  76.3667679  24.1656418  18.6994591  77.4943085  23.1871777  18.4499760
  64.6576614  26.0811043  71.8311996  64.4093399  25.8104362  72.7151184
  63.8947906  26.5572987  71.5033340  18.5295944  27.8406601   3.1989315
  18.4949188  28.7146778   3.5876772  17.6367607  27.6783886   2.8943844
   9.2845383  50.3421364  17.7755260   8.9826345  49.4586716  17.9866562
   8.4957323  50.8028679  17.4896164  57.3167496  43.4968262  51.3361855
  56.5869942  43.8505707  50.8277016  57.2614365  42.5499039  51.2076797
  16.2099762  50.0377693  47.8557358  15.2610664  50.1471062  47.7937050
  16.4252090  49.4149933  47.1614342  12.8421135  31.9376068  64.8967819
  12.3449211  31.2491150  64.4551849  13.1576958  32.4976120  64.1875381
  29.9247837   0.1966660  76.3352966  29.5673218  -0.6102821  76.7058182
  29.1599827   0.7546012  76.1938095  27.1547432  64.4134903  28.1766586
  27.6350479  65.1620178  28.5305653  27.2420635  63.7347488  28.8459187
   8.9704618  37.6244926  45.7940979   9.5471668  38.3026466  46.1458778
   8.1870470  37.6682472  46.3423462  24.6113701   4.8315086  40.4322853
  24.3777752   5.6603308  40.0142899  25.4728832   4.9919157  40.8173752
  51.6747589  38.4514656  26.3204079  51.5482330  37.7977524  27.0080719
  50.8554077  38.9461403  26.3065147  34.6623688  20.5452251  87.9939575
  35.2340851  20.8271446  88.7080231  35.2388802  20.0618896  87.4021301
  69.8930893  37.6830482  33.7976341  69.0037689  38.0311394  33.8622627
  70.2109909  37.9939957  32.9500046  50.9693069  18.9149342  47.2394142
  51.4232407  19.5899849  46.7349510  50.9529648  19.2548733  48.1340675
  49.6941643   9.3200293  29.2030659  50.0578499  10.0088739  28.6467781
  50.0581474   9.4957476  30.0707474  53.2484055  65.6625366  63.4618187
  52.7225037  66.0991745  64.1319046  54.0951271  66.1077957  63.4940834
  78.4776535  61.2557602   7.8307586  77.9564133  60.4998932   8.1013317
  79.2713318  61.2023354   8.3631592  76.3202972  38.6368790  52.2884712
  76.0118332  39.5320244  52.4291801  76.9626007  38.4928589  52.9834023
  51.2042389  27.1836605  76.6473694  52.0108948  27.5655365  76.9933624
  50.5669899  27.2894077  77.3537445  74.7563171  64.1114502  27.1622047
  75.3251419  63.9436951  27.9135590  73.8841476  64.2195358  27.5414925
  33.1921349  63.6910133  51.5716591  32.3437309  63.3266335  51.3193321
  32.9754677  64.4427414  52.1231880  15.3795118   8.5725574   9.0035849
  14.5964489   8.2594070   8.5508375  15.0739708   8.7985506   9.8821087
  58.5480347  53.7614555  68.5298538  58.8667488  54.2482262  69.2899246
  57.9052391  53.1500435  68.8893204  83.2668457  61.6253967  36.7849197
  82.3468170  61.8888435  36.8041115  83.2752075  60.7552986  37.1837807
  65.7108536  65.4565811  72.8771591  66.5040894  65.6575241  72.3805389
  65.9637833  64.7324753  73.4498062  70.2828217  59.5045509  25.2957630
  70.8245087  59.1628876  26.0071545  69.8053741  58.7413521  24.9704933
  62.9582481  44.3742752  74.0369415  62.8897896  45.1915474  74.5305099
  62.0895309  43.9785271  74.1072464   1.1098664  70.7786102  20.9313202
   1.6243728  69.9723053  20.9686089   1.3013192  71.1451874  20.0680714
  55.5493317  13.3957644  47.9646568  56.2476883  14.0293255  48.1293716
  55.0565681  13.3638811  48.7846565  31.8532162  20.3812160  82.9255295
  31.9188328  21.2969036  83.1965332  31.0688725  20.3491573  82.3778000
  52.5577087  41.2148018  22.5302544  51.6345520  41.1620407  22.2828121
  52.6009750  41.9531097  23.1379242  76.5009995  64.4991302  24.8826637
  76.9656830  63.6822662  25.0644054  76.2432022  64.8249893  25.7449780
  11.9832535  10.4738646  77.0100327  12.7194300  10.7087345  76.4451370
  11.9731436   9.5167322  77.0047531  38.3804474  65.9347000  42.8968468
  38.9315758  65.3473892  43.4141006  37.6123238  65.4085464  42.6746292
  57.0130424  46.9116707  10.3280821  56.5107651  47.7014275  10.1274958
  56.3558922  46.2180939  10.3858099  33.2758980  17.6333599  88.6540070
  33.7732964  18.1265354  89.3063889  33.8060226  17.6858158  87.8587418
  65.2252579  42.5064240   9.0786247  64.4459610  43.0600166   9.1282930
  65.3478088  42.1846771   9.9717607  25.5943031  25.4254627  17.4108429
  25.8599815  25.0025101  16.5942898  26.4041958  25.5025482  17.9151897
  87.1816330  12.0787106  80.8162537  86.6685028  12.8662767  80.9970245
  86.7001343  11.6340103  80.1186676  78.8436737  30.0562057  56.3423996
  78.3417206  30.7559605  55.9245300  78.7869644  29.3224163  55.7303810
  77.6755676  55.5474434  52.6941681  76.7344513  55.4120979  52.5836945
  77.8129044  55.5136108  53.6408615   1.0525153  27.8528099  84.7151413
   0.7415980  27.4322605  85.5168228   1.8581930  27.3847046  84.4960709
  41.2366753  54.2781258  10.8152189  41.9786186  54.6683998  11.2772141
  41.4997597  53.3704185  10.6632729  60.4039307  58.3658752  66.8160706
  60.2377434  59.1337585  67.3628540  60.9096069  57.7775154  67.3767471
  11.6647406  36.0636292  17.3843460  12.2023067  35.5416908  16.7886658
  11.9542913  36.9646606  17.2410355  43.0199280  42.8494148  20.1521072
  43.4244461  43.7131386  20.2331982  43.1111145  42.6282921  19.2252731
  67.4701538  17.5229435  77.1520233  67.7581482  16.7850056  76.6146851
  66.8764496  17.1341782  77.7943726   0.5224690  57.0969238  58.6512527
   0.8323373  57.7981339  58.0780907  -0.1802531  56.6758385  58.1561737
   1.2192814  53.2270927  29.2144108   0.5013728  53.3597946  29.8334656
   1.3242892  54.0755730  28.7839603   8.3079557  35.8848114  14.9271336
   7.6665196  35.2713280  15.2855005   8.0664310  36.7310257  15.3037233
  80.3347931  53.3342476  41.5990944  80.8588638  53.6320190  40.8555069
  80.3161850  52.3811455  41.5126228  45.3208847  50.4876823  84.0473785
  45.1121483  51.1271858  84.7283325  44.7001534  49.7733803  84.1912537
  17.1077404   0.9977823  77.8117142  17.7068939   0.6166984  77.1698227
  16.2352657   0.8153194  77.4628143  38.2371902  35.6379662  10.9139442
  39.0468292  35.6578484  11.4241610  38.2830658  36.4182320  10.3613958
  74.4545746  37.6743546  61.6124954  73.6813660  37.6191139  61.0509529
  75.1883621  37.4794769  61.0295601   2.0125823   5.1404872  26.8753433
   2.7127957   5.2834835  26.2385654   1.6552472   6.0133767  27.0384617
  48.3483772  21.0740108  88.9641113  48.9747009  21.2500324  89.6662216
  48.1214790  20.1503220  89.0715561   8.9992533  29.0346680  18.5086269
   9.5197105  29.8367310  18.5538998   8.4355850  29.1577034  17.7448387
   0.3487370  25.5379562  80.1056671   1.0168211  26.2158909  80.0041733
  -0.4802895  26.0164356  80.1034851  84.6402130  42.1406097  54.5525742
  85.3558578  41.6503601  54.9572258  84.5544739  41.7611961  53.6779709
  16.5571384  30.6416111  84.5349350  15.7619085  31.0139637  84.1538925
  16.4923515  29.7036610  84.3552551  74.6264267   0.3511626  80.3490829
  74.6825714   0.2450636  79.3994370  75.4580383   0.7567521  80.5943451
  81.6949768  42.8038139  60.7018700  81.2317352  42.3450127  60.0010567
  82.6206818  42.6311150  60.5301704  57.2352791  38.7768974  18.8010807
  57.2428703  38.3098412  19.6365662  58.1581764  38.8452797  18.5565186
  56.1980019  40.4515953  82.0095367  56.3238602  40.0626678  81.1440201
  55.2479668  40.5147476  82.1078949   9.0216427   1.9162060   8.1604700
   8.0918055   1.8496189   7.9432144   9.0571899   1.7757353   9.1066399
  49.4470406  41.8605270  70.3240509  49.6836853  42.7102127  69.9522018
  50.2698326  41.5115395  70.6667633  54.0232811  38.8531876  71.1768188
  54.8608742  39.3164291  71.1682434  53.7294502  38.9064064  72.0862503
  62.1885071  49.6493988  57.9940453  61.6832466  49.3398781  58.7458076
  63.0861702  49.7156601  58.3196831  20.1488876  -0.0090406  78.9914551
  20.5377026  -0.2321382  79.8371964  20.0992851   0.9468655  78.9953384
  63.9920235  42.0599518  65.1890182  64.6652527  42.1122589  65.8674393
  64.4414902  41.6795006  64.4343872   2.6338663   5.2024798  64.9297409
   3.3783212   4.8772368  64.4235458   1.8769581   5.0590611  64.3616257
  15.6579752  49.8253212  21.2685528  15.4025316  49.6301956  22.1701660
  14.8346033  49.8226013  20.7804108  67.4417648  22.4423199   0.5445985
  68.0457535  22.0087109  -0.0582409  66.5925140  22.0394058   0.3638413
   9.7849579  63.1088715  83.1720810   9.1162214  62.5237045  82.8162689
   9.8711433  63.8008652  82.5163727  72.7090530  35.5546112  31.1228161
  72.8710938  34.6889954  30.7477341  72.3281631  35.3756332  31.9825363
  55.5507317  55.0844498  31.9321442  56.4841957  54.8737411  31.9102135
  55.3190269  55.2412910  31.0167503  59.1249542  11.8756647   8.3699465
  58.9038811  11.7957582   9.2978325  58.3627281  12.3017950   7.9779587
  22.6314182   7.7723031  35.5710640  23.0013199   8.3864202  36.2053070
  21.6895523   7.7911367  35.7406693  59.3001366  28.2757568  21.3264885
  59.1830254  28.6023769  22.2185841  59.1414795  27.3341713  21.3934097
  31.7631092   3.7416923   9.7999868  32.5908508   3.3045137   9.6001110
  31.6954842   4.4371610   9.1457825  12.0513840  68.2309113  15.3217077
  11.4238882  68.8522949  14.9524269  11.9000340  67.4202881  14.8356953
  31.6923962  60.7406387  70.8712234  31.1429119  60.2875938  70.2316513
  31.2793407  60.5566559  71.7148895  53.3969574  10.8479557  61.4019394
  54.0231590  11.1051493  62.0786667  53.0202713  11.6737213  61.0978851
  23.5168018  38.8388519  20.2725983  24.1036015  39.2137413  20.9293766
  23.3434639  39.5595779  19.6670074  59.8863449  71.1310425  40.8699875
  59.9711990  70.4785461  40.1748009  59.0051613  70.9962921  41.2186852
  14.9040136  16.8960133  76.6582870  14.6742887  17.5896587  76.0399780
  14.2970858  16.1840477  76.4558640  16.4982147  39.2063560   2.0582435
  16.0021381  38.5093842   2.4876270  16.9131298  39.6829262   2.7772410
  61.8216209  51.7220039  28.0267963  62.7349167  51.7236862  28.3133640
  61.4743500  50.8862305  28.3384361   7.3267236  53.8321304  73.4362946
   6.5131931  53.5013123  73.8170319   7.1885819  53.7766266  72.4907455
  30.6218967  37.3635101  14.4835310  31.4933510  37.3860016  14.8788719
  30.7756634  37.0858955  13.5804701  57.2820663  37.4496117  81.2205276
  58.0770302  37.1802368  80.7604218  56.9160004  38.1477737  80.6775742
  35.1107254  33.1890526   1.7727190  35.4075584  32.6223640   1.0606904
  34.2629776  32.8264961   2.0298388   6.6272230  35.5589638  32.3440704
   5.8370004  35.8398094  32.8054886   7.0098767  36.3698463  32.0089912
  62.6709480  27.3361092  70.4759216  62.3605537  26.4928303  70.1461182
  63.4732323  27.5057716  69.9821777  36.1468010  10.0464478  81.3449860
  35.5065269  10.5696783  80.8627930  36.5655632   9.5044794  80.6763000
  44.4781456  18.4867725  84.1779251  45.2845039  18.3545227  84.6764526
  43.9468040  19.0607128  84.7297363  54.9294357  35.1899338   3.2182951
  54.7830582  35.1495171   4.1633730  55.7311363  34.6860313   3.0783348
   6.7876687   6.3587546  71.1156387   7.1770315   7.0187092  70.5419769
   7.5209866   5.7972760  71.3670731  29.3186703  36.5990372  17.3552914
  29.2641754  36.8847847  16.4433651  28.5629635  37.0056953  17.7792778
   8.2681828  40.6104546  82.8973083   7.4594836  41.1225166  82.8917770
   8.5164938  40.5648613  83.8206177  28.1370926  24.9984455  81.5750198
  27.1845150  25.0758896  81.5217896  28.4634094  25.5797253  80.8880997
  58.2397995   1.4601576   5.5270462  59.0568619   1.0571350   5.8206706
  57.5667992   0.8089775   5.7251992  71.1648254  16.1281052  54.4698677
  72.0921860  16.3295898  54.5949326  70.7333374  16.4981861  55.2399940
  53.4134827  47.9160652  12.2789459  53.7584534  48.7927399  12.4482698
  53.9510689  47.3383789  12.8207102  76.4879837  50.4941139   7.7216048
  77.1386108  51.0514641   8.1485567  75.8170395  51.1028099   7.4124789
   2.1373007  54.1850777  66.6518250   2.7831390  54.3382072  65.9621353
   2.6346149  54.2590179  67.4663467  54.6124992  45.6764145  60.4519043
  55.3568153  45.9730988  60.9755478  54.2338486  46.4805756  60.0966835
  83.6342545  29.3043499  29.7771130  83.9730911  29.9691677  30.3766441
  83.8247223  29.6491470  28.9047203   4.5646601  10.3359699   5.4655099
   5.1973615  10.7386637   4.8707342   5.0455403   9.6172409   5.8758941
  24.2760963   8.7360640  81.9316177  23.3959160   8.3748608  81.8265152
  24.4469147   9.1939955  81.1085968  22.0490551  58.0780334  55.9654770
  22.5812073  58.8062897  55.6450233  21.8427372  57.5690269  55.1815300
  22.5000439  47.6212006   6.7973547  22.1742210  47.5056839   5.9047594
  23.1956120  48.2737160   6.7158523  16.1213646  61.3747444  55.9217491
  16.8496914  61.0980339  56.4778099  16.4292679  62.1807289  55.5072403
  50.8093719  53.7071114  46.3265915  51.4039536  53.9399757  47.0396690
  49.9352646  53.8721962  46.6800270  48.6029510  32.2388878  80.1951599
  48.0779800  31.4800816  79.9404984  47.9605865  32.8933372  80.4695663
   7.2579474   3.6448274  71.9058304   7.0181017   2.8901205  71.3681259
   7.3580332   3.2880085  72.7883759   3.3514500  49.9085655  50.9375839
   3.1196768  49.2469139  51.5892982   3.6539960  49.4048233  50.1819763
   3.0779834  61.1797905  87.1618423   3.5157506  60.4604607  86.7067032
   2.2422123  60.8099060  87.4462738  77.4778519  10.8008842  53.8094635
  76.9703674  10.2254753  53.2371025  77.0657654  11.6593609  53.7123451
  18.4427738   1.1102126   0.5831328  18.6189747   1.7932028   1.2302105
  18.8818455   0.3332908   0.9293112  54.3470573  57.1562386   6.0032439
  53.4112968  57.3567924   5.9842601  54.5865669  57.0435410   5.0833702
  42.0587425  51.1491241  21.8278923  42.4931831  50.5910034  21.1829147
  41.4198570  50.5747757  22.2500134  71.3645554  69.1006775  18.0611687
  71.0026627  69.7422943  18.6723900  72.1383896  68.7555923  18.5065098
  27.9693241  59.6190033  59.0479012  27.3051300  59.5206108  59.7301025
  28.3500042  60.4827080  59.2070465  63.9858704  63.9311371  36.8455505
  63.1891747  63.4326744  37.0273094  64.2369537  64.2987442  37.6929321
  25.9888802  41.6157494  78.9508362  25.5332241  41.2558098  79.7117920
  25.4315948  42.3362579  78.6566696  61.0149994  51.4480934   1.0776335
  60.9971390  52.4049492   1.0591130  60.6985703  51.1858559   0.2131466
  48.4414062  40.8323746  35.2304230  48.5272865  41.0438042  34.3008232
  48.4562225  39.8757744  35.2608490   2.9906812  47.7080231  52.5347710
   3.7343659  47.2845268  52.1060371   2.5266402  46.9932404  52.9706383
  76.2780838  55.1809120  14.2582092  76.9442978  54.9165573  14.8926382
  76.7743759  55.5675163  13.5367765  75.9626617  61.1640205  14.1162348
  76.8197708  61.4099121  13.7681923  76.1595917  60.5677338  14.8386545
  55.1806602  19.2228317  57.6049500  55.1377983  18.8012333  56.7466660
  54.5516281  18.7397041  58.1407967   7.6947289  53.5872116  31.2362480
   7.2613621  53.5345001  30.3843994   7.0364194  53.2795792  31.8593235
  56.3371620  62.7318077  34.2671700  56.0433769  62.0201416  34.8358994
  56.0401230  63.5282593  34.7072449  47.6941566  53.9749107   0.5196601
  48.4051666  53.4017792   0.2329303  47.7914047  54.7629814  -0.0148628
  73.4049149  29.6250610  35.7807083  73.6024857  29.8320942  34.8672867
  73.7066116  28.7235737  35.8926277  31.6779480  50.1118889  62.2375107
  32.2052345  50.7275124  62.7466354  31.3774586  50.6200027  61.4840126
  32.5026436  36.5867729  19.7542667  32.3453369  36.0393944  18.9849396
  33.4552956  36.6682930  19.7994728  60.7242661  37.2528915  53.3143806
  61.0084839  38.0649185  52.8947792  59.7955933  37.3916473  53.5002441
   9.8395023  29.4131279  37.2922516   9.1174288  29.6998482  37.8513870
   9.8231449  30.0182724  36.5507889   9.2678261  52.6950111  34.2066040
   9.1904306  53.5460091  33.7752724   8.3643379  52.3972092  34.3126907
  67.4277344  59.1869011  10.7680235  67.0314178  59.5837822  11.5436850
  67.7481918  58.3373108  11.0708990  68.4509659  57.7055893  28.8247490
  67.8918915  57.1330986  29.3500271  68.5136566  57.2665329  27.9764977
  78.9617386  15.0614681  68.9433823  79.2933273  14.2717991  68.5159531
  79.7384720  15.6038361  69.0803146  75.7265396  44.7811165  27.8102493
  76.5227051  45.1494751  28.1932240  75.5224838  44.0260696  28.3620605
  10.5876703  42.9296532  32.1960869  11.4238653  42.4672165  32.1398544
   9.9395885  42.2375679  32.3273964  23.9566746  44.7402229  59.5217934
  24.3631687  45.2194710  60.2438126  23.6019497  43.9497452  59.9286652
  28.7194195   2.8463230  86.9134903  29.3681755   3.3810987  87.3710556
  28.8338203   3.0692704  85.9896698  38.5386734  49.4111061  25.4801102
  37.8453827  48.7858810  25.2687435  38.6096458  49.3765945  26.4340515
  53.3375511   6.3712678  49.3418999  52.9568520   7.2174034  49.1066208
  52.9943962   5.7637210  48.6866417  46.1901627  37.6583672  40.2473106
  46.5734520  38.1026840  41.0035553  45.3465919  37.3338013  40.5623970
  32.8803368   8.2583418  13.9237843  32.8948364   9.1716099  14.2100735
  33.3692169   8.2575197  13.1008463  22.2057438  50.9351349  82.2705765
  22.0136070  50.0151024  82.4518433  21.3482170  51.3346977  82.1248779
   3.3244059  45.2757225  48.0432243   3.2169120  45.5057220  48.9661407
   2.5898678  45.7031212  47.6027489  62.3579521  15.1640663  37.1381683
  62.8567238  14.3940506  36.8651581  62.4117737  15.1578341  38.0938301
  12.6926861  57.5147705   7.0292015  11.7746181  57.7817421   6.9832606
  12.7873096  56.8620415   6.3355012  55.4759598  45.7065659  50.0783424
  56.3732491  45.7311058  49.7459221  55.5451469  46.0252037  50.9782944
  41.0112038  14.0536776   4.8558555  41.7553749  13.5035639   4.6112761
  41.1783218  14.8898468   4.4209709  62.2759743  63.5621490  25.0526199
  61.5170670  63.2715034  25.5584030  62.8949509  63.8792381  25.7103081
  60.9462357  17.7853985  80.7453308  60.1214218  18.2489891  80.8902359
  61.6225815  18.4409676  80.9156799  80.6990738  62.7084808  49.3320122
  79.9366226  62.3239212  48.8995552  80.7932739  63.5714340  48.9286880
  37.2744980  71.7688904  77.6154709  36.5991592  71.1034088  77.4839706
  37.2924385  71.9080887  78.5623245  70.3106003  42.6017647  85.7328186
  70.4516678  43.0527382  84.9003830  69.5206604  43.0050316  86.0928345
  41.0082550  35.3073044  25.8844318  41.3406410  36.1850967  26.0721226
  41.0414276  35.2375679  24.9303513  52.0947304  59.4170227  53.8297997
  51.3491631  60.0069580  53.7187195  52.8294296  59.8814278  53.4288254
  69.1517487  71.3028870  74.0765381  69.7423935  71.0662689  74.7916489
  69.5198288  72.1110687  73.7193451  56.0173569  66.7866364  63.2208977
  56.0997124  67.4480591  63.9078979  55.8700027  67.2900238  62.4202003
  73.0887299  62.9567719   2.3633139  72.7028885  63.5555191   1.7238928
  72.3474350  62.6597404   2.8910336  55.9400520   0.2753298  20.1040344
  56.1366730   1.0695055  20.6008816  55.5289879  -0.3097095  20.7404175
  47.6102448   6.1575193  37.9705925  48.0072784   5.3072772  37.7816963
  46.8021317   6.1637654  37.4576149  77.3574982  12.5366926  50.3312378
  76.8818054  12.2594471  49.5482407  77.0099182  13.4067783  50.5271225
  51.4008598  47.0170479  76.4621277  50.9221916  47.3536835  75.7046432
  50.7244186  46.8522835  77.1190186  53.8668900  56.7613678  49.6007004
  54.8002586  56.9588470  49.6785278  53.4454460  57.3429985  50.2334137
  70.7435532  44.8662453  16.9846478  70.3911591  45.2951813  17.7644348
  71.4824982  44.3508911  17.3080597  74.3409805  35.8699493  58.4945374
  74.2625656  35.2603340  57.7607460  74.9242249  35.4281425  59.1116791
  48.0413971  27.4032688   8.7762251  48.3656578  28.2596321   9.0550261
  48.2437401  27.3632469   7.8415132  51.8239441  53.6749382  33.3022537
  52.7346344  53.8762550  33.5175438  51.8712807  53.2228470  32.4598732
   4.2781177   8.3438606  82.4625015   3.7020326   8.2853394  81.7003098
   3.6829488   8.3582602  83.2120361  64.3497925  57.5582428  12.7411709
  64.6326065  58.0782814  11.9889708  63.7043381  58.1090927  13.1841078
  21.0055523  34.4071655  12.1884232  20.8666382  33.4740295  12.3502684
  20.1437340  34.7370377  11.9340925  31.3119011  30.2648773   9.2012091
  30.6386967  29.9480457   9.8034086  32.1185379  30.2538128   9.7164259
  34.7441292   8.5241528  88.0935516  34.0697556   8.6622715  88.7586594
  35.3483696   9.2574615  88.2092285  83.1083527  26.8319874   7.4798012
  82.5755997  27.6207237   7.3782935  82.9257660  26.3168583   6.6939669
  75.2369690  15.8223438  29.2756863  74.6485977  15.2086763  29.7155380
  75.5878448  15.3283863  28.5346565  75.2436829  16.2220249  70.5021896
  75.9570160  16.8413696  70.3479309  75.3519135  15.5576973  69.8216095
  82.0688934  57.5210762  78.3018951  81.3079300  56.9495277  78.4043503
  82.7769928  57.0600433  78.7516479  40.2174110  47.7136993  38.4433899
  39.2842331  47.9060974  38.3517609  40.3768082  47.7444687  39.3867226
  82.9858856  53.9934311  30.2327042  83.1472473  53.0905609  30.5066147
  83.4073105  54.5270576  30.9064102  47.2100449  67.3920288  76.1617737
  47.7509232  67.5834274  76.9279633  47.1260796  66.4385223  76.1600113
  78.9986877  62.4415550  21.5214787  79.3558350  62.4524689  20.6334705
  78.1828690  62.9381409  21.4576435  50.9365234  25.9346581  30.8130722
  50.8806076  26.3724823  29.9637108  51.7550545  26.2533913  31.1934052
   4.0022278  29.3657799   8.5598822   4.2801619  28.9611607   9.3816290
   4.7390871  29.2291565   7.9643955   6.3287764  15.5597506  28.0061436
   5.6758008  15.6698599  27.3149624   6.2937279  16.3781605  28.5013275
  22.7519798  12.1417961  18.6610565  23.2720165  11.4604273  18.2349949
  23.3967743  12.7814980  18.9631367   7.2785411  24.5036182  27.8994484
   7.2681937  25.3805523  28.2829990   6.5048761  24.4793415  27.3363457
  55.9481277   5.5306196  50.1345940  56.4445610   6.3435860  50.0404053
  55.0711098   5.7475204  49.8183250  42.5217819  51.4020538  66.3861542
  42.0080566  50.6060638  66.5229721  42.3804512  51.6230583  65.4655991
  83.5364609  10.7648897  34.5384979  83.6643448  11.0989857  33.6506615
  84.2852173  10.1874189  34.6872673   7.8162260  12.5704584  71.9502106
   8.2074356  13.4341993  71.8192978   6.9175992  12.7535944  72.2243652
  61.7977295  64.5928955  78.9180222  61.6905174  63.6445122  78.8451309
  60.9454193  64.9501419  78.6686707  33.9756508   6.6595793   7.1853747
  34.3747826   5.7897182   7.1690154  33.4056625   6.6760607   6.4165635
   5.0949650  52.4751549  74.1273956   5.4914956  51.6712303  74.4631042
   4.3135118  52.5997772  74.6659393  80.6737518  68.9130402  49.6796646
  79.7604523  68.7862320  49.4226685  81.1776657  68.4550858  49.0069237
  42.7547073  45.6783791  54.6368637  42.5429573  44.7824669  54.3746834
  42.5858040  45.6985397  55.5788269   3.2439539  61.4259567  54.6739655
   2.5120606  61.4172935  54.0571251   2.9055011  61.8883018  55.4407234
  53.9589043  62.1611862  37.5722389  53.4591408  62.7410507  36.9975815
  53.5138702  62.2200737  38.4176445   2.5301189  31.2559853  29.3816051
   1.6676741  31.3610744  28.9798870   2.3842990  31.4313412  30.3112373
   7.5477505  52.4402924  38.1607666   6.7566805  51.9024086  38.1272545
   8.2640696  51.8220177  38.0163460  67.7907562  29.9642086  69.7305374
  67.2078094  29.3691978  70.2021027  68.1517487  30.5340538  70.4096451
  47.0427856  49.6065598  50.4628105  46.5768433  49.4266243  49.6462631
  46.5257835  50.2909126  50.8877869  11.5052605   1.9543509  50.4656258
  11.2315388   1.0478142  50.3259888  11.9911280   2.1826181  49.6731262
  59.5869675  37.3910484  13.8801165  58.6782722  37.0908432  13.8606215
  59.8495178  37.4197617  12.9600744  18.1875515  21.0081425   6.8246398
  18.4029026  21.0496082   7.7563777  18.6322861  21.7645340   6.4421287
  61.0381203  66.8289185  68.6935120  60.6117401  65.9756927  68.7737427
  61.6681252  66.7158585  67.9817963  55.4182625   8.9766836  31.8402767
  54.5047340   9.2333670  31.9660206  55.4921532   8.1304016  32.2813873
  82.3754044  49.8163452   8.7744999  82.1467361  49.7875175   7.8454623
  82.5478287  50.7413635   8.9501324  57.0628929  46.1038246  61.5736923
  57.9341774  46.2559052  61.2076797  57.0519447  46.6116409  62.3850098
  84.1864777  42.5146408   7.1565328  83.2724762  42.7949409   7.2041645
  84.3135986  42.2668648   6.2407393  64.5798035  12.5751429  68.3886642
  63.9550247  13.2468472  68.1153641  65.4377365  12.9802876  68.2619858
  22.5313587  53.9766731  58.6231995  22.2586594  54.2459908  57.7460823
  23.0161724  54.7281075  58.9645729  54.8342857   0.1619552  58.4549599
  54.9339523  -0.0435427  57.5254097  55.1608353   1.0578392  58.5385551
  63.5970154  22.9013767  71.7392197  63.3738213  23.1289310  72.6417847
  63.4219055  21.9622803  71.6786728  16.1584873  33.6008759  14.9729080
  16.6532059  33.7887154  15.7705307  15.4213705  34.2109642  14.9989939
  20.3799648  19.9453526  80.4967422  19.9590816  20.1465092  79.6609039
  19.8535404  20.4093285  81.1477661  21.5123310  31.6364269  11.7160311
  21.5959644  30.7371483  12.0331020  22.4145947  31.9395924  11.6148214
  51.4366493  35.9199104  19.6064873  52.3789177  35.7601929  19.5531216
  51.2310524  35.8314400  20.5371513  77.1081085  54.7317162  25.8586655
  76.2074509  54.6391907  26.1692905  77.1217422  55.5783730  25.4123249
  16.3455868  33.5604172   7.1324644  16.8702126  33.3527565   7.9056888
  15.4630194  33.2643280   7.3552608  47.9590797  35.1234207  43.4052582
  48.2135544  35.2884064  44.3131409  47.9874802  34.1706352  43.3179207
  18.5651512  69.2218628  63.8400726  19.3628788  69.7462845  63.7704620
  18.0867214  69.6097183  64.5728073  40.5063591  51.1016846  39.9745293
  41.3387566  51.4087296  39.6152687  40.6844521  50.2053261  40.2592354
  38.7763557  70.3483963  50.9396095  38.6017113  69.8661575  50.1314201
  39.5621452  69.9366837  51.2991409  73.8850708  50.2534981  14.7520561
  73.5864029  50.5387344  13.8885345  73.8420258  51.0420723  15.2929173
  74.5638046  68.8067322  19.3966255  75.2493744  68.8734207  18.7319641
  74.9123840  69.2848053  20.1490688  32.3361320   9.1020746   8.0442924
  32.6893692   8.2129049   8.0731592  32.6934471   9.4757071   7.2387133
  57.7229691   5.7749758  82.4009171  58.0297546   5.4968653  81.5379181
  58.0242081   5.0876784  82.9951477  79.1252060  38.9901695  13.7432470
  78.8151321  38.7263641  14.6095562  78.7069550  38.3744621  13.1414108
  16.6730232  28.2076454  12.9449329  16.1328640  28.5011559  13.6786289
  16.3868103  28.7454147  12.2066116  76.7273483  71.7222672  62.9169579
  76.0762405  72.0806046  62.3137360  77.2593002  71.1385498  62.3760872
  32.7969131  71.3695679  56.8759384  33.4576035  72.0077515  56.6067848
  32.4294853  71.0441360  56.0541573  84.3141098  29.8670597   2.1713905
  85.0272369  29.9628792   2.8026578  84.4208832  30.6081848   1.5750974
  25.0637798  65.1637878  71.1795197  25.1447659  64.3326874  71.6474304
  24.3660069  65.6305542  71.6393814  64.4948349  45.9610138  42.5972137
  65.2663498  46.3658791  42.2008858  63.7582169  46.4757233  42.2675209
   7.5130029  28.0248947  79.5650101   7.7495685  27.0974522  79.5540771
   8.2149134  28.4452744  80.0618362  53.7132835  68.4105530  54.9531403
  53.1953239  69.1909103  55.1506119  54.6138916  68.6630707  55.1565361
  66.5224915  16.1192055   9.8024483  66.8956375  15.3268728  10.1887236
  66.2718124  15.8584490   8.9162207  13.5895014  69.7479553  30.4581680
  13.6770926  70.4659805  31.0850658  13.8193655  68.9644699  30.9577141
  23.5087337  63.2589836  44.5641136  24.1164093  62.5194206  44.5669861
  22.8610268  63.0341835  43.8961525  48.2406998  65.3772507  20.6925373
  48.4795265  64.6642303  20.1002579  47.3388252  65.5934601  20.4556618
  34.5102615  31.4761047  14.1674957  35.3716278  31.8035660  13.9085541
  33.9039001  31.8801212  13.5467463  28.9747925  69.7089233  66.5927734
  28.7542152  69.3410797  67.4485016  28.3117676  69.3532486  66.0010605
  37.3098145  49.9081078  10.1275702  36.8326492  50.0920601  10.9367113
  37.1298409  50.6625214   9.5665874  77.2005920  53.6388512  81.2550125
  77.0641556  53.3876953  80.3414841  76.4044571  54.1132660  81.4944458
  64.8772278  38.6363754   3.9320240  64.5645828  38.6506081   4.8366141
  64.1836700  38.1904068   3.4458933  86.3354263  50.8975563  68.4798431
  86.8301163  51.0003319  67.6668472  86.7278137  51.5310211  69.0806732
  28.5757618  56.4614296  41.3380356  29.0029545  57.2619247  41.6428986
  29.1629734  56.1181488  40.6645546  74.6218185  28.7845421  66.5661926
  75.1496429  28.7044334  65.7717056  73.7266617  28.9020405  66.2482071
  80.5020370  54.5041161  31.6149616  80.0814285  53.9286385  30.9760990
  81.1298447  55.0130501  31.1020527  73.0397949   5.5252514  57.6489449
  73.9286804   5.7705326  57.9057655  72.7246170   4.9788909  58.3689346
  63.8957214  34.1576080   9.6992006  64.4711838  33.8534050  10.4010067
  63.0237999  33.8594818   9.9582539  68.0542374  33.1769829  75.2411194
  67.3494415  32.7607536  74.7448883  68.5173035  33.7121086  74.5965729
  30.5922985  50.0040054  74.8893814  30.9183731  50.6975937  75.4628296
  31.3798447  49.6295395  74.4946899  51.1293755  47.0692215  21.9499626
  50.7816658  46.1813927  21.8657360  50.3592529  47.6346321  21.8911972
  80.5787277  69.8038330  13.2215700  80.7578201  69.3215408  12.4143829
  80.6901169  70.7235336  12.9807873  72.8417435  37.9767380  41.3574371
  71.9896011  37.6797180  41.0382729  73.3262024  38.2097588  40.5654526
   5.4639902  56.9349480  38.8246384   4.6998129  57.0619202  39.3869057
   5.2879767  56.1152306  38.3627853  26.2317047  42.9248772  82.5918427
  26.9505234  42.4793396  82.1434784  25.9238148  43.5765686  81.9619751
   1.4756087  60.4356537   7.8571429   2.0997183  59.7280655   8.0185061
   0.6254625  60.0631561   8.0910873  33.0701790  65.5617676  39.9648399
  33.3664513  65.4598160  39.0603714  33.7714539  66.0531235  40.3926430
  47.5594330  68.7794266   5.3806796  46.8686409  68.7366028   4.7194667
  48.0089874  67.9371338   5.3122916  80.9279327  15.8085623  86.7376480
  80.4902496  15.0161858  87.0487823  80.4840622  16.0206623  85.9165421
  25.3611851  66.4947968  66.5852737  26.0451698  65.8273087  66.6386948
  24.5975246  66.0285187  66.2452240  45.4232674  28.2909164  73.3413544
  45.5640221  28.1749058  72.4016953  44.4722137  28.3426800  73.4364853
  72.1306458   5.9989047  85.1578598  72.8594360   6.4872999  84.7750320
  72.4378662   5.7555752  86.0311508  72.5025330  43.3560829  13.2861958
  73.1722107  43.6819534  12.6848907  71.7349167  43.2099228  12.7333546
  51.3956528  66.3442459  81.2991028  51.3081551  67.2791443  81.1132278
  50.7658081  65.9236908  80.7137299   0.1282224  14.8182926  31.2496624
   0.6619594  14.0242424  31.2786770   0.5412932  15.4077272  31.8806705
  37.5387268  32.2194214  23.6830311  38.0139503  31.8772297  22.9258652
  38.1691551  32.1743050  24.4018879   7.0118394  52.3930588   9.2519865
   7.9278545  52.5709076   9.4653349   6.8026714  53.0161171   8.5560856
   3.9754493   4.3379302  28.5882568   4.1907368   3.5767372  28.0493069
   3.0921600   4.5838904  28.3134212  41.3091240  43.4978447  41.2726860
  41.5634079  42.5995140  41.0615540  41.9774170  43.7973557  41.8890572
   3.1586251  14.5390711  50.0839195   3.4005592  15.3689184  49.6727600
   2.5865462  14.1132498  49.4454575   9.0061703  59.4399338  86.1918640
   8.7839928  59.3015327  85.2711563   9.7613888  58.8718452  86.3440247
   5.9719458  54.0897980  24.4256210   6.7077436  54.5293808  23.9994755
   6.1242623  53.1584015  24.2658348  48.1916199  59.1086693   4.8965483
  48.2496414  58.3389893   4.3304615  49.1021461  59.3467789   5.0711255
  75.7632141  15.5087976  64.9523010  76.3628922  15.4979420  65.6982956
  76.3331299  15.4448090  64.1859207  46.0578194  36.7550583  88.3286057
  45.8042107  35.9923897  88.8484573  45.4148979  36.7865562  87.6201630
  28.6385574  40.2474670  56.3155441  29.1560478  40.7683334  56.9296532
  28.5136929  39.4084587  56.7590599  60.0528145  49.2220268  48.6952057
  59.8350639  49.0909958  49.6180534  60.7586327  48.5983276  48.5247612
  37.0664482  40.5554543  21.6482468  36.1346092  40.7545815  21.7391148
  37.5109711  41.2962608  22.0603542  43.0690956  25.1784306  81.0160065
  43.2440414  24.2378941  81.0478821  43.2139931  25.4181213  80.1007004
  61.7611580  11.8606958  19.1713696  62.5371399  12.1015177  19.6774197
  61.9656639  10.9955778  18.8164330  53.9421654  31.9173508  56.7890244
  54.3932343  32.7542610  56.6778831  54.1976547  31.6217575  57.6628571
  32.9400520  64.1343842  78.2809448  32.4153557  63.3499718  78.1208801
  32.4498978  64.6189880  78.9451218  46.6087608   5.5854435   9.3895798
  47.3139801   5.0860300   9.8012648  46.8470192   5.6171770   8.4630499
  42.8135529  57.5122795  50.5098534  42.9909134  56.5913582  50.7013588
  42.5559807  57.8867950  51.3522491  57.0255585   2.1064739  29.1580563
  57.4134178   1.3358952  28.7433205  57.4369698   2.8490627  28.7158642
  62.1187401  67.7448349  84.6152878  61.3320122  67.3688126  84.2204514
  62.8091278  67.5860062  83.9715729  61.1299019  54.1216660   1.0944254
  60.3612633  54.6190453   0.8150710  61.2230377  54.3271294   2.0246627
  34.5445328  35.7145576  78.6600952  34.2237816  35.4342728  77.8028946
  33.8080788  36.1865616  79.0487823   7.3933768  53.8250732  58.5097656
   6.9372234  53.0254364  58.2475853   7.7789679  53.6131020  59.3598366
  60.7866936  19.7436943  18.2724342  60.9170723  20.5413780  18.7852058
  61.5979958  19.6438389  17.7743874  75.5359116  46.5782471  41.2728348
  75.9380264  45.7642632  41.5761032  76.0578690  46.8344536  40.5124702
  43.4978333  59.6629257  84.6572113  42.7350540  59.2665329  85.0782471
  43.1678162  60.4804993  84.2845306  22.6657753  56.2388344  27.1410809
  22.0912514  56.1688499  26.3786793  22.7809696  55.3361168  27.4378452
  62.4539299  58.8238068  57.0510292  62.1288147  58.9641647  57.9403152
  62.1505775  57.9455872  56.8209343  83.9793015  52.7411652  52.8848534
  84.4309006  52.1479836  53.4852142  83.0491867  52.5791321  53.0425262
  31.4938622  61.8452148  24.6458988  31.2191525  60.9290047  24.6095257
  32.1297569  61.9329681  23.9358501  52.9664345   0.4818839  79.7813492
  53.0754242   1.3463477  79.3850479  53.1535072  -0.1323500  79.0714569
  43.0864487  10.9649277  14.3201694  42.3926125  10.5508690  13.8069630
  42.6916237  11.7724667  14.6491489  48.5036240  48.5966301  60.7852783
  48.3002892  47.6618462  60.8179359  48.7587814  48.7546272  59.8763428
  34.7855797  47.4118423  20.1219540  34.2592392  48.2108955  20.0952320
  34.7823982  47.1536598  21.0436726  71.7587891  56.5910912   1.6745006
  71.3049622  55.8785133   1.2244979  72.2725754  57.0183945   0.9891785
  24.2880135  71.5409775  75.2551193  23.7937393  71.6783447  76.0632401
  23.8796520  70.7749023  74.8518753  31.6280632  41.7212219   1.5203682
  32.0025024  40.8554573   1.6831018  31.0479126  41.5940208   0.7697178
  12.6142693  34.1642494  15.7096357  12.4422646  34.3339348  14.7834311
  12.1014843  33.3809357  15.9088869  74.3356323   4.7347565  15.8771744
  75.0871964   4.7090492  16.4693928  73.7241135   4.0929565  16.2382469
  72.5819473  37.6396866  27.4070683  73.4416733  37.4903641  27.0136108
  71.9593735  37.3811073  26.7275295  80.4753342  47.2316971  26.0874958
  80.4472504  47.2291832  27.0442810  79.6159439  46.9044609  25.8217926
  60.0145760   2.3199706  80.5678482  59.8162994   3.1109741  81.0690842
  59.6935425   2.5084579  79.6860123  58.3128853   8.7698965   5.1067491
  59.2245293   8.6326284   5.3642249  57.8038254   8.3056269   5.7712374
  52.2777901  26.0931282  35.4988976  51.4918976  25.6077194  35.2479362
  52.9382362  25.8268452  34.8592606  49.0531540  47.2951813  74.2884445
  49.3306007  48.0352821  73.7485275  48.1952019  47.5530090  74.6256104
  80.0455933  69.3408813  62.0027313  79.1710205  69.1866226  61.6455688
  80.4631882  69.9250259  61.3697853  41.3932037  49.3885689  35.6730728
  41.2336464  48.4480705  35.7520142  40.6892891  49.7041893  35.1063957
  61.3169594  39.4436226  78.2684021  61.4642029  39.2487907  79.1939240
  60.3644104  39.4582825  78.1753235   3.2473531  69.4953461  62.9583817
   2.3962078  69.1091614  62.7518768   3.7691741  69.3620529  62.1670761
   7.5874338  71.1225128  52.0184746   7.5883169  70.5875015  51.2247543
   8.1945114  70.6762085  52.6088219  84.8543701  55.3423424  15.1442080
  85.3372574  55.9406967  15.7143164  84.5861206  55.8833199  14.4015007
  33.5746574  66.0868607   0.2416395  34.4796638  66.0956726  -0.0700035
  33.3137856  67.0078201   0.2457504  47.3160629  42.1929016   3.4787173
  46.6980133  41.7399445   4.0523682  47.5628319  41.5368156   2.8268826
  61.6827888  48.5536652  60.7540245  61.8881340  48.5776939  61.6886330
  61.6046066  47.6217651  60.5498619  70.3159256  55.0535545  89.1163635
  69.6414413  55.5178299  88.6206436  70.2847519  54.1572571  88.7818298
  69.9173050  57.6534500  44.2549324  69.0674210  57.2594719  44.4516754
  70.5259857  57.2216415  44.8543282   9.6654711  50.7341690  37.1142197
  10.4569654  51.0713234  37.5338554   9.9873819  50.2202835  36.3735924
  15.9191933  23.0367184  59.7258606  16.3981190  22.5777054  59.0358124
  15.1018028  22.5469475  59.8165817  72.9001083  40.1758842  72.3326797
  73.3581848  39.8822594  71.5451660  73.0073853  41.1270523  72.3315582
  59.7674332  38.8794365  84.9892044  59.2751503  38.0884094  85.2086639
  60.6779442  38.6562729  85.1825943  77.1356735  40.0586967  11.4317226
  76.6227722  39.4980888  10.8495884  77.8808823  39.5167236  11.6908951
  84.8671570   7.1800351  22.6790466  85.3358841   7.6331754  23.3798981
  85.5182877   7.0730438  21.9856377  68.9135590  50.0524292  70.6880569
  68.8705673  49.2264938  71.1699448  68.2648849  50.6125107  71.1143951
  44.6344109  59.9913063  14.2476006  44.9709740  60.0446205  15.1420908
  44.5845528  60.9015808  13.9558020  16.0923538  22.2348900  15.7723494
  15.3683414  22.8601723  15.7398024  15.8304768  21.5339432  15.1754189
  42.8766632  47.9241257  31.9910107  43.5072861  47.4571838  32.5392075
  43.1326218  47.7080688  31.0943279  54.6828308   9.7630730  52.4724998
  54.6708260  10.7197657  52.5012512  54.8364754   9.5530462  51.5513496
  31.5104771  20.0239429  22.6269016  32.3901596  19.9585686  22.2552586
  31.3597870  19.1722336  23.0369205  61.9598312  56.3111076  11.9971418
  62.8290291  56.5817146  12.2929430  61.8930244  56.6530418  11.1055984
  83.5396500  58.5471191  60.0539627  83.0497818  59.1992836  60.5549049
  83.4086075  58.7992477  59.1399117  37.7330437  17.0226631  25.1172829
  37.9617996  16.2022629  24.6804218  38.5539665  17.3235512  25.5068798
  83.8128891   4.8587227  38.1531410  84.7443466   4.8290963  37.9346237
  83.7887039   5.1746855  39.0563660  47.3081779   1.6308565  82.2962494
  47.3036499   0.6788474  82.3956985  46.6131363   1.9359002  82.8794250
  29.9818115  70.4608536  28.4928093  29.4781685  71.2271881  28.7672195
  29.6448555  70.2522354  27.6215057  54.8992577   6.0001936  59.9129562
  54.7936401   6.4120779  59.0553856  55.4715195   6.5962763  60.3961105
  58.1103439  38.7550011  62.9260750  58.5379448  37.9013634  62.9945526
  58.6715813  39.3450623  63.4291306  66.3928909  42.5780678  75.3040466
  66.5691757  43.0467377  76.1198349  65.8177643  41.8574524  75.5612946
  50.6370583  64.3524780   1.2421914  49.8653831  64.7299347   1.6644170
  51.2969856  65.0443954   1.2867694  48.8966446  19.2357311  31.7121773
  49.5673714  18.7583351  32.2004929  48.6001282  19.9168358  32.3158379
  72.2542496  47.3400192  19.0131493  73.0566254  47.4624672  19.5205250
  72.5544281  47.0103149  18.1661453  18.2632160  52.1946297  31.3783798
  17.7890949  52.9415550  31.0129375  18.7685070  51.8485260  30.6427689
  29.8204918  41.2781830  88.5463409  28.9953365  40.7945824  88.5848770
  29.5683651  42.1608315  88.2750549   3.9612436  66.8928604   3.5822153
   4.2354593  67.7714844   3.3194470   3.0702140  67.0086975   3.9121840
  52.6338081  28.0336304  16.1453915  52.6270065  28.3384838  17.0527229
  51.8465919  28.4164963  15.7581758   9.3443489  69.7231598  66.2900085
   9.5397005  68.8265839  66.5624542   8.3935337  69.7384796  66.1807098
  56.7600174  24.3416576  73.8765106  55.8344383  24.4809875  73.6762085
  57.2277412  24.7955952  73.1755066  23.8750763  68.8121719  40.6488533
  23.1388988  69.2286301  41.0970001  23.5845070  67.9131393  40.4954147
  13.6221294  68.4410324  10.4105988  14.0651617  69.1642914   9.9669113
  12.6987219  68.6930695  10.4161100   4.6245232  69.0096588  54.8858147
   4.0667543  68.5570908  55.5185127   5.1798553  68.3209610  54.5203972
  69.7474670  67.2639084  11.9661865  68.8540421  67.0677719  12.2482376
  69.8605957  66.7592163  11.1607561  51.4798203  54.0565681  18.4189529
  52.3890381  53.8732758  18.1824074  51.5399780  54.5504494  19.2366905
  80.6113510  48.6932144  54.5013924  79.9921188  48.6931496  53.7714691
  80.8063126  47.7679672  54.6501694  54.8476257  42.4570732  30.4776859
  55.5819893  42.6646881  31.0554714  54.5722275  41.5804672  30.7459145
  12.3775196  22.2453136  20.9484501  12.5598793  21.8210373  20.1100197
  12.7383423  21.6473007  21.6029873  81.6898727   6.6262259  15.6893644
  82.5398102   6.8164897  16.0863934  81.9034424   6.2158728  14.8513727
  71.1205902  71.6910477  83.2922211  70.8290024  72.3482437  82.6603241
  70.6140976  70.9084625  83.0748367  10.5605898  30.5346680  12.7223015
   9.9772301  29.8599873  12.3748398  11.1219931  30.0696011  13.3426018
  60.4331932  59.3735046   3.1304755  61.0841103  59.3248024   3.8305964
  59.6128197  59.1101074   3.5474126  79.5844040  27.9494686  74.0436249
  79.4435883  27.1997280  74.6218033  78.8397598  28.5263405  74.2137833
  62.0966148  68.9053650  77.4026260  62.1976318  69.6692886  76.8347778
  61.3009949  69.0832901  77.9041824  22.4858418  46.0187187  38.9393806
  22.3255482  46.6949883  38.2812004  21.6444817  45.9122772  39.3832436
  34.2557411   7.1543498  10.1283846  34.2346916   8.0993614  10.2791872
  34.4142647   7.0652466   9.1886177  32.9241943  47.3171158  71.0928879
  32.1810417  47.8988533  70.9330673  32.6785355  46.8242950  71.8758392
  67.3869324  39.4980545  28.3576260  67.3888092  40.1782494  29.0310955
  67.2160950  39.9690285  27.5420074  46.9779510  37.7941856  72.3390427
  46.9470787  37.9337463  71.3925705  47.5077095  37.0043678  72.4475327
  23.1112556  39.8231316  83.7447968  22.5489483  40.5834999  83.5968857
  23.2516899  39.8096390  84.6915436  62.7267952  43.2013474  39.9537659
  63.4696732  43.6497345  40.3578873  62.9004745  42.2713203  40.0990906
  33.4786491  61.6555901   8.9542446  32.8566055  62.3754807   8.8491335
  32.9299240  60.8802223   9.0723190  68.8479309  66.9049454  28.8970337
  68.6694031  67.1751022  27.9962711  68.1447678  66.2902145  29.1065483
  25.5697803  20.8378525  87.2423172  25.6568661  20.5029278  86.3498611
  26.3564606  21.3660831  87.3777313  83.8113708   7.9811907  63.2984886
  83.8613892   7.1358962  63.7448158  83.9004059   7.7672944  62.3697510
  50.3917465   4.1340141  82.3109360  50.6950989   4.8163753  81.7121048
  51.1768570   3.6240661  82.5104141  18.4844990  23.3899899  16.5304794
  17.6491032  22.9766216  16.3126011  18.2415047  24.1905880  16.9954834
  55.8289909  68.4017563  30.4398556  56.6868210  68.5717545  30.8290310
  55.6908951  69.1317444  29.8362961  39.0828781  33.2238617  52.5827713
  39.1642189  32.5687141  53.2758789  38.4551392  32.8449287  51.9674835
   5.8298478  22.4966583  75.5819626   6.7165985  22.8358021  75.4599533
   5.4106793  23.1273022  76.1674728  80.0257416  20.5594101  17.8785934
  80.5137939  21.3442135  18.1278305  80.7004852  19.9214268  17.6463642
  34.6425819  35.5961304  62.7295914  34.2136421  36.0210724  61.9868469
  35.4713440  36.0648956  62.8278351  40.3716278  65.9941711  69.2495041
  39.5832329  65.5116730  69.0007858  40.5684891  65.6908112  70.1357574
  79.5642471  49.4664040  17.1505833  79.9530182  48.5979004  17.0466976
  80.1111374  50.0394554  16.6132183  17.6351891  43.1338921   9.0006218
  18.3395519  42.8917503   8.3993950  16.8901234  42.6004791   8.7238979
  55.5674858  22.8277988  33.9920158  55.4349785  22.4469185  33.1239128
  56.1738777  22.2281284  34.4266586  26.8835144  62.2688637  61.3980904
  27.0609550  61.4012222  61.7613335  26.2177868  62.6395035  61.9774551
  64.2016373  55.1507225  28.1736584  64.1844330  54.5300980  28.9021912
  63.6859283  54.7281799  27.4868336  65.7368469  22.1925678  15.0665483
  65.6984406  21.7302723  15.9038296  65.5052414  21.5296364  14.4160776
  56.6241722  14.4387903  63.9284134  57.3433037  15.0435076  63.7456551
  56.0893440  14.8925467  64.5797882  45.3915520   4.8667474  67.0429153
  44.6813889   5.4926815  67.1847076  45.8064575   5.1553593  66.2300262
  35.1792870   7.2482905  15.1935644  35.4824448   6.8251338  14.3902798
  34.2253876   7.2566123  15.1145868  32.9880333   5.5958581  16.7974072
  32.1611137   5.1507201  16.9825821  33.5455017   4.9170609  16.4170208
  25.8432312   7.7763405  49.2686806  25.9391270   6.9109273  49.6662903
  26.1322899   8.3854570  49.9481316  35.8970566  57.1626015  32.7206535
  36.4183044  56.9195480  31.9555035  36.5368080  57.2556305  33.4265556
  63.8121376  22.2236042  57.7546120  64.2060165  23.0154076  57.3883591
  62.8743935  22.3251629  57.5916634  20.9337597   7.8423586  12.8847017
  21.2960815   8.3244524  12.1413717  19.9926987   7.8090968  12.7128506
  67.1232300  68.7352524  39.2673492  67.4355087  69.6018143  39.5276947
  67.5843353  68.5503311  38.4491730  30.5231552   2.5014012  78.5816116
  30.0315781   1.9219707  77.9995041  29.9652367   3.2731445  78.6784134
  26.9322357  70.7557907  75.7966843  26.1964664  71.0857315  75.2809143
  26.5240307  70.3211746  76.5454865  45.9598083   7.6012344  45.2063904
  46.3992500   7.8814392  44.4035149  46.5908890   7.7862158  45.9019127
  31.5063457  53.1314240  33.3312492  30.9278278  52.5834312  33.8615799
  32.2057686  52.5407906  33.0516243  83.1255646  63.6903229  52.0460358
  82.5200577  64.2422867  51.5511398  82.6110001  62.9166336  52.2759514
   8.7967348  67.0235977  44.5738831   8.4343023  67.1296463  45.4534454
   9.5799427  67.5738754  44.5696144   9.4262218  37.4626045  73.9782944
   8.9961796  36.6172142  74.1071625  10.3175287  37.2394867  73.7099304
  63.9295959  20.9251804  87.3583450  63.5039558  21.6122284  87.8712082
  64.8516159  21.1811295  87.3336563  23.3190289  36.2286453  16.9532928
  23.3103161  35.5386276  16.2899456  22.7408161  36.9058189  16.6020966
  58.2232361  70.0145798  20.3274593  57.6093636  70.7003632  20.0646000
  58.9737625  70.1286240  19.7444191  83.7107849  52.0808525  60.0366478
  83.5497055  52.0749474  59.0931168  84.5237503  52.5759239  60.1377411
  28.8548298   0.6373347  49.6480980  28.7915497  -0.0482235  50.3131065
  28.7840099   0.1705697  48.8154221  42.4709892  42.5482292  67.3234863
  41.5662880  42.8561821  67.3774338  42.9037209  42.9423447  68.0808792
   1.3038242  35.4729347  76.7919006   1.3000716  34.6946030  76.2347488
   1.4652532  36.1984596  76.1887512  67.7057190  55.6868172  64.9020767
  68.5841370  55.5740318  65.2652435  67.1980515  54.9660492  65.2749023
  26.8173809  16.9542084   7.1140780  26.6255951  17.6977406   6.5425787
  27.2136517  16.3030643   6.5351033  75.2498856   3.7561085  36.4245758
  74.8563614   4.6181612  36.2895470  74.8516312   3.2030742  35.7524338
  52.8622437  35.2329903  27.5340958  52.6780624  35.1761780  26.5965023
  53.7741280  34.9538422  27.6163998  35.4048767   3.1224864  68.9499359
  36.2215958   2.6737013  68.7313156  35.6261330   3.6684666  69.7043762
  31.8334770  41.2756081  63.1579590  31.3023338  40.4936714  63.0073128
  31.2408581  41.8871346  63.5950737  73.0030594  12.7119322  24.0508709
  73.7439575  13.3033657  24.1832123  73.4029312  11.8803396  23.7963276
  22.2022724  51.7473373  34.0913200  21.6812725  51.1062660  33.6077728
  21.9852200  51.5884552  35.0099449  34.0591164  70.6069794  24.2264061
  34.5923233  71.3907928  24.3589211  33.1953506  70.9426193  23.9866409
  15.8031912  36.5429001  16.2614594  15.9997826  36.7909126  17.1648273
  16.4409676  37.0261955  15.7361975   5.1735015  31.9433079  74.7670517
   6.0166936  32.2516632  74.4351273   4.5451579  32.1858940  74.0869293
  81.3872528   1.8083924  31.1669369  81.2240601   2.1926417  32.0283051
  80.6753922   2.1384225  30.6186924  77.6873627  57.1683426  12.3208733
  78.2583771  57.4857597  13.0204563  77.5810623  57.9206047  11.7386084
  51.3394432  23.7780991   2.8719759  51.4651794  22.9159584   3.2683794
  51.8927498  24.3628216   3.3898387  77.7062073  18.7734776  85.5596085
  77.5408783  19.6984138  85.7423401  78.6167221  18.7464542  85.2655640
  56.8288116  67.3602600   7.3482847  57.3818398  66.7846298   7.8765306
  56.2019958  67.7280197   7.9712501  31.2485542  43.5953178   3.5379977
  30.4122257  44.0333786   3.3802276  31.3933716  43.0659866   2.7537353
  66.9697571  34.3592377  64.8364563  67.6092758  35.0453911  65.0273514
  67.1274109  34.1331940  63.9197884  53.6838875  25.4222584  11.7552528
  53.3010406  24.8739853  12.4401312  53.6609154  24.8754673  10.9699364
   1.8966323  26.4949932   7.4661822   2.5862725  26.7798214   8.0657673
   1.1381164  27.0288067   7.7026763  69.3780441  30.6617718  50.3778152
  69.6341171  29.9584980  50.9745255  69.8909607  31.4175072  50.6641960
  49.7846069  49.4746933  16.0208206  49.5785408  50.2103348  15.4441071
  49.9491386  49.8775177  16.8733997  70.1809692  33.9738312  78.9178162
  69.5485306  34.4133568  78.3494263  69.7052231  33.8242455  79.7348404
  50.2986183  27.0586014  28.4478302  50.4207306  27.8253078  27.8879356
  49.4664383  27.2174530  28.8933315  25.6132984   8.6322718  75.2748642
  25.9995556   7.7566190  75.2584534  24.9605923   8.6192904  74.5748367
   2.0986228  16.3436050  28.3473988   2.2330534  15.4206629  28.5626621
   1.2418233  16.3678341  27.9213257  73.0188522  36.9701233  10.4941092
  72.2277222  36.4436150  10.3795290  72.8708649  37.4506760  11.3086033
  66.5470581  20.5253258  62.2515259  66.8354797  20.7146034  63.1443977
  67.2453613  20.8714294  61.6958199  82.8844681   6.0181265  69.5357132
  81.9959641   5.7021832  69.3714600  83.4508972   5.3616080  69.1302872
   2.9715290  50.2583466  20.6886044   2.1595931  49.7668228  20.8126850
   3.6389129  49.7341003  21.1313190  58.3536186   9.5828915  76.9870453
  57.9342690   9.0932570  77.6946030  58.3117332  10.4962702  77.2702713
  72.5090256  48.7766876   7.8458858  72.2138519  47.9265060   8.1719198
  73.1552582  48.5637932   7.1726165  25.1265430  64.0277634  63.1422997
  24.7659988  64.9043427  63.2758980  24.3582859  63.4643250  63.0498581
  55.4007645  68.3812943  37.0569992  55.3278008  69.2621155  37.4245033
  56.0983810  67.9669266  37.5648079  77.6131134  50.7722702  77.9025192
  77.1804810  51.6025925  78.1015930  76.9823456  50.1035423  78.1692963
  66.0237808  35.6275101  82.6143646  65.9192276  35.1113739  83.4136734
  66.9616089  35.8140297  82.5706406  44.5955734  53.3870544  74.7069321
  43.9620552  53.1054001  74.0469666  45.4477806  53.2638206  74.2888489
  82.9818573  27.5053444  49.1998405  82.1774139  27.2407303  48.7536507
  82.8497238  28.4314251  49.4026794  20.4053841  65.7510529  77.6576920
  20.0385780  64.9898758  78.1074600  21.2519321  65.8943329  78.0808487
  18.8862705   1.3352795  68.1699829  19.5445118   1.7834489  68.7011032
  18.8656101   0.4432851  68.5166092  11.2573109  29.7022228  23.2651100
  10.7207642  29.1717072  22.6761246  10.6287537  30.1047878  23.8643494
  64.5634079  10.2982111  13.7195911  64.2593613  10.4212580  12.8203430
  64.1683197  11.0210829  14.2070322  35.6532707   4.6116724  71.2394104
  35.0719872   5.3014078  70.9190826  36.2956085   5.0716152  71.7798615
  15.4638376   6.9133716  78.1631546  15.5295067   6.4673152  77.3187866
  15.0976763   6.2552004  78.7538910  58.5164452  25.1245022   4.9507308
  59.4550934  24.9441471   5.0020938  58.4617767  26.0681286   4.7996893
  50.2948914  11.8235331  63.4974709  49.8341560  12.2034407  64.2455521
  49.7273407  11.1111031  63.2032623  85.0476990  52.0108414  32.2576828
  84.9796295  51.1353722  31.8766918  84.2088165  52.1461716  32.6983528
  14.7784128  66.7845612   7.7418642  14.1520214  66.9379501   8.4492111
  15.6183205  67.0731354   8.0989561  22.9355831  30.3337746  37.2453842
  23.0451584  30.7942638  38.0773544  22.5823021  30.9950809  36.6503220
  53.8024559  19.6879387  80.7383041  54.5752869  19.2288895  80.4093094
  53.8870201  20.5768604  80.3934860  50.8676376   4.1352248  15.4400549
  51.3539085   4.7334695  14.8727131  51.0046196   3.2715325  15.0508194
  51.8974457  29.7268391  33.4831505  51.6345673  30.3570995  34.1538925
  51.1256142  29.1748085  33.3575630  76.4981766   6.2985401  38.5886574
  76.7988052   7.1245642  38.2097969  75.5968933   6.4732690  38.8595695
  34.1306610  48.2225914  10.8420048  33.4775848  47.9053421  11.4657640
  34.5392532  48.9683113  11.2815332  18.0597630  60.8765411  86.3621979
  17.8641930  60.9080353  87.2986755  18.2754383  59.9593811  86.1932755
  68.5476532  38.4097404  63.6246185  69.1128998  39.1103134  63.2991524
  67.7972946  38.4118156  63.0303268  81.3462296   5.6838565  62.4932175
  81.1712723   4.7873435  62.7793732  80.6776276   6.2100449  62.9317665
  66.4307098  16.7634201  19.4437294  65.6956482  17.3732224  19.5073910
  66.7596359  16.8770390  18.5520267  55.3527336  44.8445168  81.1261292
  55.6548119  45.5207634  80.5197754  55.8132744  44.0521393  80.8499603
  44.5527306  52.1852722  15.1567202  44.9192848  52.9161530  14.6590433
  43.6057816  52.3190422  15.1163721   7.9550986  47.0766907   4.4718585
   8.3775749  47.9356003   4.4677987   8.3192225  46.6270638   3.7093098
  37.8045921  55.4505157  31.1409092  38.6541634  55.0103798  31.1137295
  37.2807999  55.0013161  30.4775162  57.5237389   7.5558934  85.1070175
  58.2801285   8.0969639  84.8804092  57.8560905   6.6585050  85.0853806
  75.1706238  37.5816689  67.9349442  74.7445450  36.9630356  67.3416672
  75.3024673  38.3685760  67.4061508   4.4178472  17.8361187  38.6061096
   4.1499057  18.0699482  37.7174225   5.2784686  18.2416954  38.7113228
  77.6132660  54.7005692  48.1830292  77.4250107  53.9237442  48.7096519
  78.4021149  55.0721703  48.5778313  51.8320122  19.3749447  77.4334106
  52.3566170  19.1100445  76.6778717  52.0630493  18.7466202  78.1175613
  34.3411980  63.1795845  63.3921928  34.9302826  63.0341148  64.1324997
  33.4995689  62.8286209  63.6832619  78.2795486  67.8457794  30.9861870
  77.3589859  68.0250320  31.1776829  78.3788681  68.0662689  30.0600376
  44.7442284  52.8218040  50.2407761  44.1836967  52.4085274  49.5840874
  45.6032524  52.8767242  49.8220901  16.2299347  46.9276085  22.3819962
  15.3897324  46.5064201  22.5633526  16.0538425  47.8637466  22.4761734
   9.6007900  38.2969398   3.7053173   9.3570690  38.8004875   4.4820237
   9.9171553  38.9529076   3.0841482  23.7536087  41.2817154  77.1209106
  24.3250027  40.5237541  76.9974823  23.1363811  41.0083771  77.7995453
  28.4521217  57.4998894  26.1864223  29.0474434  56.8047791  25.9059868
  28.4021130  57.4032097  27.1374130  33.7516708  47.7438011  64.8877182
  33.4812927  47.6605453  63.9732780  33.8122063  46.8419189  65.2026443
  69.7917709  55.9475899   6.4215584  69.8990555  56.0450516   7.3677206
  68.8909607  55.6427078   6.3127995  38.6984177  45.6688385  49.5622826
  38.9608231  46.2963982  50.2357407  38.6314774  46.1900635  48.7622375
  52.2769928  25.8848801  23.0919743  52.5468941  26.7693081  23.3393116
  51.5674133  25.6726284  23.6983395  16.7354889  71.9026489  62.5964470
  16.3086033  71.0738602  62.8135109  16.7641850  71.9139175  61.6397438
  61.2426147  48.8442230   4.3467059  61.2372589  49.1195374   5.2634420
  62.1525307  48.6019402   4.1747007  59.7968903  19.9326591  64.2126083
  60.4425774  19.4218159  63.7243843  58.9896774  19.8457508  63.7055702
  29.4797020  45.3557358  15.7409172  29.8062363  45.8301239  16.5054836
  29.3991604  46.0242920  15.0606394  87.0142517  22.2702560  58.6224937
  86.4907455  21.6924133  59.1777191  86.4019012  22.5810394  57.9556580
  54.0007858  42.2435837  38.9689102  53.7773819  41.7142220  39.7344818
  54.7056847  41.7585983  38.5397987  61.0480843   4.3929477  72.5152664
  61.3514824   5.1660700  72.0393829  61.6690903   4.2971683  73.2373505
   1.7634416  39.4476357  78.2257156   2.4286170  38.9021301  77.8059540
   2.1708913  39.7363663  79.0423203  41.4161186  62.0728569  25.5625114
  42.0106010  62.6590195  26.0307369  40.7465401  62.6518135  25.1982212
   2.8114171  66.6337662  46.4974823   2.7902429  67.5588989  46.2527161
   2.2845175  66.1968613  45.8283577  32.3721924  58.6987114  22.3301697
  31.9613304  59.1144371  21.5721474  31.6381798  58.4219513  22.8786793
  65.2560654  41.1793976  69.6324539  65.4830246  40.8365822  68.7680435
  65.7285690  42.0096779  69.6924591  43.3577690  21.4393768  22.9842148
  43.9724541  20.7305660  22.7945213  43.6599770  22.1694756  22.4439754
  23.4253693   7.3001442  16.6270866  22.8159180   7.4122696  17.3566265
  23.7134285   6.3897290  16.6933994  58.4614372   5.4332352   2.3413961
  59.4052277   5.5252428   2.2109222  58.3546486   4.5549798   2.7067676
  55.4448547  51.2842560   2.3810592  56.1664696  51.0161438   1.8121835
  55.2109604  50.4901657   2.8616285  35.0822067  39.5404091  39.2009010
  34.5196419  40.0652199  39.7704010  35.9725800  39.7936630  39.4444809
  80.4584198  15.2740898  40.8759346  80.1123047  14.6740646  40.2153244
  79.7921906  15.9572096  40.9515648  31.8658924  63.7404099  84.8250351
  31.4008293  64.4053192  85.3328171  32.3413544  64.2368622  84.1589203
  13.3477182  64.8335953   6.4424777  14.0690413  65.2676239   6.8980498
  12.6112118  65.4388657   6.5287328  37.9395142  38.1918640  12.9499340
  38.4422455  37.5615997  13.4659405  37.0302696  38.0426712  13.2092581
  30.4448032  18.4175529  19.6142406  30.8716354  18.1776257  18.7917557
  31.0297127  19.0651398  20.0076180  76.1691132  49.2893066  13.9070320
  75.2982864  49.6526642  14.0678501  76.4834366  49.0285263  14.7727251
  52.3420410  63.8610268  36.4666786  51.5024452  64.2598801  36.2381477
  52.8826981  64.5935898  36.7620926  71.9563599  38.6304169   5.1629891
  72.8890839  38.7767639   5.0053740  71.9112473  38.3283730   6.0701637
  41.0202866  25.3828678   0.7971820  41.5530281  24.7608109   0.3017370
  41.0463943  25.0571899   1.6968955  74.3974915  17.4778023  21.8986511
  74.2295303  18.3954315  21.6842270  73.7038269  17.2452221  22.5158768
  82.4201202  36.6738167  31.3574123  83.3752441  36.7225227  31.3175125
  82.1228333  37.5175667  31.0169163  45.4795456  24.0078106   2.5404325
  45.7770844  24.5002327   1.7754344  45.1352730  24.6741638   3.1351445
   8.2001934  37.2438889  60.0003395   9.0841007  37.6087494  59.9577179
   8.1355619  36.8750153  60.8812370  26.2474995  43.7766495  29.1017361
  26.8292980  43.1875687  28.6213970  25.3660145  43.4902687  28.8625660
  54.4705429  32.5108147  18.5004807  53.6181564  32.3395004  18.1000824
  54.6495972  31.7308159  19.0256214  18.3710423  30.0480385  28.6859283
  19.2056179  30.3161469  28.3014393  17.7095470  30.4962769  28.1589184
  11.5149698  15.4947510  16.4730892  11.9213228  14.6372976  16.3470631
  10.6003284  15.3655529  16.2221489  86.4081573  24.0251141  72.8732300
  86.7299728  23.8170624  73.7503738  85.4550400  23.9854507  72.9521408
  61.7608299  35.0012398  52.3281479  61.8492317  35.4148026  51.4694366
  61.1990280  35.5967560  52.8241005  69.0965118   7.7438293   4.9539566
  68.7573929   8.1960926   4.1815004  69.9299622   7.3710012   4.6665702
  74.6019363  42.5766754  78.1838455  75.2386551  43.2903519  78.2224579
  74.0010834  42.7523193  78.9079742   2.6045771   3.6852462   0.3239232
   2.9358828   2.9802661  -0.2323782   3.1328361   4.4469838   0.0853227
  26.0317421  64.7141190  53.3103828  25.0956039  64.7550354  53.5058441
  26.4173794  65.4134750  53.8380356  84.9203568  35.9755478  77.1280136
  85.8087006  36.1473579  76.8156662  84.6137085  35.2465057  76.5888519
  71.7613373  45.9709206  79.8841171  71.9553680  46.6681061  79.2576065
  70.8080521  45.9842110  79.9696045  40.8920860  66.8373718  11.7073450
  39.9390831  66.7980347  11.6268740  41.0474968  66.9954910  12.6385145
  47.9991646  16.2964401  67.0337982  48.0797806  16.7936287  67.8477631
  47.0621605  16.3070030  66.8384857  43.5966415  64.0996780   0.9941441
  44.1784019  64.8018188   1.2853259  42.7530289  64.5299377   0.8547724
  65.4630814  43.8259506  35.8548546  65.3211060  43.7770195  34.9095078
  64.7530670  43.3056831  36.2309303  65.6120682  39.2011261  38.4100685
  65.1271515  38.5160027  38.8701706  66.2408218  38.7259293  37.8668480
  76.2031097  64.2564163  29.8552189  76.4811325  64.3543930  30.7658978
  75.2862854  63.9873352  29.9123249  76.7900772  64.3454132  51.8995094
  75.8882141  64.3649597  52.2196465  77.2415771  63.7443047  52.4920006
  82.1846390  70.2701416   1.9929560  81.3552628  70.2563705   1.5152808
  81.9574890  70.6126556   2.8574317  24.8181190  67.9918518  76.9248886
  24.0420704  68.3939743  76.5346527  24.7649174  68.2197571  77.8530350
  22.0872135  58.5625343  43.7000122  21.1645927  58.4875221  43.9436874
  22.5624084  58.1950874  44.4452705  60.1875153  54.4849968  57.7660561
  60.9896088  54.9606934  57.5502052  60.3665695  53.5820580  57.5036163
  69.5070877   6.3757863  72.7534180  70.1465378   6.1371980  73.4245453
  68.7863388   5.7585807  72.8791199  63.7978249  31.0439072  70.0955048
  62.8630142  31.0228920  69.8907547  63.8326035  31.1763248  71.0428619
  45.7878075   7.3378210  73.6762238  45.8256226   6.3823113  73.6337585
  46.4889679   7.6313581  73.0944595   5.2885890   9.6140757  18.9312439
   5.5158896   8.7237844  18.6630154   4.4022393   9.5387964  19.2847252
  70.2388077   5.9590030   1.6323780  70.5553436   6.7887692   1.2752712
  70.6603165   5.8906002   2.4890494  16.9625187  58.2423592   8.1499367
  16.4985085  57.7606544   8.8346872  17.4623775  58.9081726   8.6222343
  58.1507835  58.0323372   5.0544009  58.6799889  57.3313332   4.6739221
  57.8913116  57.6975937   5.9128036   2.9508154  48.2867584  34.7848282
   3.9025004  48.3607521  34.8559074   2.6816769  49.0855942  34.3313332
  66.7550888   7.1981158  15.8992052  65.9778061   6.7321844  15.5910349
  67.0103378   6.7361741  16.6977577  32.1651382  56.7577133  40.1873360
  31.7813892  55.9707794  40.5742493  31.8436661  56.7625275  39.2857475
  33.8234253  66.8967514  76.2658463  34.1678276  66.3243484  76.9514008
  33.8269310  67.7696838  76.6585312   3.7088804  69.7854767  50.3196983
   3.3762112  68.9129944  50.5302582   4.2844539  70.0055542  51.0521698
  54.2181091  45.0999146  29.8217812  54.3460388  44.1608353  29.9559250
  54.2560959  45.4749107  30.7016487   9.1230803  64.1004639   1.8027343
   8.6425714  64.0336761   0.9775785   9.6053514  64.9243546   1.7330455
  37.6891174  61.3772125  10.4671402  36.9692688  62.0046806  10.4012918
  38.4609451  61.8676147  10.1842661  53.7091980  43.2254639  64.2727051
  54.6098213  42.9217567  64.1592636  53.2530746  42.4810982  64.6652603
  34.4059143  45.1087189  84.4684448  33.6120453  45.4164124  84.9058609
  34.1536598  44.2740021  84.0736694  24.1121120  40.1041565  86.6333389
  23.1920948  39.9229889  86.4410400  24.1476974  40.1764793  87.5871429
  83.6921692  15.3959322  15.1312237  83.4491043  16.1982212  14.6691790
  84.6176071  15.5139074  15.3454199  53.8467674  24.0287876  71.5457382
  54.1479187  24.3089008  72.4100723  53.9689331  23.0794144  71.5456009
  34.8331261  61.1782990   6.4972634  35.7681351  61.3828239   6.4845967
  34.5617828  61.3536301   7.3982992  78.4496918  41.6096916  63.8715820
  78.4405746  41.6241570  62.9145355  78.7340775  42.4887772  64.1217117
  75.7730713  45.6799774   3.9309545  76.1150131  44.8902206   3.5119193
  75.0476532  45.9539490   3.3697600   3.4005566  21.6229553  50.9210434
   2.9802637  22.2870102  50.3745842   3.3139369  20.8113766  50.4209747
   3.5362241  47.5594292  19.7237053   3.7920439  48.1877594  19.0484352
   3.8959355  47.9193878  20.5344257  56.8310318  35.8545227  45.9970856
  55.9820175  35.7470284  45.5683060  56.9658737  36.8016930  46.0273209
  48.4595642  26.5502834  52.8218727  49.2104073  26.4159317  52.2435875
  47.7314110  26.7374229  52.2294197  21.3949871   1.7325001   0.4324606
  21.1585255   1.3741022   1.2879536  22.0914097   2.3616662   0.6205496
  59.6871109  33.9344444  28.0872478  59.8439674  33.6121292  28.9747944
  59.6696205  34.8871727  28.1780186  43.2196884  51.6219444  48.4459152
  42.3475418  51.3314781  48.7127876  43.3831139  51.1633377  47.6217766
  64.5462418  57.8230057  30.8645153  64.0231018  57.3881721  31.5379257
  64.9457397  58.5671577  31.3149281  55.3250122  49.9398727   6.0216188
  55.9870796  49.5528488   5.4488125  55.3980637  50.8821068   5.8696642
  83.0830383  67.9170990   4.7553406  82.6183090  67.1737595   5.1396680
  82.6518402  68.6869278   5.1263742  60.0335159  38.7938805  25.7717152
  60.4690590  38.0126152  25.4308891  60.5996475  39.0924377  26.4834652
  56.9859123  50.8617859  30.3781719  56.7945023  50.2199783  31.0620422
  56.8979836  50.3731842  29.5597763  45.4960327  69.8910599  44.5343742
  46.3027267  69.5716858  44.9386978  45.6553040  69.8197174  43.5932198
  42.1150055  45.0324135  60.9727592  42.3963432  44.2485580  61.4446182
  42.3395691  45.7569427  61.5565910  25.9356384  56.7882576  34.8218803
  25.5429077  55.9283295  34.6718330  26.6422844  56.6232185  35.4460945
  32.9243355  68.8231201  88.5147400  32.6301918  68.8399200  87.6040115
  32.1419334  69.0367432  89.0231094  81.7980347  37.5622597  80.1308517
  80.9553909  37.8644218  80.4697952  81.7507248  36.6079178  80.1876068
  55.7703323  63.2062073  13.4019947  54.8336678  63.2952385  13.5779800
  56.1949158  63.5191536  14.2007580  33.9162521  47.2598076  57.2012100
  33.4317741  47.7389603  57.8734665  33.4294662  47.4226723  56.3932838
  45.0348663   0.7908961  42.6563339  45.5802994   0.0081336  42.5787544
  45.0807457   1.0238485  43.5836220  31.4248734  53.4130707  61.8929520
  32.0962219  53.1906242  61.2479362  31.7141857  52.9831810  62.6977654
  77.9576416  36.7186317  33.9664078  77.4401093  36.0187187  34.3645515
  78.7809830  36.2971992  33.7199593   0.5561748  25.7817669  40.1049080
   0.6873821  25.9225082  39.1672440   0.4166649  24.8384666  40.1883011
  69.0172119  70.0639420  55.2997551  69.9066544  70.1360474  54.9534569
  69.1223831  69.6145782  56.1383514  74.0558624  36.6279297  84.9511490
  74.8969345  36.9407883  84.6180573  73.8616638  37.2042160  85.6903458
  75.7395248  57.8651466  54.8617096  76.5340881  57.3375893  54.9428558
  75.4461746  57.7195511  53.9622765  19.1740570  66.8864136  12.0618734
  19.4971504  66.0301437  12.3423204  19.9192333  67.4749146  12.1827269
  40.7062759  63.6841927  49.1186829  39.8142586  63.9988976  48.9720459
  40.8200912  63.7208176  50.0683861  60.0448265  25.1357594  29.0056419
  59.9289589  26.0514526  28.7520428  59.1790276  24.7440434  28.8908405
  77.5212097  59.2002296  50.8290520  77.8594360  59.8517456  50.2147560
  78.2919998  58.6987000  51.0947380  37.5608253  41.7975349  17.6350670
  37.9799309  42.4092827  17.0298004  37.3313370  41.0431252  17.0924511
  44.5771332  30.4667416  81.2890549  44.2477150  30.5296249  80.3925247
  44.3060150  31.2866707  81.7019043  16.8565159   7.5565467  80.3950729
  16.1443348   7.4330168  81.0225830  16.4158020   7.6925945  79.5563278
  19.1029415  60.6583099  33.4382706  19.0767441  60.1313057  34.2369041
  18.9285908  60.0342827  32.7336998  50.0812416   2.5006380  33.6417770
  51.0227814   2.4973493  33.4693718  49.8072357   3.3991804  33.4580002
  65.4088211  65.4834518  15.0458250  64.8179245  65.0074768  15.6293707
  66.2406921  65.0147247  15.1129761   7.6423855  13.0916939  16.0198517
   7.4969373  13.7896490  16.6585484   6.7680678  12.8808212  15.6922331
  63.2144394  69.2250061  86.7143402  63.4052887  70.1338882  86.4825211
  62.7261734  68.8841400  85.9649200  72.6446686  51.7087631  35.0214844
  72.4660492  50.9381828  35.5604935  72.1086731  52.4010925  35.4082947
  56.7876778  69.4639587  62.7470245  56.6541176  69.5791626  63.6878319
  56.2894020  70.1757736  62.3454361  49.1168823  16.9960651   4.4944067
  49.9437561  16.6192665   4.1935148  49.2398491  17.1231365   5.4351320
  19.1939125  11.7582636  10.6043415  19.9583015  12.2907267  10.8243933
  19.4214325  11.3453512   9.7712927  25.7936993  53.2772789  87.5781860
  25.4266109  52.4185181  87.7879639  26.1595173  53.1732979  86.6997833
  40.0737343  40.6950226  23.6172028  40.4620628  40.9232445  22.7726059
  40.6353645  41.1240005  24.2627888  44.4728889  21.1288109  64.5628586
  45.1217537  20.4516735  64.7544098  44.5616760  21.7555733  65.2808533
  49.3876343  46.0140038  52.2601318  48.9171104  45.8075218  51.4525414
  49.5163498  46.9619217  52.2266617  40.3830833   7.8676524  21.1329956
  39.6062012   7.6562819  21.6506920  40.5545006   7.0753908  20.6239090
  66.4099197  40.7735825  35.8077240  65.4641266  40.8268242  35.9450874
  66.7833023  40.8313522  36.6871986  81.6691666  43.6046333   8.2824173
  81.3099289  43.2142830   9.0791655  80.9579315  44.1453514   7.9389048
   8.9269819  22.7052841  73.4230728   8.5947208  22.8578033  74.3077011
   9.6913567  23.2770977  73.3524170  28.4356556  54.9002914  12.2382669
  29.0265808  55.3149872  12.8668089  28.1736603  55.6098633  11.6516724
  59.8433762   0.3868012   9.4087086  60.2907410  -0.2126006   8.8113689
  60.1588974   0.1387643  10.2777061  39.2278290  59.5852394  45.4894180
  39.5993423  58.7580185  45.1829643  39.6334000  59.7276955  46.3446655
  69.5107574  44.2156029  63.7778053  68.9046097  43.5365639  64.0739899
  69.2789230  44.3600197  62.8604012  16.4388905  10.2000599  24.5957184
  17.1029263   9.5939207  24.9241734  15.7242966   9.6356163  24.3007736
  41.3668404  51.4654160  57.0176735  41.3766403  50.5897255  57.4040718
  41.0764160  51.3262291  56.1162796  26.7715893  44.3701210  18.8541698
  26.5082760  45.2903824  18.8505650  26.3983650  44.0110512  18.0491829
  71.1229553  11.3283577  58.0849228  70.9655380  10.9944506  57.2017708
  71.6274109  10.6381960  58.5155411  73.7358246  46.9674683  24.5655212
  73.6654816  46.0147743  24.5050125  73.6448822  47.2721710  23.6626835
  17.7862110   4.6733932  68.4844360  18.4015160   4.4569097  67.7838898
  18.3421345   4.8966837  69.2309799  40.3221169   0.3957484  15.1152763
  40.5471268   1.3247590  15.1657009  41.0692062  -0.0080037  14.6736012
  34.6581573  70.7518082  58.6826401  33.9423752  70.8520813  58.0550804
  34.6115303  69.8352737  58.9547005   4.2953095  59.3227730  20.2050209
   3.3861241  59.5997009  20.3187065   4.5734620  59.7423325  19.3908749
  54.1642494  60.6886864  61.2811317  55.1184158  60.7443810  61.3330879
  53.8537598  61.4782639  61.7242928   3.9318378  68.7608643  82.4047318
   4.8874674  68.7274780  82.4481964   3.6399133  68.1361313  83.0685959
  23.7886391   2.4905951  74.2216263  24.5528698   3.0668726  74.2310028
  24.1445065   1.6180927  74.3899384  79.7461624  15.4860296  26.8687153
  80.1582489  15.3056984  27.7136364  80.4417877  15.8798018  26.3421421
   2.9400215  65.3908234  58.6474609   3.0782528  64.9718170  57.7980194
   3.3624935  64.8046341  59.2752609  78.5505676  15.8553095  43.6675224
  77.8386002  16.2728806  44.1522636  78.8529968  16.5289650  43.0584602
  52.9704056  18.8897667  29.6909294  52.0242195  18.7598133  29.7547531
  53.3263016  18.4386616  30.4564838   5.2745118   5.9815040  34.3578606
   4.5983958   5.6468916  34.9470406   5.0039606   6.8799372  34.1685181
  49.4347992  54.6858940  58.4691353  49.5643425  53.8093109  58.1071205
  48.5714531  54.9508705  58.1518784   2.0291049  13.1807528  42.0256653
   2.8557451  13.4119196  41.6020393   1.7324909  12.3982115  41.5610352
   6.5565867  67.2706604  41.0140762   6.3393507  67.5896225  40.1381187
   5.9934511  66.5064926  41.1372032  13.9267778  46.0882339  76.6760635
  13.0227528  46.4001427  76.7170639  13.9172459  45.4150314  75.9956665
  17.9775982  41.1406708   3.5760520  18.9156094  41.3199081   3.6411812
  17.5582561  41.9465866   3.8775113  66.3877640  40.4676971  18.3102169
  66.8402176  40.4223175  19.1525078  66.9194717  41.0654068  17.7846127
   3.0827267  46.6737633   6.8927550   3.3617699  46.0413628   6.2306104
   2.8273566  46.1375999   7.6434536  79.7066345  30.4699116  27.6062889
  80.0258255  31.3597164  27.4559708  79.8777161  30.0118713  26.7833920
  65.9078674  43.7164650  47.6152306  66.5987473  44.0739021  47.0574112
  65.9666672  44.2243080  48.4244690  40.1966782  62.7166595  10.5407028
  40.5233688  62.3866844  11.3777332  39.6499939  63.4664116  10.7757435
  34.3471870  60.8041725  84.0379791  33.7456703  61.5446434  83.9597702
  34.3944054  60.4395714  83.1541977   1.2210678  34.3067131  31.9227619
   1.4606634  33.5141907  32.4031067   2.0545452  34.7468262  31.7558880
  28.8363476  46.9284058  81.4481964  28.0534554  46.4797668  81.1287689
  28.7259045  47.8353615  81.1627731  21.4174843  45.1288147  77.1626892
  21.8422852  44.5681610  76.5135040  21.0415783  45.8452301  76.6511459
   4.7847109  70.0273666  65.4530334   4.9995670  69.1617737  65.8006210
   4.4208851  69.8533325  64.5849457  47.2380791  17.9818325  25.9398365
  47.7630997  18.7752304  26.0452232  47.2065659  17.8393860  24.9938183
  23.4456005  54.5783043  48.0917130  22.7068729  53.9762459  48.1813850
  23.3632889  55.1713333  48.8385544  45.9334259  64.6041794  52.3915749
  45.3686371  64.8982239  53.1062660  46.8003502  64.5231781  52.7892113
  47.7972374  15.1555176  83.3374786  48.6335258  14.6998005  83.4332657
  47.7614403  15.7503500  84.0865631  65.2249680  62.7342339  52.9550705
  64.9164047  62.1299934  53.6302910  64.4253006  63.1056976  52.5825272
  67.8298035  43.8412056   5.8727007  66.9263077  44.0453911   5.6313763
  68.3293457  43.9773178   5.0676179  50.4141464   1.2607067  78.1702271
  49.9054680   0.5568635  77.7676315  50.2090797   1.2009256  79.1032867
  61.2046776  31.8949547   3.1736155  60.9180527  32.5868835   3.7696977
  62.1339188  31.7781868   3.3713679  62.1366882  43.0621490  46.7753868
  62.7047272  43.7898941  46.5224991  61.9500847  43.2146797  47.7017479
  82.8315964  44.6728172  73.8116302  83.2282181  43.8216476  73.9971924
  83.2616425  44.9675407  73.0088654  33.7815247  55.9266891  52.7083321
  34.6561127  56.2305794  52.9511948  33.3485031  55.7508965  53.5436897
  77.5641479  64.4273224   1.4301741  77.2280197  64.1694489   2.2885153
  76.8731842  64.9745560   1.0568964  52.4790039  13.4064608  39.2790337
  53.2251472  13.9245758  38.9772720  52.1785698  13.8564997  40.0686150
  64.2094955  70.6539078  89.3400116  64.5244675  70.7545929  88.4417419
  63.7992134  71.4939423  89.5455322  15.0295668  32.2659531   1.0788693
  14.9737587  31.5235519   1.6805003  15.9460602  32.5390663   1.1198376
  12.6060076  62.5795441  83.5819626  12.4997759  61.6354599  83.6988068
  11.7241440  62.9352036  83.6917572  58.9680939  62.4497223  70.6619339
  58.8471832  61.5013885  70.7096405  59.8350258  62.5999069  71.0389099
  48.5457802   8.3938551  25.6640301  48.5147629   9.1270418  25.0494518
  49.0635109   8.7200518  26.4000893  71.4815063  63.9218941  61.6686096
  71.7642212  63.0761833  61.3206520  70.5318985  63.9250298  61.5483017
   9.1865120  36.4129524  40.9503670   9.5299234  35.7492752  41.5485535
   8.9201508  37.1343231  41.5203743  64.8676147  26.8186951  61.7834663
  64.8618164  26.0820770  62.3946877  65.4661407  27.4528217  62.1782761
  37.5626030  68.9859848  53.3731880  36.9899635  69.5286484  52.8311272
  37.3877563  68.0903549  53.0842133   8.8348036  65.4535446  42.1597862
   9.0536242  66.0449600  42.8799095   7.9288340  65.6697769  41.9391251
  48.4128456   3.1719666   3.6590722  48.8948898   3.9175436   3.3013296
  48.6304665   2.4442675   3.0765550  37.1838455  49.0843391  88.8943710
  37.5445786  48.3209267  89.3452682  37.7407799  49.8117027  89.1718521
   2.5624828  66.4654312  31.1853924   2.0297298  67.1146774  31.6446190
   3.1219935  66.0903931  31.8654823  24.7982502  41.9294434  42.6236610
  24.1128349  42.4112740  43.0865669  24.7186241  41.0314064  42.9452515
  70.5725250  31.5162010  88.2473068  70.8200989  30.6064339  88.0821915
  69.6293869  31.4825172  88.4072647  18.2739639  47.5767746  39.2121735
  18.6858768  46.8510323  39.6810684  17.3662930  47.2985229  39.0899353
  76.8999252  61.7788467  36.5508652  77.7755661  62.1481056  36.4362984
  77.0053635  61.1212463  37.2383804  72.0789108  61.6934052  11.6638241
  71.2394562  62.0202599  11.9874268  72.2479172  60.9091339  12.1859188
   9.3036919  10.9577503  27.7542152  10.1926641  11.3003635  27.6616096
   9.2845049  10.1855745  27.1888752  60.4067993  21.9709702  51.5858727
  60.6656609  22.4887753  50.8235741  61.2243347  21.8160877  52.0590324
  41.8561172  47.6638680  75.8328400  42.5542221  47.3197060  75.2756729
  42.2115021  48.4795952  76.1857147  26.8120651  65.8190155  43.7909622
  25.9057045  65.7209625  43.4991951  26.8101749  66.6213531  44.3129616
  73.3962631  62.6062889  38.8333435  73.6396332  62.1938896  39.6621590
  73.4536057  63.5457878  39.0073700  14.3493652  60.5322495  88.6522293
  13.8964005  61.3610344  88.4967499  14.0710926  60.2680473  89.5291519
   9.4837294  60.7620392   4.6189566   8.5417852  60.6046524   4.5541377
   9.5550222  61.6181793   5.0410624  75.1411438  57.2421265  36.8621674
  74.7972717  56.3530350  36.9487877  74.5145569  57.7885437  37.3365517
  56.3247528  54.6327782  24.4992199  56.3780327  54.9379578  25.4048996
  57.2293396  54.4292679  24.2614403   2.5229111  38.7977829  58.3536186
   2.1818962  39.6920624  58.3679276   1.7422981  38.2438927  58.3444481
  67.9071045  31.4053440  88.7288895  67.6981049  31.9110622  89.5142517
  67.4813309  30.5594730  88.8683472  38.6776772  35.8394127  76.5708084
  38.1866989  36.0998917  77.3501205  38.0563087  35.3226738  76.0578613
  62.2696724  50.4006271  35.7017632  62.2916183  51.1017952  35.0505219
  63.0221252  50.5751686  36.2670784  60.3233452  67.9061890  42.6340065
  60.8979988  67.6720581  41.9051781  59.6953011  67.1856308  42.6848488
  53.2309456  67.7275620  16.6215076  53.5960960  67.8032303  17.5030804
  52.4642029  68.3005142  16.6298561   7.2371135  47.3482208  27.2448826
   6.3098497  47.5177307  27.0785122   7.2469954  46.5190163  27.7229557
  57.4601669  48.1493912  58.5283890  56.7557755  48.3997383  57.9305649
  58.2248955  48.0370216  57.9637756  64.1563568  50.3691864  59.9413490
  63.8055649  49.9924850  60.7483597  63.7623100  51.2401505  59.8925285
  15.8346758  64.3584442  72.3289261  16.1821575  63.7242966  72.9560928
  16.1455402  64.0489120  71.4781723  66.9026794  29.7266541  56.0285950
  66.5415497  29.9004536  56.8978539  66.9948730  28.7745514  55.9935150
  71.2414169  34.4603539  10.3450832  70.3854599  34.1878242  10.0144930
  71.8669434  33.9135437   9.8697376  36.0223541   1.1630011  74.7004471
  36.5936394   1.9207976  74.5755157  36.5843658   0.5039513  75.1079102
  72.6422729  71.5370255  56.0994682  73.2707977  71.3713760  56.8021431
  73.0437469  71.1481247  55.3224182  45.1365929  71.3328552  74.7453156
  45.3222122  71.8652725  73.9718094  45.5706139  70.4977036  74.5710144
  60.0514984  52.7820702  52.1890373  59.1850128  53.1277199  51.9746475
  59.8930321  52.1642609  52.9027824  55.2829475  31.2944851  59.0084419
  55.8581238  30.6007843  58.6856651  55.8598213  32.0495415  59.1239433
  72.4937744  38.6655655  56.0058746  72.8219223  39.4599762  55.5846138
  72.6306915  37.9759636  55.3563080  59.8012314  43.5205841  10.8683491
  59.8300247  43.3147430   9.9339876  59.4634933  44.4154243  10.9061718
  53.0688210   6.3621006  25.4952335  52.6493492   7.0801072  25.9693012
  53.8186989   6.1216202  26.0393696  48.8220482   0.7386500  24.5540390
  48.3586540  -0.0984686  24.5270424  48.6459923   1.1374578  23.7018719
  77.0551834   7.1093121  12.9353600  77.9110947   6.6998649  13.0618572
  76.9267578   7.1077237  11.9868164   8.6334505   7.9671512  61.8110428
   8.6862402   7.8733015  60.8599205   7.7828913   7.5935726  62.0417404
  80.9084625   4.5627608  66.4490891  80.4025192   4.0987744  67.1161575
  81.3150558   5.2902966  66.9198380  74.1919556  35.0161858  24.2509022
  73.8554993  34.1230240  24.1781063  74.3902359  35.2716064  23.3499718
  26.9257088   2.7278419  51.2627525  27.2256680   1.8203859  51.2100258
  27.6962414   3.2185752  51.5485725   5.8955684   3.3450081  15.4566879
   6.1827765   2.4638224  15.2174072   6.7060976   3.8481989  15.5346165
  23.5174904  52.7644234  63.9392052  22.5848389  52.7690544  64.1545410
  23.5677338  52.3030014  63.1020699  65.7552338  25.2233410  68.9413147
  65.3765564  24.7719402  69.6956787  66.6780548  24.9691982  68.9485703
  58.2731476   4.6047459  44.1009560  58.4148407   5.3578024  43.5273170
  57.4705544   4.8149600  44.5783310  78.1229630  19.9478741  70.1181107
  78.2699432  19.8547478  69.1768570  78.0933990  19.0490665  70.4459915
  35.8783798  49.7111473  29.0101624  36.8013191  49.5923424  28.7858906
  35.8539467  50.5362473  29.4947701  73.9671860   2.0040193  34.7835999
  73.2011108   2.5182626  35.0383835  74.1908264   2.3243182  33.9097443
  38.7626266  35.2952003  16.3776302  38.1895943  36.0580864  16.4542427
  38.5630760  34.7671623  17.1506691  15.3104506  33.5196381  22.2530727
  14.7613277  32.8635674  21.8238068  16.1940250  33.3396721  21.9319153
  35.0796013  31.2541695  23.9692249  35.9222527  31.7080250  23.9555988
  34.5050125  31.8309574  24.4726086  56.4175491  57.3167953  68.7746353
  55.9490356  57.5442619  69.5777435  55.8871460  56.6274567  68.3749847
  38.4695244  47.8624611  83.7488937  38.5590630  48.5808868  83.1227341
  37.7023163  48.0948639  84.2719727  54.0539856  42.1406212   2.2522037
  54.8159142  42.7193604   2.2246532  53.8728943  42.0273170   3.1852627
  20.4960785  23.4384251  14.6395674  19.8255100  23.0366287  15.1919518
  20.1425457  24.3011513  14.4228916  86.5396729   8.1219616  44.6549301
  87.1408157   7.5874381  45.1737213  85.8300171   8.3394070  45.2593613
  36.3684196  57.4907036  18.6324558  35.8292809  56.7875214  18.9945259
  37.2621346  57.2638283  18.8894215  55.4696579  57.9833679  32.6109543
  55.1775017  57.0719566  32.5965767  55.9327545  58.0733261  33.4438286
  48.0899963  25.0707397  25.1373539  47.8480644  25.5314941  24.3339825
  47.4959183  24.3209877  25.1716270  20.7416515  37.9401169  65.0821457
  21.0049438  37.1341591  65.5263748  19.8894215  38.1551132  65.4612427
  62.3545761  37.6167793   2.4892082  61.4580231  37.3395424   2.6778016
  62.3004150  38.5697098   2.4169471  17.8770237  39.5532608  74.9204865
  17.2057800  39.2808762  75.5461655  17.7556705  38.9710922  74.1704330
  35.0075340  22.3658466  83.3340454  34.8225403  23.0941772  83.9269562
  35.1160316  22.7768154  82.4763947  19.1938934  10.9546881  18.7739639
  18.5543442  11.5450735  19.1722775  19.5313377  11.4399004  18.0210152
  20.9208889  55.1537743  62.7061081  20.3843727  54.4721413  63.1107788
  20.3662491  55.9338112  62.7181282  30.8189945  26.9007092  72.2363510
  31.3895226  27.1290035  72.9702530  31.1630974  26.0669975  71.9158020
  34.1853104  47.6569939  52.5248718  34.9175873  48.1593742  52.8821068
  34.5910683  47.0478821  51.9079628  73.7984619  21.4364357  38.3167458
  73.9402161  22.2696857  38.7659988  74.3758163  21.4742031  37.5542068
  11.5635977  60.1710014  21.0221157  12.4715118  60.4514389  21.1373482
  11.4781790  60.0166054  20.0813198  75.1185074   6.6044035  74.1239624
  74.2023315   6.8300014  73.9628448  75.2991867   5.8876109  73.5158539
   6.8488874  13.8767576  25.7246437   7.1502428  14.5231991  26.3630257
   7.6489191  13.4449348  25.4251270  48.2187691  69.8341064  40.6965714
  48.0255432  70.3749771  41.4623146  47.3965416  69.3810577  40.5097008
   8.2486715  67.5847931  36.2361259   8.9073477  67.4069290  36.9075012
   8.4237480  68.4848251  35.9613266  50.8246574  53.1429482  68.8852234
  50.2109795  53.6880569  69.3776550  50.5892258  52.2453232  69.1199036
  20.4631214  68.1369553  27.3709145  21.2002716  67.7781601  26.8768387
  19.8633385  68.4657516  26.7012997  82.3274841   7.3631477  31.7113647
  81.6775284   7.9705248  32.0647545  82.4301453   7.6274753  30.7971306
  65.4206009  47.0399551  77.9712906  64.4951553  47.2765579  77.9096603
  65.5510788  46.3992462  77.2722168  43.1319351  26.7130756  10.1380768
  43.5723839  27.4403992   9.6984844  43.8430710  26.1954288  10.5156517
  30.7228794  19.5436401   8.2640533  31.6556988  19.4299202   8.4461145
  30.5783234  20.4872112   8.3348417  74.7907486  63.3468132  15.5351276
  74.1387863  63.0236740  14.9132261  75.3744736  62.6019440  15.6788645
  49.6712990  37.3860207  11.6780014  49.6649208  36.8344727  10.8957052
  49.6153603  36.7682838  12.4070444  22.0905056  48.3383904  36.6382256
  21.4968643  48.0743484  35.9353027  21.9969692  49.2898102  36.6859894
   0.1593423  35.6460190  12.4354067   0.3648929  34.7194786  12.5599174
   0.0051054  35.7328262  11.4947119  31.6897469  47.3283081   3.7680550
  32.5314484  47.2195244   3.3254101  31.4166718  48.2189140   3.5478528
  19.6313190   3.6557629  15.0821981  20.4301529   3.9161866  14.6236410
  19.5353336   2.7238772  14.8857107  69.8981476   9.5085773  14.5695333
  68.9454269   9.5167379  14.4773712  70.1541519   8.6174164  14.3317823
  53.2596703  60.0990677  42.3070107  52.8240547  60.0854683  41.4547844
  54.1875381  60.2105255  42.0999641  51.3258629   5.8874779  36.5862465
  50.8928757   5.3659439  37.2620811  50.6273880   6.4271994  36.2160225
  33.5495644  63.3353233   0.5634286  33.1575851  63.5260544   1.4156066
  33.5955391  64.1851501   0.1253440  15.1627693  45.1792679  10.1094198
  15.0244093  44.2935562   9.7738600  14.5869045  45.2392883  10.8716593
   9.4351349  54.4174614  12.3321543   9.4993744  54.3579597  11.3789673
   8.5905399  54.8395576  12.4894028  78.5151749  55.7036209  41.4992065
  77.6682663  55.5023804  41.1011086  78.3959274  55.5067101  42.4283142
  73.7478638  66.4736252  44.4644508  74.5729752  66.3921432  43.9861488
  73.4175262  65.5773773  44.5265961  54.1255684  30.7994442  43.3632317
  53.8775902  30.1625137  42.6931152  53.3250999  31.2978153  43.5278778
   3.9973347   5.5217185  60.1950836   3.3230631   4.8608236  60.3525887
   3.7989571   5.8632059  59.3231506  39.6094131  67.9466019  29.1324940
  39.9480591  67.9082718  30.0269680  38.9857368  68.6726456  29.1434212
  29.3682919  45.8522911  42.9250298  29.5359020  46.5424957  42.2833443
  29.2976570  46.3140373  43.7605171  52.7266350  28.0977440  41.8851318
  52.6663857  27.1831284  41.6093063  52.0986404  28.5577526  41.3281326
  78.7148285  42.4840508  23.0156937  78.0802155  43.1172867  22.6802597
  79.1940918  42.9611511  23.6931248   7.4950657  52.3483849  28.1235390
   8.0785189  53.0291176  27.7882500   7.7932477  51.5455017  27.6961060
  81.1986694   8.1172915  87.1121140  81.5985413   8.4952927  86.3288803
  80.5939941   7.4554129  86.7766876  32.4647217  45.4672623  72.9812317
  32.7400742  44.5601425  72.8487625  31.5188541  45.4542465  72.8349533
  71.1237335  23.1783295  79.2469330  70.5401688  23.7416039  78.7385941
  71.8143845  23.7650280  79.5551834  49.4747238   5.1560583  88.7403488
  49.7176170   4.3326435  89.1636963  50.0867195   5.2390194  88.0090408
  39.9289856  14.8056183  75.9081268  39.3246460  14.9884911  76.6275406
  39.4338531  14.2375212  75.3179245  29.3802910  13.1115904  16.2955074
  30.1366329  12.6029005  16.5877666  28.8162880  13.1668930  17.0669174
  77.4151306  57.1965485  33.3024139  76.4595718  57.2299500  33.2575378
  77.7073746  57.8741722  32.6927795  50.2861557  58.0318604  44.1420670
  50.2013283  57.1415405  44.4831924  51.1807594  58.2894363  44.3647118
  67.4313126  29.2362537  85.7606277  67.3362808  28.7502289  84.9414978
  68.0790405  28.7392216  86.2602692  83.0958710  54.5362778  67.3948212
  83.0140686  54.2683525  66.4795380  82.2795639  54.2474480  67.8028030
  54.3428688  64.0866547  60.7994804  53.9507370  64.6939316  60.1720428
  55.1590729  63.8075142  60.3846016  58.0745773  50.6898003   7.2531238
  57.6299362  51.4771309   6.9390588  57.8581619  50.0183296   6.6061878
  53.8077698  33.9600906  54.0824776  54.4963417  33.4204216  54.4708862
  53.7780991  34.7429161  54.6325111   5.7459359  26.9636116  19.3409767
   6.3362923  27.4446831  19.9208755   5.9419498  26.0421600  19.5104980
  80.5557480   7.3507705  78.8970871  80.9114380   8.2218857  79.0728073
  81.0896912   6.7619863  79.4304428  54.3256836  34.6099014  32.7245407
  53.4410400  34.8799438  32.4781380  54.4568367  33.7770462  32.2713509
  65.5165558  60.9019775   2.4618123  65.0258255  61.2373466   3.2121074
  64.8643723  60.8210449   1.7658664  56.7837219  40.3660660  21.5568142
  56.5086021  40.0799980  22.4278526  55.9983788  40.2781487  21.0166836
  39.3130112  12.5144672   7.8850689  40.2472153  12.6841450   7.7638078
  39.2649078  11.5835171   8.1024380  85.0483932  20.6980629   9.6225567
  85.2808685  20.0082092  10.2440796  85.4649811  21.4857578   9.9721632
  11.5847263  55.5453186  13.6583929  10.8336353  55.0127411  13.3967590
  11.2390661  56.4362297  13.7134390  81.3947372  36.4348106  85.9773712
  82.1400833  36.0075836  85.5552750  81.7880020  37.1034088  86.5382233
  35.2077637  58.6846237  30.0134087  34.7881279  58.2158356  30.7347794
  34.4845047  59.1043625  29.5476303  72.2499161  29.5345345  57.9220810
  72.2117996  30.4896107  57.9731827  72.4446335  29.3514404  57.0029526
  82.8265228  67.0730209  68.9105530  83.1285706  66.8165512  69.7818832
  82.4906921  66.2635422  68.5255890   2.4118202  57.3882027  37.4094238
   2.6705456  58.2554207  37.7212334   2.8106830  57.3166428  36.5422325
  50.2114372  31.6507607  84.6160660  50.0364571  31.4493923  83.6967926
  51.1472816  31.8499165  84.6436996  38.0115471  36.9814835  -0.0100974
  38.2030602  37.2498131   0.8885423  38.7565880  36.4353790  -0.2609306
   6.5336995  47.0490532  76.2359924   6.7036490  46.3576813  75.5961838
   6.5867758  46.6087151  77.0842361  20.4092770  14.8938751  29.1752625
  20.3031483  14.8864756  30.1265316  19.7459641  14.2823200  28.8554993
  82.2477188  65.1394882  84.1775513  83.1581726  65.0886154  84.4686050
  81.9474182  65.9968796  84.4791031  43.6953468  51.3306160  53.9160080
  43.7052383  50.7429428  53.1605110  44.1531677  50.8456993  54.6026573
  57.4435310  63.6847305  85.3176727  58.3632164  63.9447060  85.3708191
  56.9897614  64.2877350  85.9064941  34.3865204  57.0830536  36.8027954
  34.1885376  56.7513771  35.9269981  35.2798538  56.7856522  36.9752502
  54.4375572  65.6683731  86.7805099  53.7948151  65.3389587  86.1523361
  54.0064049  66.4159622  87.1945801  21.7867393  29.2522545  83.1734772
  21.8552189  28.3957367  82.7516785  21.3022728  29.7897587  82.5468903
  68.4934464  62.3160934  50.9867706  68.9439697  61.5137444  51.2503815
  68.7882156  62.4725914  50.0896339  45.4969368  10.2366838  14.5540037
  44.6667862  10.5657663  14.2093506  45.2689400   9.4097662  14.9788036
  63.8018532  32.0217094  61.1536331  62.8742943  31.9131966  60.9436607
  64.2435455  31.3407898  60.6461983  64.0536804  36.4806404  36.2367249
  64.6219177  37.2413025  36.1153336  64.1060867  36.0075684  35.4062500
  85.5855789  37.1164513  53.6140976  86.2411804  37.7657967  53.8685913
  85.8507690  36.8393631  52.7370949  13.4547071  54.1363029  50.9373894
  14.3610525  53.9585915  51.1887627  12.9835863  53.3321228  51.1555023
  82.5122833  55.1756020  73.0280533  83.1486588  55.1467819  73.7425003
  81.6609268  55.1385384  73.4639969   1.9117807  68.9853134  67.2392197
   1.1693527  69.4483795  67.6272964   2.1245732  69.4895325  66.4539032
  66.2549438  33.3406410  61.7815552  66.8596115  33.7872581  61.1889801
  65.4118271  33.3686180  61.3292160  39.5346756  49.3274117  45.7444649
  38.9729042  49.1935539  44.9810982  39.9888687  50.1509018  45.5661430
  68.3184662  38.6316071  43.3293152  68.0799179  38.7354393  44.2504807
  69.2541885  38.8311081  43.3002625   4.3033390  64.8543091  75.1504974
   3.9263170  64.9129944  76.0283585   4.1947970  63.9357491  74.9041290
  17.0034294  46.6009331  17.1443634  16.3317909  46.1426697  17.6494637
  16.8043480  46.3880615  16.2326164  18.7984009   7.9471278  87.8047333
  18.1042995   8.2937975  87.2441254  19.4958000   8.6008406  87.7544556
  60.4670715  15.6778536  43.1060638  60.6886635  16.2605019  43.8324585
  60.3569527  16.2617989  42.3556557  59.4559288  36.5972443  64.6530838
  59.7676392  35.8329468  64.1684036  60.2517166  37.0797386  64.8770370
  60.1885872  68.2912903  22.0062275  59.4869804  68.9187546  21.8322525
  59.8129997  67.4418030  21.7748699  43.0092964   2.4653168  72.1674194
  43.7666512   1.9877795  72.5059433  43.3308754   3.3558798  72.0270004
  55.4857941  31.4840183  34.7229691  56.3054848  31.9644718  34.8391800
  55.7258568  30.5663033  34.8510284  68.0502930  29.0500927  41.4257431
  68.9807205  28.9011745  41.5941315  67.6052094  28.6586285  42.1773338
  29.7642994   1.0164945  45.1082039  30.4094143   1.2249260  44.4324722
  29.4094162   1.8658497  45.3706627  37.4321594  59.4243126  28.8477592
  36.4899940  59.2820549  28.9389629  37.5131073  60.0246315  28.1066151
  64.6690445  26.8025913  52.5111542  65.0492477  27.3835793  53.1700439
  63.8398132  27.2183743  52.2750740  72.0944748  36.5093269  82.3223495
  72.2902298  37.3953018  82.6272507  72.0746765  35.9804535  83.1199265
  24.8840523  29.5347614  23.8887672  24.0993767  29.3223400  24.3941326
  24.7687168  30.4523087  23.6417122  12.4199600  67.4785843  45.4706039
  13.1467094  67.0295868  45.0387840  11.9817314  67.9568329  44.7667122
  84.0878372  53.4940987  12.9913082  84.4988327  53.6345177  13.8442984
  84.1326828  52.5474625  12.8567610  19.9892368  48.4772224  46.5599594
  19.3808289  48.5083580  45.8216476  19.9183559  47.5819435  46.8911362
  31.3197746  -0.0695479  85.6252365  31.7501850   0.5875409  86.1722412
  30.4178104  -0.0936526  85.9447861  43.3813629  61.5714684  68.8733673
  43.5918579  60.6386261  68.9149323  42.6252632  61.6723900  69.4516068
  57.6038132  65.4819717  83.4184647  57.2982903  66.2954025  83.8199768
  57.2402954  64.7905350  83.9716415   4.1579084  43.1638680  80.8907318
   4.0088058  44.1093826  80.8893051   4.8418498  43.0302391  81.5469284
  80.6886673  26.0384407   0.5632672  80.4456100  25.3308086  -0.0337335
  81.5850525  25.8314781   0.8276536  32.4383583  58.2217484  61.3521652
  33.3198586  58.3181801  61.7125626  32.0432167  59.0879936  61.4507256
  52.3751106   1.8649684  11.8116903  53.3249092   1.8245130  11.9234209
  52.2452202   1.8633047  10.8633461  79.2357330  12.9635878  28.4083157
  79.9681396  12.3559980  28.5114727  79.5563736  13.7891016  28.7715607
   2.7033801  35.2019806  81.4476089   2.8183250  36.1266747  81.2286072
   3.4729540  34.7704697  81.0764160  15.7115669  10.0607319  85.9234390
  15.9972162  10.9580345  85.7517319  14.8109331  10.1514959  86.2346497
   8.5607185  40.0427132  61.0037575   8.3794785  39.1396790  61.2643547
   8.0624838  40.1633110  60.1953964  34.5576248  71.2574692  37.9542961
  35.0380058  70.7854614  38.6344986  34.7483673  72.1802063  38.1228447
  24.5957603  49.5425453  16.9597778  25.1959782  50.2482986  16.7191887
  24.0663643  49.4004250  16.1750660  31.2503204  71.1079178  39.6301308
  31.1082325  71.4867172  38.7626305  31.7757378  70.3247528  39.4663734
  56.2387276   1.7223662  36.9213181  55.3093491   1.9485363  36.9578247
  56.4585876   1.7623873  35.9905701  18.8982849  34.9612656   1.2418220
  18.9012623  35.1345139   0.3004358  19.1912041  34.0532761   1.3191811
  67.1240387  66.2785568  47.6325493  66.2681046  66.3782501  47.2158089
  67.6852722  65.9210815  46.9444656  83.5421906  18.1500282  32.1157227
  83.8676682  18.1758003  31.2159233  83.5820389  19.0596809  32.4109802
  68.4272079  56.6836243  12.1600771  68.5231400  55.7391090  12.2822065
  67.8012085  56.9498482  12.8334827  21.0559788  13.5913801  11.4130650
  21.9992599  13.5417004  11.5679379  20.7118912  14.0542955  12.1769657
  67.6891785  25.1671524  86.8682709  68.0491180  24.3212986  86.6014252
  67.6746292  25.1302929  87.8246460  56.4124908  55.3087044  43.8568840
  56.4731102  54.3981972  43.5678558  57.1643867  55.7395897  43.4504128
  62.8923798   2.4384785  65.3940430  63.1085701   3.2646532  65.8264008
  62.1496239   2.6510768  64.8289337  53.2733879  69.8795395  11.0957289
  52.9971886  70.5285263  10.4486160  52.4725571  69.4025803  11.3134775
  35.9110222  46.1500549  51.2094002  36.0792847  45.2805481  50.8462486
  36.4641876  46.7363663  50.6931839  53.9893913  14.4843702  31.5001125
  53.3137207  13.8506069  31.2591934  53.9334564  14.5431910  32.4538651
  77.3181458   0.2321294  38.4129066  77.3836212  -0.0606447  37.5039368
  76.4206085   0.5540350  38.4967957  77.9071732  46.9619865  57.1150970
  78.4231873  46.6198921  57.8451195  77.5407333  47.7825851  57.4446030
   7.7761040  70.7548828   3.1868615   8.5419559  70.2081375   3.0114410
   8.1025743  71.4470367   3.7618198  34.9644547   4.3653150  50.0624466
  34.8812485   4.9818501  49.3349876  34.9448929   3.5024519  49.6485405
  13.3916836  30.0208244  80.5871964  13.5005541  30.8489246  80.1196213
  12.7781124  29.5207405  80.0489807  52.7275505  29.5797749  78.8828354
  52.6725655  30.4875393  78.5842133  52.8922958  29.6466045  79.8233795
  70.5965652  28.1221638  62.0072975  70.7290878  27.6237774  61.2008972
  69.9440994  27.6195297  62.4950180  50.1844177  57.4467812  19.7748280
  51.0226479  56.9863815  19.8152637  50.4015427  58.3088913  19.4200726
  20.5081787  13.0440750  17.1765862  21.1761456  12.6905537  17.7640171
  20.7119122  13.9773989  17.1163292  42.7568130  25.9222832  71.9400482
  42.4431419  25.8214359  72.8387527  42.9263344  26.8599739  71.8493347
   1.3361647  39.8120003  61.4213371   2.0356092  40.4238358  61.1918526
   0.6280802  40.0178528  60.8110352   9.7330008  37.4404297  86.3693237
  10.6193094  37.5115318  86.0148773   9.8611050  37.2790604  87.3040848
  44.0537186  70.0156021  16.8041401  43.3058281  69.9442215  17.3972645
  44.3255348  70.9309921  16.8705177  30.7948570   4.2226543  12.6131706
  29.9299049   4.5734401  12.8253956  30.8813019   4.3535209  11.6689072
  65.6281204  49.6243057  34.8829346  65.3159332  48.8335075  35.3227158
  65.1630325  49.6325874  34.0463638  20.2373161   4.2266779   3.6605122
  19.3673820   4.4084430   4.0160513  20.0803375   3.6060717   2.9488678
  50.2330208  57.7805138  33.3100586  49.2957649  57.8975029  33.4652863
  50.6427879  57.9900246  34.1493607  28.9927883  66.1331253  75.8968124
  28.9136105  66.9596786  75.4206009  28.1104031  65.7624588  75.8815842
   9.3785543  14.7201347  71.1881027  10.0794830  14.5506935  70.5586395
   9.0882359  15.6103411  70.9894104  33.4683762  37.3653946  15.0237818
  33.9715919  38.0479164  14.5797472  34.0070190  36.5784760  14.9409590
  83.1625748  38.5893631   4.9802551  83.7688751  38.0267029   4.4985476
  83.0610733  39.3626022   4.4252501  80.4304047  35.9957771  37.2301750
  80.5170212  36.9402161  37.1006889  80.1000671  35.9058762  38.1240540
  71.1223373  17.8905983  80.2750854  71.9177017  18.2064953  79.8463287
  70.4091339  18.2113285  79.7230835  84.4505005  15.4017448  30.0919361
  84.4168472  16.3538151  29.9988689  85.2798538  15.2340059  30.5394535
  85.7046280  19.9798164  80.5858078  85.1354752  20.6716290  80.9229965
  86.1768417  20.3900585  79.8612747  70.8117752  10.8524580  11.9291353
  70.2823715  10.5358658  12.6610746  71.6465988  11.0998507  12.3267403
  35.0273743  37.7574043   4.9794431  34.5132446  38.5599060   5.0682993
  34.5222015  37.0957603   5.4519458  25.5329037  35.3195343  18.5808601
  26.1588402  36.0317383  18.4497032  24.7624702  35.5819702  18.0770855
   1.4915165  53.8171196  62.0168839   1.5001191  53.4069862  62.8817253
   1.4171520  54.7542839  62.1969643  84.4462662  35.2363586  68.9733429
  85.3978424  35.1390038  68.9378738  84.1203156  34.6559105  68.2855453
  68.3367004  18.6185417  42.6566696  68.4245224  19.5571709  42.8224907
  67.9681320  18.2657013  43.4665375  80.9078369  22.4890461  86.0828323
  81.5547562  21.8957481  85.7011032  80.2366257  21.9106064  86.4449310
  65.3805923   6.1047602  87.2343521  64.5469818   5.7993455  87.5922012
  65.6889343   5.3786240  86.6922455  32.1388588  18.3754349  74.9922180
  32.5145645  17.6250706  75.4526901  31.2905674  18.5146008  75.4132462
  51.1043434  54.5656319  60.5862160  50.8338165  55.4760056  60.7056427
  50.5843964  54.2566185  59.8443298  17.0555172   1.4936894  30.5983505
  17.3305607   0.6617324  30.9836159  17.8559322   2.0174325  30.5628471
  13.8334942  56.8188820  40.8880234  13.5887003  57.0487061  41.7844009
  13.0725536  56.3507080  40.5444908  10.0718346  65.8503571  18.7239323
   9.4980698  65.8592758  19.4900551  10.6693830  66.5849609  18.8636494
  55.2542381  47.4635315  14.0732031  55.9611702  47.8670120  14.5768719
  55.3027954  46.5336037  14.2948151  47.0302505  64.8589630  77.5330276
  46.5369186  64.4011688  78.2136688  46.9819794  64.2803497  76.7720337
  82.5987396   6.1898785  52.9481812  83.2857437   6.8505764  53.0361214
  81.8588867   6.5467930  53.4395638  15.7598457  46.5081902  36.3479080
  15.9429178  46.3206062  37.2685204  14.8447762  46.7888718  36.3380394
  59.7782822  27.5079479  73.1540985  60.2689362  26.7613029  72.8105698
  58.9716644  27.1258335  73.4999084  42.5465736   2.3606033  69.3123856
  42.7952499   3.2826290  69.3776703  42.5695152   2.0418835  70.2146759
   1.1603527   1.8234241  47.7738838   0.7745097   1.9131185  46.9025002
   1.5070542   0.9313958  47.7916489  73.3112335  22.1920853   3.3057003
  73.4859924  21.5814190   2.5896153  72.9366837  22.9620647   2.8778243
  24.9388237  66.8146286  24.2721157  25.7612228  66.3301849  24.3442707
  25.1265297  67.6655426  24.6682835  61.8363419  41.9114075  60.3892975
  61.1328812  42.4539223  60.0328560  62.1755562  41.4320335  59.6334076
  21.3426647  57.1964874  84.5437393  22.1102390  57.6383209  84.1806335
  21.7029514  56.5542679  85.1552811  19.4205723  55.0771484  76.1075897
  20.0738621  54.3783112  76.1402740  19.7713604  55.7035217  75.4744720
  64.3041382  38.9514885  11.5452156  64.7380524  38.3216934  10.9696198
  63.3770027  38.8858299  11.3164349  17.9876709  44.5984039  25.4070816
  18.6965027  44.1093025  24.9892673  17.2147789  44.0456429  25.2916374
  42.8857956  36.7987366   4.5614843  43.5315475  36.4132385   3.9693449
  42.5391045  36.0552063   5.0546350  19.6215992   5.1029253  88.9968338
  19.3237972   5.2065706  89.9006042  19.2769737   5.8711333  88.5415039
  81.5403061  71.4858322  38.3221130  80.7132263  71.1054764  38.0263100
  82.0124054  70.7536240  38.7186279  55.8575058   6.8484840  68.9395523
  55.0181732   7.2412701  68.6998138  56.2162285   7.4368463  69.6039200
  25.7915878  60.8320694  44.8491096  26.4129353  60.1475143  45.0971947
  25.0784149  60.7490616  45.4821396  33.6354446  23.6900768   4.8540616
  34.4209671  23.9965649   4.4010129  33.0434799  23.4209442   4.1516523
  86.1153641  30.4226227  79.3324051  86.5872955  29.8931084  78.6896515
  85.5480042  30.9871769  78.8074188  73.8034668  35.2036362  66.5802231
  72.9566422  34.8103981  66.3693161  73.8531723  35.1672974  67.5354385
  54.5364265  34.8201103  83.2770233  53.7206345  35.1138115  82.8714981
  54.6058617  35.3389206  84.0784302  75.7812805   3.2786722  32.8718643
  75.3743591   4.0134859  32.4128494  76.4927673   3.6748970  33.3748779
  22.0450153  11.1531219  23.0196285  21.6326103  10.9744987  23.8647594
  22.5414944  11.9591961  23.1609955  72.7598267  24.3935127  38.9693375
  72.1564102  24.7828770  38.3364716  73.5983353  24.8210697  38.7951660
   8.1336203  11.8022852  61.0574036   7.2813931  11.7247257  60.6285400
   8.7308502  11.3099794  60.4942131  74.7394791  36.4421043  77.7651138
  74.5637436  36.8973999  78.5885544  75.2933044  37.0463791  77.2707748
  37.1693192  31.6792240  12.7229462  37.2037582  32.6352196  12.6895475
  38.0866776  31.4060650  12.7144070  67.9238892  56.9201698  37.2185059
  68.0115051  56.1313782  37.7536316  68.4025574  56.7185287  36.4144859
  -0.0729194  13.3618031  76.6329727   0.7477624  13.8292723  76.7884903
  -0.6283399  13.5994568  77.3754425  34.2663803  24.2500839  75.3506546
  34.6480980  23.5261612  75.8471069  33.3957977  23.9382496  75.1035233
  81.7673798  35.5269814  13.6396084  82.6692200  35.3048210  13.4081821
  81.8115768  35.7769203  14.5625429  73.3351135  19.0174198  78.6885986
  73.5569382  19.7198448  78.0773544  73.3862152  18.2184029  78.1640091
  38.1385231  38.6169777  10.0888853  38.1549454  38.6078606  11.0459003
  37.7562485  39.4652176   9.8639679  30.1331959  33.6983719  75.8779907
  29.6224785  34.1019135  75.1761703  30.7799187  33.1584625  75.4235916
  36.3204956  55.3480377  24.5064678  35.5896034  54.7302132  24.4885349
  36.0994949  55.9601860  25.2083702  22.1399250   4.4308839  87.3457794
  22.5837479   3.8997014  86.6846466  21.5301056   3.8264155  87.7688293
   8.4794579  44.2378120  18.8378029   8.1288061  44.2782631  17.9480629
   9.3790770  43.9301910  18.7269440  68.2902985  71.1960831  81.6819687
  68.1821976  70.8037109  80.8156052  68.6721191  72.0566559  81.5092010
   8.2763367  26.5440559  10.1267920   8.6515169  26.7446194  10.9842567
   8.6440802  25.6903934   9.8981915  43.7055168  26.4557171  13.6765575
  43.9430084  26.0914078  14.5292654  42.9891281  27.0616055  13.8660774
  57.0447807  29.4863758  57.4191170  56.9736938  29.9160156  56.5667152
  56.6079941  28.6430912  57.2994537  39.1369629  17.8098259  74.0419998
  39.5822296  18.3106365  74.7254868  38.3875542  17.4127140  74.4857559
  46.5645981  18.4839783  30.3124275  47.2936630  18.6038094  30.9209824
  46.7983665  17.7039948  29.8092270  84.7486877   3.5692842  21.6756477
  85.6437378   3.6265082  22.0100746  84.4819870   2.6682727  21.8580780
   8.8163662  42.2113953  78.8081741   7.8823247  42.2483673  79.0141602
   9.2058077  41.7413254  79.5454636   0.4920494  15.7214727  42.0298004
   1.0278766  14.9364958  42.1435242   0.9834720  16.2589912  41.4086685
  65.2039871  19.7404461  24.8474731  65.2789764  18.9229259  24.3552628
  64.4729691  19.5925941  25.4474545  81.2123947   4.8345933  74.2201767
  81.0230255   4.3564291  73.4128799  82.1682053   4.8600640  74.2648773
  32.8280373  55.8909302  45.3656578  32.7548943  55.8173523  46.3172188
  32.0744629  55.4059334  45.0292969  32.4330063  21.4708309  75.8079453
  32.5320511  20.5887623  75.4496460  32.1622849  22.0039673  75.0604706
  51.1628723  46.6673546  24.9537354  51.3678436  47.0899429  24.1196861
  51.2405510  47.3670959  25.6022396  65.3497696   6.9113727   0.5514444
  65.5859985   6.7811675  -0.3669635  64.9781265   7.7930021   0.5804883
  38.2427788  66.5744324  78.3978119  38.9165001  66.3211975  77.7667770
  37.4221649  66.2786255  78.0037079  25.7437420  64.1114807  11.0328169
  25.3285942  64.4589386  10.2434158  26.1929035  64.8638077  11.4181662
  36.4047127  41.8220139   7.4938030  36.7998047  40.9502907   7.4785190
  35.6406631  41.7287407   8.0628014  84.1101608   9.2188196  49.3765793
  83.4952621   9.9381304  49.5205345  84.8512497   9.4191942  49.9483032
  84.8057861  19.0015907  38.0027924  84.6740417  19.0636444  37.0567360
  85.5662308  18.4287262  38.1016541  61.0120697  61.1780281  85.8245010
  60.2552567  60.5931206  85.7877808  61.2462997  61.3244476  84.9080276
  41.4765549  67.4642181   8.9501791  41.5303726  67.0751190   9.8230705
  42.3883629  67.5784302   8.6822271  14.7721167  46.6133804  42.6900444
  14.1177378  46.6257286  41.9915695  14.3848724  47.1385841  43.3903580
  85.6492996  40.0252151  10.0250082  85.3279648  40.1488380   9.1318722
  86.0912781  39.1763992  10.0051947  78.5797577  71.1271820  25.4496174
  78.1280746  70.3609085  25.0960045  79.3344879  70.7666931  25.9150772
  76.5323715  69.4473267  60.4497223  76.1560135  68.7803879  61.0239868
  77.3459702  69.0570297  60.1304169  67.0163040  32.3172531  51.6064034
  66.2236176  31.7818871  51.5707092  67.7137604  31.7325706  51.3098831
   0.7097102  23.9618149  66.6178894   0.4077221  23.2372227  67.1656113
   0.2787991  23.8205929  65.7749100  45.9605675   8.1850452  42.3188515
  45.0212212   8.3538761  42.3920364  46.1031876   8.0250072  41.3859673
  50.9711494  33.8944054  29.4075737  51.7088966  34.2010803  28.8804016
  50.9346771  32.9521179  29.2432518  85.6361389  19.1350918   2.5076745
  85.3527374  18.4804974   1.8693762  85.8566971  18.6279850   3.2889733
  30.9448261  66.0313644  86.3254395  30.9330902  66.9869766  86.2715530
  30.4145641  65.8283997  87.0960617  41.9901009  32.2499619  21.2959747
  42.5704155  32.3542480  22.0500240  42.5192871  31.7831459  20.6492348
  62.2562523  30.5750847  42.6474304  61.8171272  29.8402920  43.0757751
  62.6069794  30.2051945  41.8372421  35.4143639  45.4025459  80.5667572
  36.2605209  45.4884529  80.1275940  35.4131317  44.5096893  80.9117737
  61.8525925   2.3529675  31.9008427  61.8241501   1.9099902  32.7488937
  62.6072540   1.9684023  31.4549408  35.5696869  64.6275406  65.5452042
  34.8893890  65.2369232  65.2587051  35.9850502  65.0645599  66.2886581
  20.7343941  69.3409500  66.7173386  21.6362133  69.0295715  66.7947769
  20.6982327  69.7584686  65.8567505  69.3107452  68.2267990  74.5056305
  69.6580048  69.0983047  74.6957092  69.6615143  68.0125122  73.6411819
  80.2527313   4.8888774  48.3947639  80.8321228   4.1699171  48.6470222
  80.3731384   5.5454817  49.0807724   1.7212756  42.3635406  48.8095093
   1.6969099  41.7392006  48.0843658   2.6409426  42.6212883  48.8728485
  66.3257065  11.1830025  44.1103630  67.2620544  11.2402201  43.9200668
  66.0347366  10.3974619  43.6472282  15.8507633  38.9893608  54.1558342
  15.5384378  38.4026680  54.8446579  16.5822201  39.4599724  54.5554962
  54.9719543   1.1732992  11.4603481  55.2401924   0.2556225  11.4139938
  55.7891273   1.6556369  11.5860920  74.8122482  25.9920750  38.3579712
  75.6289062  25.5097198  38.2289619  74.8795776  26.3439579  39.2455978
  82.0499802   7.6963353  22.7910271  82.6052322   7.4778619  22.0425644
  81.4811783   6.9339232  22.8979111  66.6342468   1.6803408   2.9042463
  66.0802917   1.0252891   2.4796610  67.4983139   1.5536151   2.5123775
  71.9852295  36.4354706  37.4537659  71.1413498  36.6984901  37.0864525
  71.8389740  36.4153290  38.3995094  18.8994541  32.0335426  10.4107075
  18.1906719  32.2612457  11.0123806  19.6960983  32.1254997  10.9333286
  76.4438324  17.6239643  54.7754135  76.6720428  17.1116791  55.5511208
  77.1592331  17.4598312  54.1610031  65.8226547  69.0530090   2.3815494
  66.7004852  69.1205597   2.0059500  65.2483521  69.4363785   1.7186496
  56.6289749  68.4321594  65.4174957  57.4929085  68.2469788  65.7856750
  56.5102272  69.3731384  65.5467300  63.2367744  60.0761948  28.1079464
  62.6203194  60.2052689  27.3871422  63.6154099  59.2118492  27.9474125
  77.8784409  44.2978401  46.0265732  78.2292023  44.0322876  45.1764679
  77.2969208  43.5810890  46.2802124  59.8695869  20.8581562  29.1686707
  60.5866432  21.2049141  28.6378021  59.9466476  21.3177109  30.0047951
  71.1120834  18.6525688  32.2000771  70.6711044  19.5007687  32.1518860
  70.4384995  18.0499954  32.5153999  32.8877907  54.2749290  70.0314484
  33.3932724  55.0708008  69.8661880  33.5097771  53.5618362  69.8870087
  71.2863007  56.0673599  51.3126068  70.3720856  56.3504906  51.2957382
  71.7704391  56.7979584  50.9278107  52.6199646  34.2513657  25.2151527
  51.8023643  33.8776398  25.5439186  52.6879234  33.9263649  24.3173828
  41.7832146   5.4812126  10.8370705  42.6529045   5.1343865  10.6381159
  41.6316643   6.1470170  10.1662731  67.7275925  38.7637405  58.8501091
  67.7250137  38.0815163  58.1786995  68.6477585  39.0137291  58.9340210
  13.4367132  62.4949646  41.9496994  13.4092216  63.3473625  41.5150833
  14.0189552  61.9664803  41.4038658  15.8178082  23.8188419  27.2781372
  15.7451181  23.4845543  26.3841572  15.2034979  23.2865162  27.7835903
  55.4168854   1.9530884  69.1864700  54.6989136   2.3816946  69.6523514
  56.1606255   2.5457382  69.2953186  47.7363930  24.1822414  12.5892181
  48.6779976  24.3422318  12.6525707  47.6544495  23.4922180  11.9308996
  34.2825432  22.3966846  20.5389290  34.1914749  21.5056095  20.2014008
  34.3813858  22.2856884  21.4845200  40.3841934  33.7041168  76.9153061
  39.7321548  33.2629089  77.4597397  39.8836517  34.3527832  76.4204102
  50.7001419  40.9831772  53.2976303  50.6221542  41.8757362  53.6345062
  50.9598389  40.4622154  54.0574913  40.4481010  42.3180237  26.8279133
  41.3183556  42.1232719  26.4801235  40.1557732  41.4938393  27.2171459
  58.5794182  54.1778870  88.6444931  59.2291985  54.3118820  87.9545212
  58.6145325  53.2390022  88.8275070  53.5682297  68.2892456  24.0966301
  52.8110085  68.8460846  24.2776833  53.9711113  68.1468964  24.9531670
  56.8067436  21.6034660  63.0740662  56.1706734  22.3015137  63.2301941
  56.3118439  20.9276981  62.6107674  36.8592339  51.2671432  43.8500633
  36.5187263  51.4496880  44.7258263  36.0825310  51.0649910  43.3284264
   3.5232759  41.2050323  71.9670715   2.8301170  41.7223854  71.5570602
   4.1815262  41.8496284  72.2267532  46.6329041  67.4261475  62.0828133
  46.1243248  68.0396500  62.6130943  47.5442696  67.6139984  62.3072090
  58.8588257  68.5912628  75.0537643  59.7661552  68.8374786  74.8738708
  58.5337639  68.2494507  74.2208557  69.2545929  62.1087952  12.3918524
  68.7884293  62.0128479  11.5613623  68.8627396  61.4490700  12.9640799
  63.0055313  11.1316271  48.2586594  63.0513268  10.8273029  47.3522835
  62.1893806  10.7612314  48.5947266  76.3916855  32.0767212  26.7918739
  76.1408844  31.2791672  27.2579651  77.0990677  31.8010464  26.2089081
  60.3884583  61.7883644  48.4689674  60.7096710  61.8285866  47.5681686
  61.1804161  61.8008614  49.0064392  66.4045868  44.1361885  50.6029053
  66.6093140  45.0709686  50.5804176  67.2538147  43.7074852  50.7089615
  13.2596560  69.9290009  24.1276417  13.4408064  69.1803055  24.6958580
  14.0428028  70.0117493  23.5835228  75.9611740  34.2863388  82.6978760
  76.1280670  33.6245728  83.3690186  76.2908783  35.1008682  83.0774307
  81.6587143  34.3147697  48.1168251  81.7629623  34.7026443  48.9856834
  80.7126846  34.3036156  47.9714432  61.3585167  22.0560532  46.9021759
  61.2630196  22.0802822  45.9500618  60.6484528  21.4872704  47.1997108
   1.2039572  45.0451660  80.5479507   0.6432732  44.2836876  80.6963348
   0.8658955  45.7116928  81.1460190  27.6012497  18.8806286  18.9812984
  28.1066418  19.5025024  18.4577675  28.2455940  18.4790363  19.5642014
  79.0413437  13.9078007  75.7470627  78.5611649  13.3293324  76.3395386
  78.8008041  13.6064606  74.8709488   7.2309885  47.8293610  66.5949173
   6.9823890  47.6446877  65.6891937   8.0504036  47.3508530  66.7206955
  26.4660072  25.8911190  21.2946625  25.7954521  25.3646698  20.8594170
  27.2733383  25.6893406  20.8216591   5.1834679   5.7880106  41.6000977
   5.4161053   5.7620602  42.5282364   4.4221787   6.3668628  41.5600891
  69.8011932  67.5937195   5.3652968  68.8836899  67.3654633   5.2158952
  69.7773514  68.2208633   6.0880389  58.7573700  68.2715988   5.7471385
  58.0489578  68.1362686   6.3764791  58.8506165  67.4271240   5.3062248
  63.4246063  10.6676884  57.9321823  62.8382187  11.4202986  58.0093842
  62.9177437  10.0181322  57.4449463  74.3400269  36.0698509  36.2991829
  73.5128937  36.2727051  36.7361412  75.0126877  36.4026871  36.8932991
   2.5251534   9.4919262  49.1282234   3.2695735   9.6426058  48.5456696
   2.7025490   8.6406126  49.5282593   2.9371328  35.3247452  68.8827667
   2.8158386  34.3790779  68.7977295   3.8620744  35.4284439  69.1062851
  71.6382523  11.0820837  63.5448723  70.9910812  10.8587036  62.8759193
  72.3187561  11.5591431  63.0699387  68.9649887  44.9004288  78.1252060
  68.8578644  45.6209641  78.7461624  68.3196106  44.2492371  78.4002914
  71.1266861  10.4382267   2.5901210  70.3702469  10.1331997   2.0891309
  70.9145126  11.3436718   2.8168070  25.5621529  61.5281982  53.6118622
  25.6848221  62.4473114  53.3743324  26.2015724  61.3730850  54.3070717
  22.6175900  27.0910778   7.8685646  23.2281189  26.9711781   7.1411653
  22.7902145  26.3510437   8.4506149  86.4937210   1.9941390   0.8345987
  85.8327408   1.8242568   0.1634189  86.6523590   1.1398559   1.2361783
  65.8370285  25.7402020  16.6557751  65.1130524  25.6359692  16.0383358
  65.4301147  26.1016560  17.4431820  79.4743881  41.1197243  48.0991173
  80.2598724  40.5988808  48.2663307  79.0372391  41.1734695  48.9489670
  15.9583836  65.6895447  16.3515606  16.4916191  65.0015793  15.9533215
  16.4526920  65.9575043  17.1262131  10.1082420  63.0975647  88.2972870
   9.3142052  63.5231133  87.9738007  10.1820745  62.2991638  87.7744675
  54.4673920  56.6548386  56.9611931  54.4490204  56.7131844  57.9164352
  54.0485420  55.8169632  56.7643127  34.7764359  67.6846237  22.7831440
  34.1222610  68.3344345  22.5261745  35.6005745  68.1708908  22.8069401
  75.5060272  41.2747154  51.7751007  74.8658447  41.6883545  51.1960564
  75.0917892  41.2872047  52.6379318  86.4683304  37.2737923   6.9931026
  85.8259201  36.8826904   6.4010024  86.1924362  38.1865463   7.0767298
  18.0432549  59.3535728  60.9056702  18.5568123  58.8055573  60.3122330
  17.1386738  59.0718117  60.7693748  48.8267250  26.6594353  65.7070618
  48.3346252  26.4341221  66.4965591  48.9944725  27.5982399  65.7891617
  49.4162979   1.6230853  87.3717499  50.1337280   1.3192499  86.8156815
  48.8177643   2.0656595  86.7699890  18.6941299  57.7303467  58.9786797
  18.4588547  56.9699898  59.5104027  18.6556206  57.4128723  58.0764847
  40.4171677  60.8046722  43.3326797  41.2765350  60.7649994  43.7523766
  39.8011818  60.5651169  44.0250702  50.7046509  25.2037544  25.7102528
  49.7556381  25.1064682  25.6318893  50.8218422  25.8782940  26.3792038
  65.4740829  43.7887573  73.1760712  64.5391312  43.8823471  73.3586426
  65.8160629  43.2978439  73.9232635  69.2164230   7.7551422  41.9525604
  69.1137695   6.9416432  42.4464378  69.8353577   7.5360084  41.2560463
  63.3683510  52.7885818   8.0192432  62.9010277  53.6235237   8.0458546
  62.9175339  52.2411804   8.6621637  30.3366833  48.7382011  22.7387123
  31.2235222  48.8501740  23.0810738  30.0839043  47.8564339  23.0122547
  76.8098831  10.8668289  32.3844757  76.3312759  10.0464497  32.5034103
  77.0441208  10.8750906  31.4564133  57.4398994   4.1257186  17.8489132
  56.5284309   3.8437967  17.9262619  57.7007675   3.8540852  16.9689159
  10.0678654  45.8444138  52.7925987   9.1761646  45.5284805  52.9385071
   9.9751997  46.5226021  52.1234894  56.6617699  43.6082153  70.9147491
  56.1836967  43.1385574  70.2313004  57.2202454  44.2220459  70.4377289
  85.4721985  38.8348465  26.1056881  85.9578934  38.5308990  26.8724651
  84.5694199  38.9199181  26.4122620  77.6175156  67.6413803  80.1272278
  77.7016754  66.6881561  80.1044312  76.8137512  67.8225784  79.6400299
  66.8539200  43.6811943  69.4654541  67.1164169  44.1925468  68.7000504
  67.6662827  43.2821541  69.7770004  49.9906082  16.6866512  46.0385323
  50.4344254  17.4038658  46.4911461  49.8391037  17.0190868  45.1537895
  30.7596531  69.8910599  55.6621590  31.1715145  69.0951309  55.3258553
  30.7163143  70.4762192  54.9058952  47.8630066  70.3937912  61.7653275
  48.0659523  70.8971786  60.9768791  48.0991020  69.4934387  61.5420456
  65.8871384  58.6381493  36.4318085  66.4598694  59.4027901  36.3723335
  66.3411789  57.9593964  35.9324341  26.0455208  65.4056320   2.4978848
  25.3184395  65.8305435   2.0428736  25.7709637  65.3777618   3.4144402
  67.1214447  50.5683022  40.3970146  67.8816528  50.0084763  40.5548630
  66.9036636  50.4225121  39.4763908  42.1966171  65.8574066  39.4997292
  42.8862457  65.2004166  39.4048271  42.3922958  66.2918396  40.3299141
  18.7936649  71.1245575  71.4916992  19.4087467  70.5544281  71.9530716
  18.8123951  70.8142700  70.5863800   0.9077437  18.6299934  32.2810516
   1.5342853  18.9321918  31.6235161   1.2487841  17.7818394  32.5648766
  31.0921230  61.3642349  46.6588821  31.2194157  62.2951393  46.4760056
  31.7955837  60.9274330  46.1786957  33.0262070  26.8074398  23.5876293
  33.4926376  26.7199535  24.4189053  33.2894859  27.6652679  23.2543907
  74.8569183  10.6984844  15.9501886  74.6748276  11.1117115  16.7941780
  74.3564148   9.8828030  15.9699335  79.2912369   1.8212140  89.1672974
  78.8907089   1.2810112  89.8484650  78.5497437   2.1994805  88.6947174
  82.6708832  44.5925407  25.9258595  81.9205704  45.1607933  26.1000671
  82.5284042  44.2742386  25.0344467  11.9868965  45.1874428  67.1082382
  12.3214693  44.7616043  66.3189621  12.7378054  45.2169228  67.7011108
  23.6041260  44.0190392  28.3880234  23.8958664  44.5008125  27.6140633
  22.7866955  44.4471092  28.6425762  10.2566690  21.7890186  30.4857216
  10.9061785  22.4833508  30.5964909  10.4456863  21.1695709  31.1905537
  61.8931122  52.1121216  60.0504875  61.2417068  51.4493942  60.2800484
  61.5650673  52.4993744  59.2389107  64.4059448   3.1420972  35.3558731
  65.0561829   3.7546141  35.0120010  64.4787750   3.2243204  36.3067513
  16.1761608   5.3401084   7.8447347  15.5170012   5.4699750   8.5265532
  16.5976372   6.1946316   7.7531939  26.9954624  52.6340103  85.4121933
  26.6854038  52.4402122  84.5275879  27.4148579  51.8238029  85.7018585
  41.4852943  39.2999115   3.4592049  41.8919029  38.6154938   3.9906905
  42.2225189  39.7792740   3.0811317  12.6128178  52.6382523   5.6658769
  12.7020702  52.3702736   6.5804553  12.8906851  51.8722343   5.1636395
  70.3631287  53.9217453  10.8633928  70.0412674  53.0393410  10.6790171
  70.9840012  54.1025543  10.1576586  84.9279709  50.1653900  63.5975800
  84.4617462  50.0409584  62.7709084  84.2364120  50.2141609  64.2575836
  11.1822939  43.9439735  69.7198486  11.3626413  44.7592506  70.1878586
  11.4667044  44.1152191  68.8220673  78.4119415  71.2687912  32.1571426
  79.0131531  71.0586929  31.4425545  78.9825363  71.5011215  32.8897247
  34.6055069  68.9063644  29.8913040  35.4054108  68.7480087  30.3926144
  34.7161407  68.3885651  29.0938873   1.4072304  29.8910561  50.4444046
   0.8258665  30.6499367  50.4928741   0.8242660  29.1539726  50.2624931
  76.4893723  71.0486832  46.4499168  76.3208618  71.8571930  46.9338036
  75.7699661  70.9915237  45.8210945  42.4110718  58.8610420  42.7334633
  42.3126030  58.1277924  42.1261063  42.2632980  59.6389885  42.1956978
  78.8497467  66.4897766  65.5970154  79.6875763  66.8403168  65.8993378
  78.2038498  67.1386795  65.8762589  15.9905806  13.7848015   0.4054154
  15.1969700  13.2723589   0.5597444  16.4720001  13.2875004  -0.2557651
  37.4754791  64.0324249  74.9752960  38.0826454  63.4057388  75.3687973
  36.6194344  63.6089249  75.0390930  28.4349880  64.7467728  62.7996864
  28.6326046  63.8822327  62.4394913  27.4981689  64.8636322  62.6417313
  75.4136124  41.4784813   5.1998143  75.0926132  42.3420143   5.4596405
  76.0885010  41.2695389   5.8456473  65.4229660  68.1766510  58.4567108
  65.9203720  67.7073898  57.7869263  64.5552063  67.7731018  58.4372940
   3.7876353  59.3332138  69.1361923   2.9564464  59.7164650  69.4163284
   3.5513957  58.4690323  68.7991257   7.5701933   1.3169285  70.2210846
   7.8673468   1.3043299  69.3112640   8.2320175   0.8144336  70.6961899
  58.6082916  29.7341557  48.0919685  58.7623329  30.1565819  48.9369888
  58.6924591  28.7980595  48.2732735  34.1692009  23.9003792  86.7304764
  33.6240082  23.1512642  86.9709320  35.0658836  23.6037941  86.8861313
  46.7315063  34.3439293  51.7716599  46.3401413  33.9535942  50.9901886
  46.0297432  34.8715477  52.1529427  50.8494797  52.1211395  76.5284348
  51.2889824  52.9324112  76.7832031  51.5563660  51.5499573  76.2279434
  56.4761810  32.6320496   2.7721398  56.9607773  31.9930992   3.2947729
  55.7274475  32.1433983   2.4303110  25.5817814  34.3612976  21.0968170
  25.9752922  35.1779938  21.4040413  25.4120674  34.5121536  20.1669407
  13.1120672  71.0530701  68.0742340  14.0180950  71.3577118  68.0238571
  12.9442091  70.6582336  67.2185745  18.3932686  59.2808647   5.1197448
  17.8098011  58.5786324   5.4072580  17.9838428  59.6219673   4.3246017
  39.7520332  11.3337774  87.9189453  40.0330734  11.7092695  87.0845337
  40.4986343  11.4638109  88.5036850   7.6167226  42.2747536   8.3686323
   7.6818800  41.4482498   8.8470411   6.6903753  42.5098839   8.4217978
  82.6679077  64.0886383  60.2843475  82.9734497  64.0140305  59.3802948
  81.7930908  64.4701004  60.2107964  13.7226372  26.9699707  25.6640358
  13.7552996  27.4834652  26.4711857  12.7923203  26.9315720  25.4420738
  12.9085026  14.1081915  30.0529976  12.2871284  14.5409155  29.4674397
  13.1184464  14.7706299  30.7112770  45.3908157  41.2157326  35.9422073
  44.9715538  42.0644226  35.8001671  45.8376045  41.0281563  35.1167221
  71.4796906  20.6654701  67.4540253  71.7916031  21.5403633  67.2227173
  71.7439041  20.1144428  66.7172852  71.8100204  34.6898232  88.6198654
  72.5508347  35.2854347  88.5073013  72.0676117  33.8959427  88.1512146
  37.1351242  56.0046425  49.0100403  36.6785622  56.8398285  49.1112671
  37.6991158  55.9449883  49.7811356  65.5299225  45.1443863  76.0971680
  65.3492432  45.0129280  75.1664124  64.9997025  44.4818153  76.5399933
  10.2667246  57.5853767  47.0542603  10.5046778  58.5042343  47.1779938
   9.7048435  57.3807259  47.8016815  30.8590775  21.3389931  13.2493372
  31.2741470  21.0893841  14.0749550  30.3454990  20.5714054  12.9977846
  44.8482933  58.0239563  12.3292627  44.6175690  57.2297478  12.8111658
  44.8560181  58.7133064  12.9933186  85.0143967  23.4102516  30.4837666
  85.1008377  24.2385216  30.0118256  85.5503769  23.5246754  31.2685356
  73.0620804  56.7897186   9.0064592  73.4944916  56.9656982   9.8420897
  72.8731155  55.8515930   9.0274496  62.8545761   5.0827103  87.5332565
  62.5614967   5.3094397  86.6506882  62.1253510   5.3345265  88.0998688
  42.3280907  52.9926376  72.8648758  41.4266243  53.3036461  72.7820358
  42.7994652  53.4334946  72.1579971  75.4293900  50.4436951  24.0218487
  76.0567856  49.8245201  24.3949909  75.8903809  50.8333778  23.2789688
  54.7714272  34.9678574   6.3098450  54.3624496  34.3074684   6.8691769
  55.6160049  35.1433601   6.7247205  17.7788906   4.0861340  38.9907875
  18.4899540   4.1125107  39.6310425  16.9811649   4.0667810  39.5194550
  31.4741364  32.0480309  86.7784195  31.4326401  32.7853279  87.3874359
  31.0346489  32.3643379  85.9890976   4.6480708  52.8241234   2.3005109
   4.1782403  52.3606033   2.9937925   4.6040301  53.7455368   2.5560246
  69.8249512  45.7889061  19.5841713  70.2377548  46.6491623  19.6602478
  70.3202515  45.2316437  20.1844826  67.1611404  34.1670380  59.2441292
  67.3575439  34.9178925  59.8043785  66.9243851  34.5529175  58.4007568
  48.6655998  30.5068626  39.2320137  48.3774033  30.5478096  38.3201485
  49.4784470  30.0021667  39.2038689  71.7903061  35.1155930  84.5959015
  72.4177017  35.7795258  84.8819046  71.6768875  34.5487976  85.3588638
   1.1878871   1.5717418  29.8860321   0.8048488   2.3004375  29.3976498
   1.4158216   0.9276398  29.2156506  29.1254711   2.7725103  73.9448853
  29.6085167   1.9530692  73.8380432  28.9960117   3.0923843  73.0520554
  38.4093857  38.0635529  41.3424911  37.7912369  38.5745888  40.8200302
  38.8072205  38.7016602  41.9347534  56.9340248  16.3604221   8.2619858
  56.0371666  16.6315918   8.4578123  57.3299065  17.1255760   7.8447948
  12.8987474  63.1242752  88.9485245  12.6568298  63.8682213  89.5001144
  12.3517389  63.2165985  88.1684647  30.4657459  34.0036659  27.2489796
  30.6624069  34.6866379  26.6078091  29.5180435  34.0568542  27.3725243
  58.7473297  22.8209972  25.9368973  58.9787903  21.9686069  25.5680008
  59.4094887  23.4194527  25.5910301  80.4053116  45.2321320  80.3969116
  80.1489716  45.7503548  81.1597824  81.3622589  45.2529716  80.4037933
  85.9953461  34.9108162   9.9358540  85.1398163  35.2561569   9.6808262
  86.2016373  34.2614784   9.2635145  26.3437328  24.2356834   5.1996889
  26.5546894  25.0436401   4.7317839  25.4145966  24.0909481   5.0208368
  20.2020416   2.3550944  87.3972702  20.4885769   1.8985075  88.1882553
  19.3136101   2.6488533  87.5988312  81.4790573  37.5394020  10.5280390
  82.0619278  37.5474625  11.2872686  80.6189957  37.7626266  10.8839836
  83.2536392  65.7626495  46.4604683  82.8059921  66.2470245  45.7667656
  84.1608887  65.7000122  46.1617737  29.3344288  49.1300926  17.3417168
  29.1927910  49.3903770  18.2518940  29.8194427  48.3069801  17.4006939
  76.5228348  36.6573181   2.2853024  76.8289566  37.5286255   2.0336108
  75.5996170  36.6456108   2.0327830  24.7252178  65.4169006  14.4522800
  24.2558918  65.5936050  13.6369629  24.8902187  66.2825089  14.8260908
  17.1138058  50.8049698  43.6415749  16.4666100  50.1648102  43.3456535
  16.6068115  51.6003647  43.8044777   6.2689166  63.9396782   7.9165859
   6.2409530  64.5627670   7.1904926   6.7402954  64.4011536   8.6101837
  11.1703768   3.3539934  32.8153038  11.4661179   4.1504593  32.3743820
  11.9629107   2.9905317  33.2102928  81.8930130  50.4408989  36.3040733
  81.1861191  50.6289101  35.6866684  82.0183945  49.4938812  36.2434731
  35.8039932  48.5359230   7.0774603  35.4195290  47.8318558   6.5552487
  36.5642815  48.1343765   7.4981198  50.4397583  22.6252594  26.3282967
  51.1041145  22.3223381  25.7093430  50.3825684  23.5684834  26.1756916
  63.5676003   9.7785988  75.8861008  63.9146919   9.9197636  76.7669144
  62.7678909  10.3038015  75.8567810  80.1616592  19.2467594  48.0416451
  80.4479446  19.8749714  48.7046852  80.9298630  18.6978168  47.8842888
  56.2843666  51.9557724  26.9342899  55.8377113  52.3966103  27.6570568
  55.9391937  52.3767815  26.1469917  79.2996750  21.5538292  59.8500633
  79.4376526  22.2576523  60.4839630  78.6073227  21.0167923  60.2353706
  41.3647270  39.7941055  69.1431580  42.0199356  40.0068932  69.8077316
  40.7776222  40.5500679  69.1349640  45.1035614  62.6910858  82.9282074
  44.2753525  62.4980202  83.3675537  45.0718155  63.6329308  82.7604294
  58.5171928  62.2260056   3.9086711  59.2644196  62.5175095   3.3862629
  57.7637024  62.6663208   3.5154693  46.8645630   5.0886645  29.9576054
  46.0287590   4.9511032  29.5117970  47.3190842   5.7369585  29.4196873
  56.3573418  38.6992531  84.8056259  55.6284027  38.1267433  85.0446167
  55.9793777  39.3215294  84.1842194  11.5570154   1.4695904  24.8261547
  12.0120983   0.6803919  25.1199188  12.0609980   2.1909263  25.2028618
  59.4342804   6.3665857  74.6663284  59.7487717   5.5851049  74.2117767
  60.0106659   7.0681534  74.3633194  59.0731277  27.7100563  27.6077518
  59.3260727  28.4744396  28.1254120  58.1808662  27.9011707  27.3186550
  60.0636978  58.2712364  60.8899994  59.5262337  58.5111618  61.6448479
  60.2005997  57.3284912  60.9834061  29.2961025  46.3707504  66.1901855
  29.8598461  46.2756653  66.9578934  29.2456169  47.3156281  66.0456543
  20.9989014   6.6169453  39.0295639  21.9467201   6.7224402  38.9474487
  20.8333855   6.6637478  39.9711800  66.5088272  52.9513321  58.1799393
  67.2619629  52.4513893  58.4947128  66.0045624  52.3240433  57.6618080
  71.6046066  35.4914818  33.5433922  70.9707031  36.2065315  33.5991364
  71.3755493  34.9112053  34.2693672  55.5495071  25.3404961  36.0776901
  56.2900505  24.8470802  36.4303436  55.6496811  25.2766457  35.1278877
  61.3512421  70.0461578  81.3139648  61.3134193  69.6070862  80.4642487
  62.0925560  70.6471939  81.2402039  27.6929550   9.8422337  16.8368168
  27.7658386  10.2393389  17.7047024  27.2687168  10.5127945  16.3014641
  16.7966118  40.3067093  66.3402176  17.5550785  40.7990494  66.6541672
  17.1208954  39.4131546  66.2278137  41.9605446   4.1158185  82.3311462
  42.6858978   3.7691245  82.8506622  41.5199242   4.7320299  82.9162674
  74.0067444  41.2093658  54.1258583  74.3320770  40.8903313  54.9676476
  73.3261108  41.8417435  54.3562279   2.5282726  26.9677410  79.2038345
   2.8135757  27.6988316  79.7518692   2.7884922  27.2172890  78.3171310
  56.9889183  33.4127808  60.6908569  57.5299721  33.4851723  59.9045677
  57.5421944  32.9506683  61.3205986   6.1683922  29.5315838  31.3332977
   6.6960630  29.1701221  32.0454369   6.7797399  29.6169987  30.6017303
   9.4784708  39.2310066  76.2175980   9.5845022  38.6048775  75.5013885
   8.9075518  38.7849388  76.8431396  48.1539230  54.0921440  67.1199493
  48.4111252  54.5124969  66.2993546  48.9738045  53.7614288  67.4869003
  28.7398720   9.8210354  74.7445221  28.9078522   9.9949303  75.6706772
  29.3964691   9.1687298  74.5003662  38.4651260  43.6524658  29.5962048
  38.8851814  42.8120155  29.7790413  38.1444626  43.5696106  28.6981277
  66.3139038  14.4229612   6.1958303  67.1721344  14.3028431   6.6023312
  66.1858826  15.3714676   6.1823983  10.2807379  62.9396629   6.3636909
   9.8671284  62.6344528   7.1711602  11.1601849  63.2066269   6.6311517
  63.3110619  14.9781446  17.8538361  63.7986946  14.1668625  17.7114773
  62.6933136  14.7666111  18.5537434   6.8827891  61.1866646   0.6766236
   6.9612284  60.5353508  -0.0204204   6.8338971  62.0247993   0.2168763
  69.9688797  29.8915119  35.4383163  70.6856537  30.4641914  35.1653595
  69.1852570  30.2930355  35.0628891  49.0719261  16.2742443  53.9673119
  49.5523872  17.0856190  54.1318016  48.1523018  16.5393639  53.9519539
  55.8884964  60.4121323  41.4580650  56.3233337  61.2145729  41.1695518
  56.6012650  59.7861671  41.5859566  61.5399246  58.4198418  47.8843842
  61.1170464  58.4102898  47.0257149  61.2009277  59.2075806  48.3095627
  63.7947235  54.8950958  35.9755249  64.3462143  55.6765900  35.9387321
  63.2286301  54.9650307  35.2068405  38.3056374   7.8354120  87.7174149
  37.5022163   8.0317831  87.2355576  38.4617805   6.9053121  87.5538101
  60.7179718  66.2983246  47.9868507  60.8864594  65.6014099  47.3526955
  61.2224655  66.0456619  48.7600784  42.0007133  70.6209335  85.1017914
  42.3872948  71.0235596  84.3241806  42.3086166  71.1612473  85.8294449
  14.0202637  25.0719643   2.7075670  14.4112320  25.0396957   3.5806844
  13.4298687  24.3189793   2.6815305  65.7399063  38.8758507  42.2768822
  66.6119766  38.8127594  42.6664314  65.7473602  38.2331314  41.5675926
  11.0291061  14.5562372  62.0739861  11.9408817  14.4147959  62.3287239
  10.5589790  14.6405125  62.9035110  79.0998077   0.4100712  40.3598976
  79.1341858   1.3457617  40.1610680  78.7725906   0.0062713  39.5560875
  43.3202820  20.3586521   9.2638578  43.3105049  21.0833359   9.8891335
  43.8845482  19.7001972   9.6691656  31.8341160  67.8857574   5.6562176
  31.6843224  66.9469910   5.5443363  32.5928764  68.0746994   5.1041179
  78.0805359  39.5397682  82.5014877  77.3829041  40.1310577  82.7841797
  78.8711395  39.8875809  82.9140472  33.3276596  47.9618874   8.2655344
  34.0897217  48.3849602   7.8699293  33.4904366  48.0077629   9.2076759
  77.7100677  52.5331841   1.2332557  77.9144592  52.1656113   2.0931084
  76.7660828  52.6897278   1.2579404  23.3762894   2.9257467  59.9939957
  22.4737740   3.1481216  60.2225685  23.7915974   2.7195716  60.8313980
  48.6451073  39.8016205  74.3843689  49.2817841  40.0536690  73.7155304
  47.8014107  39.8250809  73.9328613  44.0925903  27.7660599  31.5148258
  44.9854660  27.4672375  31.6871796  43.5425568  27.2053070  32.0618668
  64.8300171   2.4589763  13.2701578  65.2060547   1.7693254  13.8171568
  65.5195236   2.6673853  12.6397829  16.9715919  13.3949003  26.0044346
  16.3704033  13.7986536  26.6303635  17.1277542  12.5176191  26.3540382
  15.7968435   1.3731077  55.1532822  15.4390049   1.7374802  54.3437042
  15.2177229   0.6402839  55.3626175  11.8068342  53.3105392  19.9378548
  11.4707851  53.6505318  20.7671375  11.5492716  52.3886490  19.9349842
  65.0955505  34.7076645  86.1883926  65.9300919  34.2445526  86.1155396
  64.5933151  34.4174385  85.4269714   3.0300810  32.3452682   9.8980408
   2.6873000  31.9782429   9.0831642   2.4357831  32.0217705  10.5750856
  51.9730377  35.2986794  41.0419464  52.5319977  34.5450592  40.8526039
  51.2927551  35.2673302  40.3692932  51.1775169  35.1155777  15.6104202
  51.3612900  36.0195427  15.3548794  52.0406876  34.7112122  15.6979084
  43.7024231  71.4332275   7.8682981  44.6568832  71.4873886   7.9162736
  43.5328522  70.6433411   7.3549242   1.3872367  54.9778214  54.6514359
   0.5916440  55.4782104  54.4701195   1.3402871  54.2294350  54.0565033
  84.2452393  48.0325623   9.1886244  83.9204636  47.2895927   8.6799498
  83.7057419  48.7708130   8.9055042  51.2326736   4.4381518  85.5216370
  51.4884109   3.5170546  85.4725342  50.2930832   4.4359245  85.3389053
  46.4738388  64.7275009  62.5845718  45.7420692  64.6799011  63.1997795
  46.4431992  65.6217880  62.2446632  36.0406647  59.7713203  64.2148819
  35.8168564  60.4471092  64.8547668  36.9975777  59.7478294  64.2161026
  11.1955519  38.6228790  81.9575653  10.5702686  38.5800247  82.6810455
  11.7135534  37.8222847  82.0409546  31.9770775  47.5666733  88.7605362
  32.7672424  47.8284378  89.2331390  32.2827950  47.3644333  87.8763046
  82.7950897  22.5327682  15.5201435  82.1852417  21.8339958  15.2834425
  82.2575226  23.3245964  15.5361671  61.5892296  40.2083397  62.5626488
  61.5944290  40.9918671  62.0128441  61.1268654  39.5525665  62.0407181
  35.7033157  58.3348503  67.1710052  35.8761711  58.4435616  66.2358398
  35.0362549  58.9920845  67.3692627  35.0323524  56.2313309  40.3864746
  35.4043541  55.7253342  39.6641045  34.0869675  56.1980896  40.2402802
   4.7475739   3.0382206  83.5238266   4.2773819   2.9839296  82.6918411
   4.4680943   3.8715189  83.9029541  15.9970579  37.1307182  76.8276215
  16.2205448  37.6504745  77.5997238  15.0745831  36.9059258  76.9490280
  30.0063648  49.4352684  43.3753090  29.9150543  49.9250183  42.5579720
  30.9265213  49.5415077  43.6166687  78.4582291  68.1739502  21.9439278
  78.3079224  67.5392532  21.2433548  78.3893280  69.0262680  21.5137787
  67.1360550  52.3325996  25.6568737  67.0962067  53.2013588  26.0567532
  67.9609222  52.3300629  25.1712627  80.3342438  41.1076775  86.6433029
  80.8883972  41.4721794  87.3334274  80.9442596  40.6571770  86.0592117
  35.3724861  37.9297523  -0.1412712  36.1129837  37.4109383  -0.4554771
  35.4549255  37.9118652   0.8122042  78.3196335  15.0224648  54.2287598
  77.7417755  14.9804716  54.9906960  79.0570526  15.5604982  54.5167885
  62.1189308  65.2722473  50.0977745  62.6795349  65.9204102  50.5242004
  62.7046394  64.8026199  49.5039520  72.5887146   9.1727495  58.5101051
  72.7823410   8.6650419  59.2981224  73.3972473   9.1391420  57.9988518
  80.1400833  20.9716892  30.3660984  79.6627426  21.3296757  31.1145821
  80.9350815  21.5021534  30.3130932   0.7343428   6.8094559  60.0755119
   0.4199819   5.9090409  60.1571312   0.3260098   7.2729187  60.8067398
  73.0512772  52.6564484  68.2835846  72.2389755  52.2924805  68.6356201
  72.9943542  53.5936089  68.4699173   2.4470501   7.3998876  21.6179886
   1.7254375   6.7738361  21.6777096   2.8049607   7.2697740  20.7398071
  57.9496689   5.8934150  64.9656067  58.1687851   6.7803712  65.2511368
  58.7849922   5.5183635  64.6866837  20.9277763  27.1903839   1.8112175
  20.8378448  27.3656940   0.8745158  20.0424976  27.2936363   2.1602907
   3.5161784  30.4949589  37.4716263   3.9519506  31.3118019  37.7147369
   3.0913143  30.2011166  38.2774658  77.6855011  46.4066658  79.3007812
  77.3747177  46.2511139  80.1926575  77.5018387  45.5895920  78.8372192
  19.6839619  56.8176537  56.6302643  20.4417934  57.3550529  56.3997803
  19.9293900  55.9312477  56.3651657  46.5815544  40.6992378  86.9555740
  46.0495796  40.2695198  87.6253357  47.0970497  41.3458824  87.4375992
  26.4009991  40.3951492   5.4745617  26.5926971  39.7931557   6.1936488
  25.5589333  40.0970268   5.1306438  49.0182076   6.1896009  65.9989471
  49.9161301   6.3100877  66.3078918  48.7175331   5.3953395  66.4405060
  70.8962860  39.2708740  43.2362404  71.6522293  38.9768524  42.7279663
  70.8275375  40.2060585  43.0440598  18.0591736  23.4454479   2.9361057
  17.4006367  22.9907532   3.4612849  18.8942146  23.2012787   3.3352520
   7.3842826  61.9202538  78.8101273   7.0603256  61.1308250  78.3764420
   6.6105638  62.4756317  78.9057770  77.3326797  15.5856447  62.5860329
  77.7317734  14.7167187  62.6299095  77.9157486  16.1432953  63.1010971
  65.3108139  18.4155483  58.9823875  65.1103592  19.3486252  58.9087868
  64.7878647  18.0032616  58.2947960  68.7368317  29.5717354  67.2092896
  68.5220947  29.8065338  68.1120529  69.6041183  29.1706886  67.2659302
  19.2771893  58.5960159  44.4897804  18.7627373  58.4743576  43.6918030
  18.7044544  58.2899094  45.1929932  78.2838058  52.4883156   8.7241201
  78.4943085  51.6153717   9.0556269  77.9118500  52.9472694   9.4772730
  26.9047260  55.1256714  82.9706421  27.7124386  54.6127777  82.9428406
  26.6190605  55.0733604  83.8827209   6.9048529  26.7985783  73.6151505
   5.9539628  26.8753033  73.6935959   7.1875124  26.4494724  74.4604111
  11.8847179  68.3347244  19.8438721  12.3560648  67.7467499  20.4340782
  12.5721979  68.7679138  19.3379555  65.0753326  36.8718491  40.2733307
  64.8430099  36.7613831  41.1953163  64.5577774  36.2098465  39.8149414
  69.9208527  58.1435013  81.5952911  70.6912231  58.1300011  81.0273285
  70.2652664  57.9649124  82.4703445  37.1875114  32.5472832   3.6026280
  37.3643341  32.2277145   2.7178440  36.5981750  33.2907448   3.4754403
  60.7648888  64.0394058  68.2242432  61.5152397  63.7948875  67.6825638
  61.0288124  63.8119125  69.1157684  55.3029137   6.0270262  44.9352608
  55.5763664   6.7634096  44.3882751  55.5779762   6.2701840  45.8192558
  66.8903732  20.3562012   9.8034201  66.3124161  21.0021439   9.3972778
  67.7102356  20.8276615   9.9510365  54.9645157   5.7422934  79.3643951
  55.0224190   6.2557783  80.1701279  55.1558723   4.8451624  79.6378326
  60.3379402  17.1016827  29.9641552  61.1053734  16.5303097  29.9357567
  60.4395142  17.6770420  29.2059498  13.5818281  27.4281731  78.1162491
  12.8533173  28.0369835  78.2381210  13.2516813  26.7813759  77.4926376
  61.0237122  20.3981495  75.7221069  61.1899719  20.1301823  76.6258698
  60.0738792  20.5071163  75.6754761  17.1881790  50.3224831   9.0906973
  18.0999603  50.5990257   8.9989967  16.7067719  51.1340256   9.2515554
   6.7951236  29.5253983  75.3369370   5.9709725  29.1279602  75.6180954
   6.5958452  30.4581051  75.2558365  43.3825607  40.1392403  18.5089264
  43.6679382  39.5914497  17.7776833  43.4001884  41.0309258  18.1613426
  33.5122337  58.8243866  17.5728016  34.1799889  58.1448669  17.6654568
  33.8206291  59.3657455  16.8461266  79.9797974  57.5462914  20.7240295
  80.0294113  56.6154556  20.5065022  79.2766953  57.6039162  21.3709927
  59.2217484  16.5251808  18.3808899  59.7535858  16.5560760  17.5856380
  59.4696350  15.7026205  18.8029995  46.6604004  12.6868792  27.4199390
  46.0891762  12.7043247  28.1878128  46.2553024  12.0469942  26.8345566
  21.9361591   5.4101882  41.5610123  22.1998749   5.5429034  42.4715462
  22.7590008   5.2779613  41.0901794  33.5646210  68.8193207  78.3186722
  32.9676971  68.1730270  78.6957779  33.7278557  69.4384537  79.0301895
  19.6823559  67.5730667  49.5469589  19.7450352  67.2260971  48.6570625
  19.9544239  66.8461685  50.1071663  49.6282425  30.6926327  76.9259262
  49.1495285  30.4448414  77.7169189  49.0335121  31.2806549  76.4603577
  43.4066162  43.7646561  64.7893524  43.0016785  43.4466362  65.5962753
  42.8593712  43.4075813  64.0898819  23.7176552  61.3928833   7.4916706
  24.4989929  61.2647400   6.9537835  23.9366322  60.9901009   8.3319368
  10.3250647  47.2041779  56.7113342  10.1628647  47.5258904  57.5981407
  10.9560585  46.4935951  56.8260078  58.7531433  37.2685661  11.2345934
  57.7960510  37.2726364  11.2485008  58.9799347  36.6530113  10.5375366
  15.4652882  56.8444862  45.3172379  16.2559624  57.0314636  45.8233070
  14.7605219  56.8455009  45.9649506  83.2901382   4.9012437  11.4050779
  82.6066971   4.5024304  11.9436722  82.8804169   5.6856699  11.0403404
  78.7028427  61.1252289  82.1040421  79.5997238  61.4497757  82.0234451
  78.8012161  60.1865082  82.2632828  61.8041039  46.1321678  75.8036804
  60.8818855  46.1544952  76.0591049  62.2466087  46.6748009  76.4563446
  65.0734711  31.1459618  67.5082016  64.4814301  31.2226906  68.2564163
  65.1868515  32.0448380  67.1993332  85.7849121  46.4402428  57.6357918
  85.9236526  47.3125076  58.0047607  86.6240082  46.2135429  57.2348480
  85.3103867  17.1966534  24.3525467  84.9763184  16.4194336  23.9047089
  86.2257690  17.2557697  24.0790348  42.1679268  48.5053024  11.1162443
  42.7979393  49.1302376  10.7573977  41.4046135  48.5790253  10.5434008
  67.4741058  12.1324329  50.8546181  68.3730621  11.8068447  50.8087082
  67.4566956  12.8738317  50.2494278  38.3289719  47.4377022  46.9276428
  38.6741714  48.2715187  46.6085510  38.7928734  46.7749138  46.4160385
  36.6009102  20.8242073  80.5166016  35.9406815  21.4061451  80.8930054
  37.1262474  21.3913498  79.9521561  82.3678360  54.3102379  10.7733078
  81.9260483  53.5073013  10.4969864  83.1374283  54.0066414  11.2547474
   4.1443324   5.4003611  14.6578770   4.8839126   4.8817554  14.9745808
   4.5248914   6.2505584  14.4374895  86.6530838  50.6835747  79.3265610
  87.2968216  49.9763794  79.2851715  86.1502304  50.5974236  78.5166626
  13.6308498  18.4727230  10.7183046  14.2039118  19.2153969  10.5278664
  13.7268353  17.8956814   9.9606485  48.4193344   7.1073942  28.5543499
  48.3897400   7.0754452  27.5981407  48.8961220   7.9134164  28.7524242
  77.6860123   8.1940689  47.6926842  76.9298248   8.2199678  48.2789803
  77.8447418   7.2613406  47.5475807   1.8507227  42.2614098  55.4440804
   1.7892015  43.0148697  56.0312309   2.2280445  42.6154823  54.6387901
  20.3526897  65.9467850  17.1515198  21.2937908  65.9014893  16.9826756
  20.2357407  66.7624130  17.6386623  82.2886505  61.6173706  21.8275566
  81.3866959  61.4718819  21.5420017  82.6363983  60.7386513  21.9797173
  49.2314453  33.0021210  66.9904404  50.1606178  33.1904221  66.8584595
  48.9337883  32.6619873  66.1466751  52.3357773  42.1274948  28.7056980
  51.7016983  41.4686546  28.4226665  52.9799881  42.1593018  27.9984417
   1.7263776  71.4187622  69.3834839   2.1127014  71.8331451  68.6119461
   2.3291905  70.7076111  69.6005173  76.1860275  54.3999138  18.2846375
  76.5357971  55.2672195  18.4887829  75.2377853  54.5260086  18.2505569
  47.3598061  48.0681229  14.7410202  46.7568779  48.7863731  14.9329262
  48.1847763  48.3326950  15.1480341  56.1728592  61.6841278  22.0792770
  56.6399918  61.8218307  21.2552261  55.8777733  60.7744751  22.0382061
  13.2570381   9.4815645   0.5052792  14.0622244   9.1029892   0.1523092
  13.1569576   9.0727396   1.3649759  38.2728081   8.7780123  25.3962650
  37.8699875   8.0321512  24.9516773  37.6562958   9.0030174  26.0930538
  44.2432632  34.9773064  68.4572678  45.1412926  34.7458801  68.2201691
  44.1204948  35.8570251  68.1005325  54.0229721  25.6717567  27.0504494
  54.1574364  25.1962547  26.2306633  53.3180313  26.2894573  26.8561954
  39.8236580  33.8676605  20.6942062  39.4178162  33.5165977  19.9015656
  40.5541115  33.2751198  20.8718758  42.8101311  42.2900276  25.3305340
  43.3660507  42.0733147  24.5820522  43.3512688  42.8641930  25.8725109
  75.1034317   0.8183919   9.9553061  74.2169113   1.0879109   9.7151632
  75.3154297   0.1166530   9.3397970   7.9580712   7.0837717  51.2585831
   8.2011347   6.1694608  51.4041443   7.0055356   7.0961885  51.3521385
  73.9364090  46.5210114   2.0602553  73.5438690  46.4824257   1.1880993
  73.2351913  46.8471756   2.6242959  25.0253239  23.1083260  24.2668171
  24.4032230  22.5847721  23.7617302  24.4874916  23.7785892  24.6883793
  22.3557472  66.7042007  26.0141048  22.6440544  65.8526611  26.3427258
  22.2045078  66.5616455  25.0797405  67.0893326  48.6583519  43.7232590
  67.7951660  48.2668152  44.2377777  66.9569626  48.0499191  42.9962654
  72.6731339  66.9982605  12.4426165  72.5170441  66.0548401  12.4853239
  71.8762360  67.3893280  12.8007555  48.8505020  18.5314865  43.8791008
  48.0773087  18.6402245  44.4327965  49.2801247  19.3866673  43.8970375
  78.2083969   8.9859276  15.9194593  78.1972275   9.5043392  16.7240429
  77.4214325   8.4436617  15.9729843  39.3549995  43.1314926   3.4619699
  39.9164925  43.1508446   4.2369437  39.0648651  42.2214928   3.3990769
  54.8022270  16.4624023   9.6572914  54.5298157  17.3432140   9.9145765
  54.8413353  15.9740200  10.4795952  63.3131065  29.1442757  61.4789352
  63.6116791  28.2499809  61.3136368  63.8704109  29.4547997  62.1925316
  68.1941223  10.4899330  80.2701263  68.5237122  10.2933016  79.3932343
  67.2592697  10.6521940  80.1438217  27.7486000  49.4229507  13.9102077
  27.0016899  49.2905693  13.3264008  27.3559132  49.6192398  14.7607946
  84.7735367  40.9082260  84.4936218  85.2727585  41.1778374  85.2645416
  85.4064636  40.9375000  83.7761383  54.6367226  30.0835209   6.8434758
  54.5644073  29.2557392   6.3683138  53.8803711  30.5932541   6.5530663
  65.5840378   2.4848716  16.4694920  65.2184753   2.9052110  15.6910915
  65.7816849   3.2097025  17.0626106  10.7669296  50.7960243  19.9975395
  10.3360624  50.7452774  19.1443043  10.0800762  50.5742989  20.6262703
  25.4836807  68.4140549  33.2523041  25.5251198  67.6805420  33.8658752
  24.6455288  68.3037186  32.8033524  27.3308773   7.9902024  27.1406746
  27.5285835   7.2964106  26.5115509  27.2347050   8.7782087  26.6058578
  45.9027252  23.2619743   5.9727864  45.9705582  23.6157875   6.8596044
  46.8098679  23.1712017   5.6810927  65.8177261  12.0783405  19.2760448
  65.9856949  11.6683416  18.4275627  66.2820663  12.9143238  19.2342072
   5.4399886  47.4891930   5.1744022   6.3458085  47.3357849   4.9057255
   5.4790645  47.5418854   6.1293516  12.7791290   6.2306457  75.4588013
  12.4776917   7.0517755  75.0700684  13.6957664   6.1615868  75.1918945
  14.2789421  29.9359512  88.2695923  15.1097498  29.7348557  88.7003479
  13.8229027  30.5100517  88.8849564  59.6868477  16.1441727  24.8942833
  60.4883461  16.6097374  24.6553688  59.9791756  15.2580795  25.1078606
  26.7030754  12.4062309  81.3983231  27.3522701  12.8843641  81.9142303
  25.8843250  12.5168524  81.8816910  74.1957474  17.9601250  72.8167572
  74.4200211  17.5953541  71.9606705  74.5493851  18.8494110  72.7982788
   1.6606472   4.5372972  33.0287628   2.1133437   3.8250768  32.5770531
   1.9309527   4.4511967  33.9429588  13.8220224   4.6994653  44.1110458
  13.9219007   5.2520776  43.3358841  14.4886103   4.0202236  44.0084648
  58.6993752  55.0909424  82.9530182  58.5979652  55.6165924  83.7465134
  58.0801048  55.4735870  82.3314667  53.7751732  48.0274811  22.2983418
  54.3037758  47.5147705  22.9098473  52.9840813  47.5044098  22.1687050
  86.8660812  71.1331711   7.1562281  86.4128952  70.3439865   7.4529433
  86.5940323  71.2370758   6.2444038  27.9434471  58.4547501  72.1048813
  28.2215233  59.2938652  71.7377396  28.6561031  57.8522224  71.8920059
  34.7562828  69.3771667  55.4199677  35.4620972  70.0232086  55.4462090
  35.1251907  68.6020584  55.8434486  51.6524963  32.7280884   2.7975411
  52.1729546  33.1829262   2.1353643  51.5640717  31.8361473   2.4616036
   5.7526298  42.2284851  11.4678850   5.1493526  42.8760529  11.1032658
   6.5137486  42.7390251  11.7440720   3.0671289  30.3231411  88.4274292
   2.8749392  29.3854332  88.4279404   2.2192066  30.7413387  88.2778625
  86.5217896  62.5467415  43.2445793  85.5818024  62.3777733  43.3086128
  86.5821152  63.4308090  42.8826180  26.9942894  26.6570606   3.8768637
  27.9378910  26.5174160   3.7972031  26.9136677  27.5058689   4.3119006
  77.9121246  59.2462502  63.7155418  78.6059189  59.8535995  63.9724617
  78.2735214  58.7729340  62.9661446   4.5491514   1.3222191  69.7639236
   5.3912988   1.7748400  69.7175140   4.7191958   0.4603392  69.3838196
  21.7800179  19.4617290  84.2530670  22.1786709  18.8719158  84.8929291
  22.0995445  19.1484356  83.4069061   1.9794278  54.7282410  59.2108231
   1.6020899  55.6064186  59.1593399   2.0616369  54.5575027  60.1490784
  56.1371536  57.9713020  49.9287300  56.9255104  57.8707657  50.4622231
  56.3467445  58.6824684  49.3232994  15.6180544   5.3219128  19.8568840
  15.5880222   4.3700485  19.9532394  14.7695837   5.5511546  19.4777050
   0.6257588  59.3645287  33.3603745   0.6491739  59.7946701  32.5055885
   1.0892304  58.5379753  33.2253418  75.9951630   4.9431996  41.8570709
  76.9171448   4.9912777  41.6043587  75.6038361   4.3429775  41.2223854
  74.9275513  69.8136749  33.8035889  75.0042725  70.5506439  33.1976051
  75.7213516  69.8582535  34.3366241  50.4863358  17.9832973  28.3949661
  49.8294220  18.3192787  27.7852020  50.3198891  17.0413799  28.4312649
  67.5900726  26.4358101  47.1039276  67.7344589  25.7299957  46.4736824
  68.3925171  26.9564381  47.0684776   6.8868484  50.0125771   2.9708242
   6.0038118  50.3222466   3.1722758   6.7685547  49.0952492   2.7243648
  36.0800972  37.7266693  72.1136551  35.9226303  37.1164017  71.3932343
  36.7877846  38.2898178  71.8001633  55.9159126   0.1758552   6.8075724
  55.9257011   0.7228281   7.5930381  55.1408882  -0.3764878   6.9099865
  10.0692129  61.0564156  49.3845825   9.2728662  60.9013824  49.8925476
  10.7516708  60.5805626  49.8579216   6.4456053  17.8072357  29.0924988
   6.5464621  18.7164364  28.8106937   6.7886295  17.7939739  29.9860249
  48.7295761  45.7140770  39.3791161  48.0567780  46.3944321  39.3527794
  48.7540131  45.4367218  40.2949257  27.5068130  53.8293762  68.1111221
  26.6429977  54.1853333  67.9029160  27.3250580  52.9822617  68.5180511
  35.7076569  60.9039383  60.7021942  36.6328354  60.6585350  60.6947975
  35.5467720  61.2046700  61.5965691  27.2214661  45.4491005  72.2660522
  26.3738880  45.1492653  71.9375076  27.3686485  46.2842102  71.8220291
  86.0438843   2.9291978  18.8846760  85.7370529   2.3595700  19.5900898
  85.3016205   2.9864106  18.2830124  15.9138680  23.1660786  24.3228321
  15.1002321  23.6699104  24.3424129  15.7239170  22.4267368  23.7453194
  82.3128281  60.5614128  10.2559328  81.4291153  60.1978226  10.2002811
  82.6888046  60.4108963   9.3886290  11.1798182  59.9294853  81.6050339
  11.7357121  60.0082130  82.3802872  11.1439724  60.8156776  81.2450256
  55.3217545  66.9915390  42.6680031  55.2802391  66.2455521  42.0696602
  55.7087059  66.6357193  43.4679337  40.4353828  30.6200428  15.2287445
  40.9760284  31.2145386  15.7488489  40.2885971  31.0873642  14.4063721
  36.3282700  63.0612907  34.1748047  35.7178040  63.7443085  33.8972206
  35.7673187  62.3367767  34.4516487  20.9645004  52.4638290  67.9263000
  20.4507332  53.1874733  68.2849350  21.6641369  52.8893738  67.4306641
  85.6983566   8.4341373  65.5184708  85.1654129   8.1158876  66.2471085
  85.3212357   9.2864246  65.3002472  80.7376785  69.7863617  26.4123688
  81.5324707  69.9921494  26.9044914  81.0552063  69.4490280  25.5747452
  56.9672890  53.9119530  19.3548622  56.8537445  53.0126152  19.0474110
  56.9257584  53.8459740  20.3088818  21.1376820   2.9425457  61.7527161
  20.5616665   3.3330438  61.0954895  20.8315277   2.0391998  61.8331375
  86.4400177  63.4238625  88.0767746  87.0774689  63.7041855  87.4200363
  86.3990326  62.4724541  87.9799805  30.9527245  36.0864410  25.5879478
  31.5874233  36.1641884  24.8756676  30.2248421  36.6485748  25.3225727
  82.8869553  32.7670860  28.9582787  82.6741180  33.1799812  29.7952080
  82.2933655  33.1787910  28.3302803  18.3155594  50.2696877  22.3371582
  18.6294403  49.4176636  22.6400909  17.4664650  50.0834808  21.9364147
  72.6250916  15.7015266  41.7604141  73.3482895  15.9127884  42.3508224
  71.9730453  16.3821354  41.9272728   4.1351423  14.2982864   2.0677779
   4.1528358  13.4315853   1.6618855   3.2087693  14.5390282   2.0781701
  72.6942902   6.0482740  11.9244137  73.3802032   5.4315052  12.1800613
  72.0862045   5.5266280  11.4006271  70.3647614  38.1786537  80.5591965
  69.8971329  37.6691399  79.8974152  71.0626678  37.5968933  80.8603821
  26.9417572  43.6700134   8.6212044  27.8510132  43.8162346   8.8821697
  26.9929733  43.4389000   7.6937375  52.9474182  21.0813923  24.6547165
  52.1887627  20.7615795  24.1664600  53.6766396  20.5460682  24.3418388
  57.8870125  64.1916656  26.0992641  57.1176796  64.0677261  26.6551380
  57.8421707  65.1089096  25.8292828  76.3145981  14.1130171  69.1151733
  76.2864761  13.2380457  69.5022964  77.2098083  14.2015352  68.7880554
  25.6504345  14.2632437   9.9117594  26.2074108  13.7026291   9.3716478
  26.0868530  15.1151094   9.9020720  78.7471466  45.0126381   7.9365392
  77.9595108  45.5558701   7.9087920  79.1458054  45.2119026   8.7836485
  69.0450439  46.8468246   5.3563113  68.4384995  47.5699692   5.5156775
  68.7795410  46.1699104   5.9788294  63.7124596   6.6718230   7.6034670
  63.3463516   6.3706512   6.7719069  63.7238274   5.8909659   8.1569691
  50.7205811  44.5497475  18.2547188  49.9233398  44.6864281  17.7429008
  50.9551048  45.4224319  18.5703888  40.2667198  39.6690483  27.7246628
  40.2368813  39.0302849  27.0123959  40.0098686  39.1731262  28.5020428
  78.3644180  63.4022026  88.1328049  78.3395081  63.6846275  89.0470505
  78.8790054  62.5951881  88.1453629  41.8426476  54.1630325  56.1710854
  41.7143440  53.3014717  56.5679321  42.3657074  54.6459656  56.8109398
   0.1200564  68.3072739  26.8399353   1.0016936  68.3989868  27.2012329
  -0.1612028  67.4341354  27.1133633   6.5666318  39.6982574   9.7778511
   5.8811965  39.4051132   9.1774530   6.1627326  40.4111176  10.2727509
  48.3676300  40.5060616  66.0698700  47.8700981  39.7696648  65.7143326
  47.8442459  41.2769012  65.8505325  69.7052460  42.9883690  43.0905533
  69.1293716  43.5973167  42.6281815  70.3820724  43.5446892  43.4760971
   7.8290458   8.2060204  69.4933319   8.0397215   9.1307783  69.3642197
   7.6488476   7.8762469  68.6129837  30.5171375  14.0581398   4.6297932
  31.0110474  13.6868114   5.3608189  30.7177277  14.9937220   4.6558838
  77.0037231  52.0709724  16.1970043  77.1079025  51.1707497  16.5051861
  76.7429276  52.5621681  16.9760723  67.5671768  53.6116943  70.1475220
  66.6849213  53.5672913  69.7789001  67.4871826  53.2042656  71.0099792
  33.0392799  35.6820793  76.3099289  32.5664253  34.9522743  75.9098969
  33.2624702  36.2541046  75.5756226   2.8134775  50.5105820  12.7967072
   2.8637660  50.5195007  13.7525434   1.8942575  50.6948013  12.6034975
  30.7006054   8.8621130   4.1806479  29.8445740   8.4659338   4.3433914
  30.7202301   9.0099897   3.2351432   7.4884562  28.5465317  83.4443665
   6.9484506  28.0155258  84.0297394   7.1482286  29.4355164  83.5452805
  85.6422806   0.3858788  37.9092140  85.8375626   0.4032709  38.8461189
  85.9125519   1.2476684  37.5921822  49.7773933  37.5776978  31.9748039
  49.5357704  36.8785172  32.5822563  49.1464806  37.5017090  31.2589760
  49.3975182  51.4024849  78.9201279  50.0976295  50.9752274  79.4136047
  49.7212524  51.4296074  78.0197372  60.6686172  27.1577225   2.4839149
  60.8295670  26.9959335   3.4135120  61.0396118  28.0255070   2.3240886
  22.5754757  39.6375427  11.7523222  23.3207817  39.3339081  11.2340984
  22.1559258  38.8347359  12.0617008  33.7206116  58.9936981   4.5817137
  33.9029922  59.6504860   5.2537260  34.1683846  58.2055855   4.8892922
  48.6450768  22.4581642  79.4197006  47.7379761  22.4689369  79.7251282
  48.8617287  23.3799992  79.2800064  20.4859066  50.0637054  66.6854782
  19.6598644  50.0630341  66.2018661  20.4213371  50.8198967  67.2687759
   4.0353751  15.9975214  26.3886395   3.6768115  15.2210674  25.9587746
   3.3697367  16.2448196  27.0305119  54.0472908  55.6737633  26.2203293
  54.6499977  56.3264465  25.8639812  53.5182343  56.1574020  26.8547020
  31.5372353  26.1464558   9.4748135  32.1701698  26.4100990   8.8068905
  31.0565739  26.9485931   9.6791964  63.4640198   6.8534894   3.0853422
  63.7797203   7.5970240   3.5988801  64.2356567   6.5460815   2.6096251
  63.6684570  56.1971130  51.7163544  63.9076385  56.9121895  51.1266975
  62.7725677  56.3988457  51.9863930  75.9987564  53.1657181  60.7732239
  75.3127518  52.6755486  61.2263947  76.3679047  53.7383766  61.4455528
  37.6269684  66.7570419  46.1872101  38.0751190  67.3219757  45.5577354
  38.0620461  66.9351349  47.0210075  71.9089279  25.2109928  47.9716606
  72.1916199  24.5813160  48.6348534  72.7211151  25.6068630  47.6556358
  58.7759666  14.0501175  88.8060150  58.7944984  13.1556349  89.1462936
  57.8701591  14.3342590  88.9285202  78.7544174   9.6462317  65.5895462
  78.3122711  10.2818213  65.0267334  78.5354843   9.9215240  66.4797821
  12.4599600  67.9939346  41.6459656  12.4581738  67.0639420  41.8725433
  11.8885422  68.4002991  42.2975616  65.7965240   6.8258882  67.3870316
  65.8431091   5.9522042  66.9987869  65.7148285   7.4166503  66.6383286
  47.5367203  49.7515068  31.6247673  47.8805275  50.0692635  32.4596672
  47.7750664  48.8246689  31.6047668  48.4876213  54.9996719  20.3060017
  49.0036774  55.8053513  20.2777729  48.6786842  54.5636406  19.4755783
  50.8766785  68.4580154  26.3451633  51.5328636  69.0268784  25.9426155
  50.6271706  67.8502197  25.6490574  11.3279400   4.1141186  76.0417938
  11.9243746   4.8333182  75.8338318  11.8972883   3.3504570  76.1361084
  44.2482681   4.1589084  41.9216843  44.8955536   3.5450699  42.2687454
  44.3368073   4.9369812  42.4721336   6.6790352  32.9795418  72.7044220
   6.6453090  33.8938065  72.4229584   7.3734517  32.5906830  72.1726227
  68.0313416  70.3074036  86.2134781  68.9081573  70.4664459  85.8640060
  67.4780502  70.2125854  85.4381638  43.0301285  62.9973946  33.9178543
  42.8826141  62.6247177  33.0486107  43.4785728  63.8262482  33.7501373
  16.6799450  32.7170715  75.0064316  16.7952251  32.5591774  74.0694046
  15.8799028  32.2427177  75.2326050  43.6793327  18.9907074   0.9558576
  43.3274918  19.8808880   0.9598390  44.5621834  19.0805073   1.3146657
  22.2081184  59.2413025  34.8352852  22.4584274  58.4053879  34.4418068
  21.2652760  59.1644287  34.9814644  49.1687813   6.0286860  18.9319592
  49.7764435   6.7647376  18.8597984  49.3520355   5.6502266  19.7918530
  67.2068710  48.5863762   6.0888128  66.5450897  47.9188728   6.2697001
  67.5149689  48.8586235   6.9532127   9.3435411  54.1147079  56.8078766
   8.6140995  54.1505623  57.4266357   9.3521528  54.9793854  56.3974037
  42.6230240  66.3371277  55.6383591  42.8358879  66.9217453  56.3657799
  41.7009239  66.5132751  55.4514542  11.6174812  24.7195168  88.3072739
  12.5169773  24.8761826  88.0198822  11.6978149  24.0613956  88.9976730
  59.1421852  49.5089455  71.7092514  59.7234383  48.8918800  71.2647171
  58.4588470  49.6996994  71.0666809  55.5332565  65.4327927  32.7941475
  55.7320442  65.0423431  33.6451874  56.3893738  65.5779648  32.3913879
  43.3178329  53.4377975  83.1348724  43.7106209  52.8304100  82.5079575
  42.3744774  53.3327789  83.0112762   4.5426784   4.6708813  72.0799866
   4.9834814   4.5097752  72.9142380   5.0825853   5.3325791  71.6476822
   4.9798632   4.5890789  63.5781670   5.8256707   4.5747313  63.1302414
   5.1986136   4.7362185  64.4983444  23.1582088  39.6455574  65.4775467
  23.6443291  39.4210014  66.2709579  22.3668900  39.1087952  65.5215149
   1.4943264  17.3669796  47.6489906   1.7670108  18.2355461  47.3532448
   2.1006572  17.1542435  48.3584518  84.4685364   1.4590507   3.5949883
  84.0150452   1.4987425   2.7529655  83.7964554   1.1781744   4.2159891
  73.0710678  56.3696022  87.4062958  72.5324554  55.6611900  87.7588196
  72.5561676  57.1615906  87.5607834  22.5394897  56.4715805  74.3074188
  22.9730396  56.2042313  75.1178436  21.6313629  56.6327019  74.5634995
  84.2183304  18.2343388  29.4619541  85.1304550  18.4800682  29.3074284
  83.8176422  18.2420330  28.5926895  65.0788193  64.1598587  60.8897552
  65.9737854  64.4530334  60.7185326  64.9930878  63.3478394  60.3902512
  68.1709061  60.4971962  81.6394958  68.6341705  59.7486038  82.0152969
  67.3679733  60.1239891  81.2758331  64.1113586  44.0589447  19.5435562
  65.0158463  44.2062950  19.2671185  63.5833206  44.3486137  18.7995834
  27.0661945  56.0806122  80.3332520  27.1553974  55.5462456  79.5441208
  26.4935989  55.5694695  80.9051743  32.8474388  30.0596561  11.7866974
  33.7697258  29.8120098  11.8521662  32.3794098  29.3647575  12.2496204
   5.2380805  64.5251923   2.4902701   5.5949411  64.7653580   1.6351664
   4.8517222  65.3346710   2.8244920  54.4698219  44.7217522  34.6129913
  55.1345787  44.0349579  34.5615692  53.9650383  44.5082283  35.3977394
  38.6948128   1.3328085  82.5187912  39.1116562   0.9909993  83.3097687
  38.0699310   1.9832062  82.8393173  72.7937012  68.6436539  75.1754913
  73.5773849  68.6292801  75.7249222  73.1267853  68.5695114  74.2811813
  53.9846230   0.3154447  86.5604553  54.5876427   0.4236595  87.2959061
  53.8897514  -0.6323445  86.4659729  85.5287781  47.9777527   3.2315533
  85.3482437  48.8880653   2.9970958  86.4816208  47.9357414   3.3125622
  59.2746391  10.8004122  72.5782013  59.4196739  11.7393064  72.4612656
  58.5583305  10.7456684  73.2107620  35.2519798  65.3464737  21.5150337
  35.8118820  65.4767380  20.7496758  35.1659126  66.2185822  21.9000568
   2.3477328  42.4960938  17.5284901   3.1033711  42.9423180  17.9107552
   1.7382423  42.3888550  18.2587318  84.7666702  36.2194748   5.2563343
  84.3827820  35.3968430   5.5598845  85.1114655  36.0164032   4.3867898
  60.3413391  51.8348579  17.5660152  59.7924728  52.2393608  18.2378445
  61.0249481  52.4822617  17.3934593  66.7860489  64.4318390  24.6947651
  65.9435883  64.1550140  24.3344135  67.0338593  63.7269859  25.2931042
  23.8661900  36.3658791   8.9447174  24.1186275  37.2769127   9.0947990
  23.4477825  36.3719864   8.0838289   3.0614378  50.7507401  80.9939575
   3.4564152  51.6221237  81.0242004   3.8041131  50.1542778  80.8996277
  29.7967510   5.6175389  75.8764343  30.1803913   4.9134903  75.3535919
  29.2031116   5.1712489  76.4803009  72.8937607  21.2627621  80.8089752
  73.6565247  20.9206429  80.3427429  72.6173935  22.0200500  80.2928696
  17.4865227   6.1443524  73.2579422  18.3886547   5.8927503  73.0602417
  17.5248032   7.0921731  73.3860168   4.0025020  65.0671539  29.0822906
   3.4235623  65.3903198  29.7726688   4.6102037  65.7890930  28.9218769
  47.2074509  30.6319809   9.3965931  47.9484100  30.2646694   9.8785620
  46.9206543  31.3747501   9.9278898  42.4293060   7.9814410  74.0574265
  41.6234398   8.3544731  73.7001419  43.1233063   8.5552568  73.7328796
  78.6280441  26.6871548  18.7238045  78.3310471  25.7826767  18.6240921
  77.8494797  27.2156258  18.5483303  16.7457314  65.2988815  26.5453701
  17.6583118  65.5766068  26.4659920  16.5552158  65.3668137  27.4809570
  64.6675797  50.7477341  77.8891907  64.4085388  51.0361061  77.0139923
  65.2844162  51.4156265  78.1886368  76.1567230  49.4204254  16.7744331
  76.7971115  48.9729271  17.3274918  75.3248978  48.9920845  16.9764919
  61.3055000  16.5103168  77.9049149  61.1067085  15.6701078  78.3181534
  60.9978561  17.1645241  78.5322876  36.5305786  10.7665930  23.7889252
  36.5324135  10.0969496  24.4728889  37.2485390  11.3534365  24.0263596
  45.6788025  41.5681000  84.2316132  46.2010155  41.8748055  84.9728699
  46.3187561  41.4062729  83.5384293  19.2240124  61.3047028  47.7196312
  18.4512787  60.8066216  47.4531174  19.6809006  60.7283592  48.3322601
  18.3944073  67.8228760  57.8616753  17.8335609  68.5003586  57.4839172
  19.1870346  67.8416061  57.3253708  23.9349194  51.1521072  68.3246231
  23.5351467  50.2838593  68.2740326  23.6423645  51.5018158  69.1662598
   4.2343659  60.6142120  12.1532879   4.2427106  60.7866020  13.0947990
   3.3601553  60.2641830  11.9816236  74.5183411  39.1912842   4.2962689
  74.7688980  38.9871597   3.3952773  74.9349518  40.0341949   4.4756126
  42.2133217  56.8647881   8.8120680  42.8471298  57.5652428   8.9666204
  42.7048798  56.0583420   8.9677677  37.1003685   3.6320529  21.8850174
  36.5701141   3.6735730  21.0891933  36.4621353   3.6325681  22.5983791
  44.3057671  67.3833771  15.7327652  43.7176285  67.1054764  15.0305586
  44.2927055  68.3396072  15.6917534  28.4225121  48.6471748  74.3141174
  29.0938034  49.2202950  74.6844254  28.2573662  49.0043755  73.4415512
  73.1780167  21.2951298   8.3141356  72.4046555  20.7852821   8.0728989
  73.7742004  20.6558952   8.7042284  39.0043411  64.6512222  14.3025942
  38.5391426  63.9163628  14.7023506  38.5855675  64.7641220  13.4492989
  27.8770695  51.2517738  66.2316818  28.5033321  51.9752998  66.2548294
  27.6202736  51.1866112  65.3118744  41.0721054  20.6240692  11.3334274
  41.1976852  21.5484295  11.1188993  41.9592285  20.2786827  11.4331894
  44.8718605  61.4273643  35.1387253  44.7884750  61.8019104  36.0156479
  44.1608047  61.8279648  34.6385765  13.5917730   5.5408983  37.0578117
  13.6870966   5.9410477  36.1935081  13.6489859   4.5996275  36.8935966
  15.1214027  53.5603256  71.5316315  15.2585287  54.5032616  71.6227188
  14.3213291  53.3856659  72.0272217  29.8967361  52.6017342  75.4273911
  30.4544315  53.2019272  74.9324417  30.4932575  52.1695061  76.0385971
  80.7965698  38.7303505  34.8118629  81.1025009  38.5708885  35.7047310
  80.2151108  37.9938774  34.6227951  20.4406185  70.0145111  38.8435860
  21.2290821  70.5087662  38.6193733  20.4989014  69.2181931  38.3156586
  44.9402161  68.9491425  63.8438606  44.2267036  69.0918121  63.2219467
  44.5349312  68.4721603  64.5680542   8.3736753   0.9310488  24.9557304
   8.5833836   0.1491740  24.4449215   9.0728455   0.9862107  25.6071529
  83.4554749  20.9588585   2.5431218  83.6507034  21.4161644   3.3610387
  84.1752167  20.3364735   2.4390104  21.0633068  59.1630363  48.6167564
  20.4543247  58.6365967  49.1346741  21.8572388  58.6306992  48.5665321
  20.8053322  53.8444557  45.3329964  21.5262566  54.1266327  44.7700844
  20.2930775  53.2491341  44.7858047  83.2907639  59.5041504  40.3729973
  84.1662445  59.8421478  40.1845093  83.1692505  59.6626434  41.3091316
  68.1673355   0.5652255  53.7468872  68.9880371   0.5493655  53.2545166
  68.2104034  -0.2081824  54.3092194  13.8432283  13.1926899  58.3348427
  14.5165071  13.3495026  58.9969139  13.0364752  13.5220270  58.7309723
  44.7828674  24.2506351  63.6880074  45.6084938  24.6861553  63.4761124
  44.3928833  24.0496254  62.8372765  81.3218460  28.3318138  35.2554588
  80.4819183  28.7886181  35.3010635  81.2674103  27.8097515  34.4550095
  80.1714325  52.6730652  13.1182785  79.2389603  52.6855583  13.3340673
  80.5388336  53.4137535  13.6005974  59.2542648  12.5427618  66.7682877
  59.0629654  12.7115746  65.8457184  58.4732437  12.0978184  67.0973206
  38.2671738  67.1867676  85.5459824  37.8621864  67.3435211  84.6929626
  38.9936600  67.8088531  85.5841522  50.7805252  22.6897774  87.4526062
  51.4213257  21.9787827  87.4622421  50.1281357  22.4155121  86.8080902
  25.2861652  53.9531860  29.1234989  25.4235554  53.0095139  29.2061806
  24.8886452  54.0625687  28.2596455  54.1724815  17.5185661  16.6809006
  54.4909210  17.5688686  17.5821762  53.7838669  16.6464806  16.6125069
  81.2149200  25.0401955  74.9433365  80.3261108  25.3819771  74.8461914
  81.5126343  25.3831482  75.7859421  19.6049118  27.6363335  20.0731869
  20.0217381  28.4682178  20.2978115  19.7143116  27.0948505  20.8548889
  81.5515747  67.1006393  32.5022202  82.4393845  67.3534546  32.2490387
  81.2401123  66.5603485  31.7760582  38.1884232  64.3219833  68.5240479
  37.7152672  63.5157318  68.7297668  38.1551514  64.3822632  67.5693283
  85.0534363  27.5636158  33.7251511  84.2514954  27.3935108  33.2309914
  84.9935837  28.4875107  33.9681892  35.6294937  63.0036201   3.3901327
  35.3898888  62.9457092   4.3150482  36.0210876  63.8721924   3.2980874
  64.6912613  18.0820103  87.3626404  64.1544189  18.8547268  87.5385513
  65.3699417  18.1032352  88.0373001  62.9651566  40.3233604  39.2675514
  62.9755058  39.7538834  40.0368500  62.6785164  39.7550163  38.5526733
  70.3982468  47.8661079  85.2799301  69.8262711  48.5567284  84.9450760
  70.8592224  48.2719078  86.0141373  51.2576942  49.6929436  53.6259308
  51.0082359  49.4265251  52.7410469  50.9774055  50.6060028  53.6891327
  50.5305901  69.0610046   5.4019732  49.6941338  69.3219070   5.7873278
  50.9150696  69.8792725   5.0875840  55.2827225  26.2537537  54.1554718
  55.1950645  25.9868546  55.0705185  54.9911003  25.4918613  53.6547623
  76.7588730  34.2824898  13.0088806  76.7920456  34.9222908  13.7200651
  77.4327469  34.5725975  12.3940973  61.6645279  37.2788658  22.0153770
  61.9325371  37.1495094  21.1056137  60.7111473  37.3545227  21.9757633
   6.4575644   3.3000124  80.2891388   6.8431473   2.4241998  80.3117218
   5.5734119   3.1814773  80.6362076  65.7134781  32.0850487  80.0678406
  65.3371658  31.8023167  79.2343674  65.4315186  32.9949684  80.1615448
  20.2829609  46.2337036   8.2721672  21.0910263  46.4136314   7.7916594
  20.5417118  45.6105080   8.9510698   4.6538777  38.8807373   5.5233154
   5.5237908  38.5905342   5.7976594   4.2124019  38.0799294   5.2404103
  51.5379639  13.1448660  61.2706566  50.9924850  12.7220592  61.9339180
  51.8195763  13.9637175  61.6785889  80.9581451   6.6228800  25.4065037
  81.5288773   7.0614734  24.7755280  80.9546509   5.7065673  25.1297550
   3.3873038  53.8975601  69.1054840   4.3422627  53.8323326  69.1110382
   3.1040199  53.3256454  69.8188553  72.7444992  70.2777634  70.4356461
  72.4683533  69.3943863  70.1914673  73.6603699  70.3266983  70.1617508
  59.0461426  21.5181885  66.6463852  58.7356415  22.2040367  66.0552597
  58.9804916  20.7124424  66.1338501  68.3368759  22.3973255  35.7455177
  69.2923965  22.3408413  35.7403526  68.1441956  23.2352200  35.3247566
  18.1022873  57.9740448  42.0962372  18.1340237  57.8025780  41.1550560
  17.6290054  57.2258568  42.4601746  46.9713173  26.5884342  86.8437576
  46.7514572  27.5043163  87.0142059  46.9324684  26.1688423  87.7032089
  72.2460938   2.1315515   9.4760132  72.6402512   2.9574552   9.7566452
  71.4462051   2.0587854   9.9966965  44.6330719  44.4081306  82.4574509
  44.2165718  44.1073990  81.6497879  45.5649681  44.2336273  82.3257141
  61.6590080   2.3682258  10.3670473  61.3741684   3.2704155  10.5124836
  60.9225082   1.9540852   9.9172831   2.1567345  46.0230675  33.3951416
   2.6908534  45.6463394  34.0944443   2.3111291  46.9656944  33.4571915
  11.1944218  66.6469116   6.7428298  10.2739315  66.7183914   6.4902029
  11.2868328  67.2464600   7.4832592   0.6651103  12.6736555  22.8797054
   0.9920714  11.8115931  22.6224556   0.2680302  12.5325279  23.7391472
  75.7640305  12.6414490  75.4101105  76.2837753  12.8884439  76.1750259
  74.8616791  12.8417892  75.6588287  45.1088257  58.0872955  83.2388687
  44.6124077  58.5334129  83.9250031  44.9397736  57.1569138  83.3873520
  10.9053726  64.6440506  16.0199852  11.7926779  64.3204651  15.8643808
  10.7484007  64.4753571  16.9490356  13.8327484  19.6691151  32.4575310
  14.2251263  19.8024178  31.5946846  13.1920414  18.9706268  32.3239594
   7.3721385  60.3814468  25.3959770   6.6980858  60.8704453  25.8679562
   8.1319981  60.9635391  25.3923359  11.9548140  10.6154184  84.8139954
  12.0628071  10.2273750  83.9456711  12.0365629   9.8773708  85.4180145
  17.4826126  49.9967079  69.7397919  17.0935097  50.3301163  70.5482941
  18.3025017  49.5891342  70.0188904  83.4989166  51.1942558  89.0002975
  84.2231445  50.6614494  88.6719055  83.9079437  51.7989616  89.6193771
   9.9220829  16.9736137  20.8930168  10.0217438  17.3316135  20.0108986
  10.6548281  16.3652191  20.9887886   3.6429236  33.3098640  57.5775948
   3.3765564  32.4096375  57.7643204   3.2875142  33.8205719  58.3049850
  84.4762268  67.1764832  50.1937943  85.1479492  67.4274063  49.5597153
  83.9228439  67.9531250  50.2764664  78.4541016  62.1696281  11.9545689
  78.0672226  63.0329552  12.1002655  79.0535660  62.2968025  11.2192497
  40.2487946  49.7422523  48.4044876  40.2388229  49.5622253  47.4644203
  39.4081764  49.4111710  48.7206841  74.6978302  66.8559189  36.5856590
  75.4770508  66.3487625  36.3579636  73.9790268  66.4002533  36.1475639
  83.9234924  62.8232498  33.2150955  83.5955505  61.9277496  33.2973404
  83.4331207  63.1913376  32.4800606  53.8206062  69.3971252  48.0519295
  53.2576828  70.1578751  48.1954803  54.7097931  69.7512589  48.0650024
  57.2673302  51.9777832  66.2422867  57.4605103  52.3071556  65.3645477
  57.2943268  52.7545929  66.8009186   1.2988381  34.7109070  38.7770576
   1.4597845  33.9163551  39.2859879   2.0318577  34.7546463  38.1630516
  36.2216530  50.1308899  48.8745995  35.2900734  49.9857368  49.0398865
  36.2428169  50.8281288  48.2191277  45.0129852  55.7730751  47.7734146
  44.0946426  55.5144501  47.6959801  45.0940247  56.5410919  47.2078934
  54.1643105  18.2288513  37.4597092  54.3060760  18.0997353  38.3975067
  53.9599457  19.1600761  37.3743477  13.7260752  35.3774948   2.7543390
  13.7520132  34.9217033   1.9130211  13.2062426  34.8065987   3.3200996
  61.7790565  44.8438835  21.1674862  61.1876488  45.0559731  20.4453468
  62.6116791  44.6379166  20.7425785  57.8291931   4.0214691   9.4161386
  57.9873428   3.0783327   9.4575434  58.5573311   4.3638883   8.8976851
  16.4421005  61.6914215  22.2418728  17.1777802  62.0545425  22.7349758
  16.3320942  62.2881889  21.5016022  84.9050674  51.2484818  38.6468697
  84.4071960  50.5335770  39.0434341  84.2562943  51.7434349  38.1465225
  26.4495697   0.3221788  22.7369785  25.6491890   0.6832607  22.3558731
  26.3044109  -0.6238971  22.7470341  46.4555740  38.7683868  81.8649902
  45.7717171  38.1047401  81.7747421  46.1019440  39.5387192  81.4202805
  23.6046848  35.0814095  12.2574997  23.7253246  34.9833527  13.2019901
  22.6985626  34.8144989  12.1027937  44.3038521   7.7721620  14.3093605
  43.7651596   7.1826468  14.8371067  44.5844421   7.2388740  13.5656519
  36.4551659  61.7196274  30.3182850  36.8131561  60.8434486  30.1755104
  37.1236687  62.1703529  30.8342133  16.6180058   4.2209153  81.1723251
  16.9395218   3.8532126  80.3491287  15.9154472   4.8160191  80.9106064
  72.2582779  19.1994972  35.6912079  72.4776154  18.2901001  35.4884262
  72.5431366  19.6919518  34.9214172  29.3788548  35.3562050   2.1037948
  28.9437714  35.0953522   1.2920741  29.2920303  34.5948677   2.6774328
   4.5156512  55.5235863  48.9597206   5.2357903  55.1864281  49.4925919
   4.3264380  54.8193779  48.3396225  27.3171082   5.6164613  25.4533749
  27.1497059   4.7473526  25.0888767  27.5192757   6.1605291  24.6922226
  39.9508514  43.3479500  33.4586563  39.1699486  43.9000969  33.4980469
  40.4385185  43.5657692  34.2529907  35.0611420  53.7191505  32.7643814
  34.2614822  54.1270142  33.0966873  35.5558357  53.4867210  33.5501862
  42.5830956  21.8123264   1.1382761  42.6589088  22.4623775   1.8367870
  41.6440544  21.6382618   1.0739743  30.4371071  23.5578957  82.1987152
  29.5059395  23.7546082  82.0964279  30.8786278  24.1841507  81.6250458
  58.8419800  56.0227432  42.3852386  59.1290321  55.2771797  41.8580093
  59.6020393  56.2416649  42.9243240  16.1163635  50.4069214   4.1914577
  16.0496235  51.3617935   4.1904721  15.7785225  50.1440964   5.0476227
  76.8936234  17.0114861  83.6850510  76.3733521  16.2242393  83.8456573
  77.1283493  17.3257084  84.5582047  69.1947784  46.8401070  27.6883316
  69.8530350  46.5483742  27.0575943  69.1827545  46.1546211  28.3563156
  29.0685043  -0.3345802  26.0305595  29.6348419   0.4049391  25.8100967
  28.1933556   0.0466733  26.1012039  37.7376862  63.3213387  82.3154221
  38.5497704  63.5899467  82.7450790  37.7775803  63.7301750  81.4508438
   2.6753178  21.7818279  59.2130051   1.7297655  21.8424988  59.0770569
   3.0518444  22.3318272  58.5260124  85.5042419   8.6045074  30.4324722
  86.0522919   8.2651777  31.1400909  84.6842957   8.8497810  30.8611488
  79.7347794  19.8902912  20.5454388  79.7724304  19.7738705  19.5960903
  80.3056030  20.6390934  20.7177391  24.4839840  59.6706848  37.1451874
  23.6605492  60.1306458  37.3083611  24.4374809  58.8921394  37.7001038
  78.9362793  55.6718788   6.5654922  78.2550583  55.2306557   6.0580506
  79.7574997  55.3701210   6.1772051  73.6592560  54.6974754  23.8103104
  72.9855347  54.0876808  23.5095139  74.0689468  54.2543106  24.5532703
  40.0256195  49.7771149  72.4023438  40.2029190  50.1175194  71.5254669
  39.0914192  49.5686951  72.3939972  56.3361473  40.8505478  51.8063850
  55.9461594  40.5082741  52.6107407  57.2791595  40.8281746  51.9690514
  64.2673035  17.3021011  41.4649582  64.3850021  18.1917591  41.1319656
  64.9728470  17.1894855  42.1019516  65.0846252  64.7312775  22.0373306
  64.2342911  64.3789978  22.3001328  65.2050858  64.4216080  21.1396523
  14.8166018  37.5658913  68.5229340  15.3503132  37.4814568  67.7328339
  15.3010683  37.0823288  69.1920319  32.0536919  26.2953987  20.4244270
  32.5715523  26.4738159  21.2094250  32.6694107  25.8800659  19.8205891
  55.0290947  11.0803623   1.4828489  54.0806618  10.9546242   1.5128338
  55.1440811  12.0302925   1.4575219   0.2449494  12.4366407   2.2815681
   0.6686493  11.8764849   2.9319036   0.8469132  13.1725664   2.1707330
  50.2836533   6.7712140  68.3272858  50.7657890   6.5714245  69.1296997
  49.6465836   7.4356413  68.5897980  30.6407261  46.9276848  17.9357414
  31.4633865  46.4426041  17.8712444  30.3292198  46.7539139  18.8239975
  18.8187256  54.3587494   8.2126179  17.8909512  54.1879463   8.0504723
  19.2721157  53.6149826   7.8157787  17.8563576  52.6209793  37.5336227
  18.5151882  52.9340096  36.9137993  17.0358906  52.6399193  37.0409698
  44.8096848  31.8704586  71.4442215  44.8593674  30.9662743  71.7544022
  44.5149498  31.7964401  70.5365372  28.3880253  40.3895569  77.8252792
  28.4903622  39.4450073  77.9418335  27.4823418  40.5656052  78.0801773
  49.7473984  64.8898239  61.8774376  49.1359024  64.3458405  61.3810577
  50.5481415  64.3675537  61.9252052  53.6082954  62.0730743  84.1765442
  53.7229576  61.4336815  83.4735031  53.0201035  61.6433678  84.7975159
  19.9153557   5.1112490  21.0914612  19.3278465   4.3556066  21.0997849
  19.6459923   5.6324091  21.8478107  35.9627571  70.7859192  14.3010731
  36.4594002  71.2899399  13.6564493  35.5940781  71.4456406  14.8885031
   4.0502567  42.9835930  33.0167999   3.3775821  42.3027306  33.0038643
   4.8731155  42.5096397  32.8963737  64.7894363  71.8410873  25.3837528
  64.8731308  70.9138184  25.1614819  65.6893082  72.1672134  25.3935184
  69.1927261   5.1496038  65.9400635  69.0667801   5.6607213  66.7395248
  70.1386337   5.1625657  65.7940292  30.4005547  13.3919773   7.9847999
  29.4922752  13.6735725   8.0941896  30.3672028  12.4387932   8.0657940
  13.5840225  64.9455872  52.6586189  13.7009792  64.6676254  51.7501678
  12.6423740  65.0946350  52.7441521  86.8529510   4.5577025   6.5777845
  86.1503754   4.3802218   5.9523845  86.9869461   3.7248683   7.0301814
  44.6628914  52.1685181   3.4360909  45.0003395  51.9794693   2.5605211
  44.2727547  51.3437843   3.7256446  80.3234253  50.4780540  56.5774651
  79.5657578  50.9944534  56.3026924  80.5435410  49.9490547  55.8106918
  19.1066494  36.2828674  23.9790344  18.8823166  37.2134094  23.9785271
  19.9112492  36.2301826  23.4632072  34.8687859   5.4515085   1.0077540
  34.0529137   5.9485292   0.9481013  35.0767746   5.4437952   1.9420516
  79.8383408  44.7078972  10.4340115  79.4251022  45.3923111  10.9603539
  80.7178497  44.6212006  10.8016863  79.8485031  30.6910858  31.0955639
  80.2526169  30.4819069  30.2534428  80.5874863  30.8341866  31.6868801
  54.9545708   6.7052803  16.3039989  55.6099396   6.6644526  15.6075354
  55.4391365   6.4925914  17.1016159  15.0583849  47.3301697  86.9751434
  15.5162582  46.6213989  86.5232315  14.8107033  46.9548531  87.8201447
   1.0686671  11.1549339  55.2587128   0.3873821  10.7215319  55.7727623
   1.8476075  11.1178198  55.8137856  21.6394577  70.8124466  57.2085457
  22.1610966  70.1358719  56.7768402  21.8396568  71.6140442  56.7252312
  28.7070770  23.8007812  77.6368484  28.9952564  24.6798096  77.8827972
  27.8463116  23.7079239  78.0451279  86.5395660  67.7090149  64.9419785
  87.0016403  68.3481598  65.4843903  86.6138153  66.8862762  65.4255295
  76.8675613  70.5662384  77.0823212  77.6049271  71.0159454  77.4949799
  76.5276337  69.9875412  77.7648087   9.6181164   2.3853161  56.6262970
  10.1718798   2.5184610  57.3956146   9.6450663   3.2229970  56.1639137
  11.2191896  49.6587563  67.2206802  11.7166538  50.4437141  66.9913330
  11.5364037  48.9887314  66.6151428  67.6526337  31.9994869  86.1141434
  67.6966019  32.1717644  87.0546799  67.7674561  31.0522118  86.0385284
  44.2369576  30.6373138   3.0309448  43.4321404  30.8638515   3.4969685
  44.9362640  31.0206203   3.5603597  43.5382423   4.4305487  32.6729584
  43.8740768   3.5384333  32.7600060  42.6328468   4.3765497  32.9788666
  68.0999832  44.7273178  41.5360069  67.6131516  45.5365486  41.3798714
  68.6351166  44.6143761  40.7504463  47.5683517  41.9012909  79.5881958
  46.7275467  41.5569305  79.2870407  47.3469048  42.4493484  80.3410721
  24.2363224   4.1100430  71.4763107  24.1328239   4.1244168  70.5248337
  25.0325146   3.5993464  71.6229401   8.1282701  50.0056038  26.9968777
   7.7207232  49.1741028  27.2392521   7.9034667  50.1224442  26.0738144
  70.7785950   3.1060719  75.2091980  71.0073013   4.0327029  75.1365128
  71.0591507   2.8585265  76.0902481  55.5140152  59.7268524  56.8177834
  55.4676208  58.7742157  56.7367744  56.3081627  59.8854408  57.3280907
  71.6919708  29.7802715  65.1987915  71.6206055  30.1453800  64.3168411
  71.4601974  28.8573284  65.0954132  55.9110069  21.8448620  40.4662094
  56.7864456  21.5468254  40.7132225  55.9504967  21.9414825  39.5147171
  59.8986740  59.3896332   8.5024281  59.4132805  59.6797333   7.7301145
  60.1073303  60.1974602   8.9715824  44.3418541  54.7336693  24.0911083
  43.5443001  55.2419281  24.2387810  44.0292931  53.8563881  23.8699436
  34.2728729  15.6160507   6.7792649  33.7662163  16.4227829   6.6859126
  35.0796509  15.8890963   7.2160602  79.8868103  60.0980186  34.3456345
  79.1478195  60.3739586  33.8034286  79.5463486  59.3660431  34.8599663
  57.0847740  31.8765430  88.6349487  56.4352036  31.9100361  89.3372040
  57.4973869  31.0182056  88.7310791  13.3442621  67.2576370  60.4314575
  14.2748623  67.1638260  60.6349678  13.1784296  66.5971680  59.7587700
  80.5277786  50.8191032  39.6089058  80.5067825  51.1168175  38.6994247
  79.7257996  50.3067780  39.7117920  73.7588043  18.2829647  33.2106514
  74.2466888  18.0998592  32.4077339  72.8579330  18.4199066  32.9175529
   9.2945013  18.1380386  77.3170776  10.2137499  17.8711891  77.3192749
   8.8073034  17.3196526  77.4125443  49.2824554  52.0759697  21.0659676
  48.5127754  52.6298561  20.9354458  49.9973946  52.6926498  21.2234573
  75.9063721  19.2095222  35.4707603  76.0635147  18.4279270  36.0005226
  75.2641449  18.9311848  34.8178444  44.2324562  56.5307007  70.6313705
  43.6309090  55.8011208  70.4827423  45.0704651  56.2246475  70.2845306
  81.9597321   8.8637428  29.1809998  82.1917496   9.6405277  29.6899223
  82.2818527   9.0501623  28.2991199  50.6244431   6.1538262  52.8754730
  50.8657265   5.7846441  53.7250137  50.3864021   5.3946424  52.3432999
  78.7654419  55.8524590  68.9696732  77.8374710  55.9139366  69.1962128
  79.2243118  56.0068359  69.7954178  47.6948662  17.7967415  23.2064266
  47.7510872  16.9979706  22.6819878  48.4736137  18.2977448  22.9639912
  15.2632084  22.6677952  30.4994583  15.1345396  21.8706646  29.9853954
  16.1803322  22.9006157  30.3548584  23.9764118  48.6617203  64.7347946
  23.7423363  47.9073601  65.2755203  23.1470566  48.9494743  64.3532257
   7.3638692   8.3160133   5.0396590   8.2274561   7.9081731   4.9755073
   7.4108372   9.0700502   4.4519062  55.4924774  16.0166817  51.4586067
  55.7538185  15.8375092  52.3618393  54.8341141  15.3499451  51.2630157
  62.4987946  62.7452126  70.0995941  62.8448448  63.5306282  70.5233917
  63.2762718  62.2524147  69.8370743  23.3514633  50.7051506   5.1815672
  22.5762024  51.0824394   4.7658081  23.3005791  50.9962234   6.0920172
  47.2774963  70.3513794   2.7697835  46.5386086  70.9516754   2.6702018
  46.8732910  69.4934387   2.8993592   7.5012941   1.7030571  83.8332901
   6.8369994   2.3789082  83.6984940   8.2562790   2.0052128  83.3283844
  18.7855110  70.3048096  68.3383636  18.0581379  69.7294312  68.1015015
  19.4157219  70.2000046  67.6255646  19.9680119  17.4396667  79.5509644
  20.5079460  17.5704746  78.7714767  19.9899826  18.2836876  80.0019379
  20.8790951   2.4924448  75.1213379  21.8128548   2.6349494  74.9663620
  20.7649422   1.5453916  75.0420227  51.5595284   1.9767256  51.5780563
  51.2528534   1.0876365  51.7561035  51.5129852   2.4202533  52.4250221
  67.4319916  55.9424171  22.5773964  68.2035675  56.4976883  22.4652386
  66.8580780  56.4439735  23.1564484  44.9970436  56.0315819  35.4757767
  44.1213379  56.3921127  35.3365402  44.9507370  55.1450043  35.1179085
  82.3217239  66.5918732   1.8416498  82.6762466  66.9925003   2.6354008
  81.5049896  66.1809158   2.1250269  30.6697369   7.4554448  25.5399284
  30.5287895   6.5674524  25.8683109  31.5983543   7.4808898  25.3091640
  77.7557449   8.2552252  55.1663437  77.4950485   9.1579094  55.3491859
  78.4126740   8.3311453  54.4743118  22.1872597   2.1375787  65.8826752
  22.7498569   2.8551219  65.5913849  22.7962627   1.4540659  66.1622391
   6.4248242  61.9337044  85.2488480   6.2780490  61.0163612  85.0182495
   6.0724902  62.4263229  84.5076218   8.7765160   1.2407275  89.0013885
   8.2037659   1.6828985  89.6280289   9.5850344   1.7529697  89.0130692
   7.2048502  54.3376503   7.2113824   8.0973101  54.0062370   7.1118140
   6.9409771  54.5850868   6.3251672  80.7786331  14.7299633  58.2324104
  80.3379135  15.4894524  58.6134224  80.9748535  14.1664782  58.9808846
  46.8229141  24.9539585   0.3618220  47.7363586  24.7394829   0.1724759
  46.3183594  24.2948570  -0.1148750  73.3598251  10.5652370  51.5674820
  73.9684296  11.2467585  51.8527260  72.7801361  10.4325800  52.3175468
  65.8391800  40.9508972  66.9917831  66.4196472  41.6789589  66.7699432
  66.3326797  40.1680336  66.7472000   6.6435189  47.4355774  44.7019653
   7.3136621  47.8369904  44.1487846   5.9272256  48.0704803  44.7093773
  30.8936214  48.7331581  70.0462570  30.1513405  48.7890625  69.4444885
  31.3878193  49.5383568  69.8924484  28.6247196  41.7583923  22.5600185
  28.5357151  42.6793480  22.8052750  28.1928749  41.6945763  21.7081566
  73.0093155  51.8750267  47.1692314  73.3281403  51.1356201  47.6867790
  73.2477493  52.6470757  47.6823807  17.5626049  55.0647278  13.6239567
  18.5124569  54.9546089  13.6673689  17.3628025  55.6957970  14.3153791
  36.0183449  13.5149899  74.5657654  35.3978348  13.2690325  73.8796844
  36.8591232  13.5865011  74.1138611  76.3087997  68.5739822  70.9835358
  75.8541946  68.6185913  70.1423569  76.6949310  67.6982956  71.0009689
  22.2576580  71.3004150  25.4460564  21.4592419  71.4978180  25.9357433
  22.9390621  71.8113861  25.8828983  34.6828270  65.4079285  61.9319038
  34.5213852  64.9248276  61.1214828  34.6984138  64.7352371  62.6126900
  23.4741077  54.9371986  72.2496872  24.2807255  54.7724800  72.7380142
  22.9565258  55.5004158  72.8251190  69.0436096  20.5810089  68.5325928
  68.4726562  20.3236237  67.8087158  69.9230881  20.5833588  68.1547852
   2.4563894  21.5208302   3.2185726   1.8421261  22.0978394   3.6724145
   3.1398363  22.1068325   2.8934073  26.3696747  44.6564941  77.1990356
  27.0840454  44.2876892  77.7185440  26.7926254  45.3057175  76.6370316
  43.1692123  35.1999626  12.7319155  42.8121414  35.0811234  11.8517952
  42.6266212  35.8865166  13.1198311  35.4367561  44.5268860  25.3558617
  35.4731598  43.8086205  25.9875259  35.5385399  45.3173904  25.8859310
   7.4078536   1.7564733  21.9506416   7.1231737   0.9192879  21.5841599
   6.6536946   2.0675905  22.4513245  17.6358795  59.0926285  31.4948044
  17.3376980  58.1830559  31.4934883  18.4703045  59.0718117  31.0262585
  29.2465248  64.0862045  44.5435295  29.3360844  64.1062851  45.4963226
  28.4252796  64.5464401  44.3704071  53.1703987   5.1462851   1.5178875
  53.9679794   5.5430140   1.8681755  53.4568214   4.6923599   0.7253318
  43.6484718  11.6658878  27.8960457  43.1249008  12.4227591  28.1592045
  43.3948822  11.5034714  26.9874516  62.0974007  48.2047195  55.7725601
  62.1012154  48.7910423  56.5291634  63.0116043  47.9403076  55.6698418
  71.9678116  20.2689781  18.4937153  71.9999237  20.6887207  19.3533764
  71.3761215  20.8191833  17.9804840  20.0102062  31.7809200  87.4919052
  19.3363800  32.0631294  86.8734055  20.8313904  32.0889397  87.1084824
  23.6567974  48.4881516   3.6116600  23.4846306  49.2373314   4.1820283
  24.6113281  48.4219818   3.5847456   9.5479145  55.2268257  82.3981171
   8.7807331  55.5776405  82.8504333  10.2322693  55.2073822  83.0670853
  81.2672882  50.5831947   6.3473225  80.3694763  50.2822762   6.4873605
  81.5756989  50.0755844   5.5966926  23.3273754  52.4081726  73.8194809
  22.6576576  51.8357925  73.4451981  23.3551102  53.1617661  73.2299347
  65.2554626  29.2962856  25.5991745  65.7470703  29.5017700  26.3943634
  65.2929764  28.3420258  25.5342598  79.0172424  12.5425062  84.7644882
  78.9552231  13.0247307  85.5890198  79.1882324  13.2155342  84.1056824
  50.9499817   4.8174949  29.4171333  50.5315628   4.9849730  28.5726738
  50.9653168   3.8633339  29.4917889  69.1750488  41.9097023  70.0295868
  68.9173508  41.2969208  69.3408737  69.3817291  41.3530884  70.7803802
  75.1869736   5.0614290   0.1188416  76.0471954   5.3621092  -0.1741477
  75.3472977   4.1876955   0.4753772  46.6381683  59.3856812  68.0597916
  46.3123436  58.9582291  68.8518524  47.1179123  58.6987457  67.5969772
  39.3040848  41.0380898  31.0480747  39.2016487  40.1361198  30.7444439
  38.5633316  41.1778145  31.6379814  41.7430687  58.9804077  78.8988800
  40.9715347  59.5458336  78.8634109  41.5305099  58.2485657  78.3196945
  43.1134033  50.0887489  45.9392395  43.4681511  49.2648125  46.2731743
  42.9000092  49.9043922  45.0245209  12.6013994  57.4221764  26.8478909
  13.2325830  58.1367760  26.7631245  11.7651014  57.8093376  26.5891552
  15.9447727  54.2857857  68.4380264  16.7839375  54.6254730  68.7489090
  15.8159342  54.7069397  67.5881653  86.3110123  23.4284325  22.8069916
  86.6563644  22.7035465  23.3280544  85.3612213  23.3132496  22.8362713
  83.7030106  21.1517239  39.0333061  84.3146439  20.4421501  38.8367119
  83.9538116  21.4486465  39.9080467  46.2417145  65.3893509  44.5986404
  46.8332024  65.1671371  45.3176651  46.8218155  65.5800323  43.8615150
  39.4388313  51.0780029  34.1802444  39.2625504  50.6768303  35.0312538
  38.6596527  51.6028786  33.9968758  83.4505539  11.1815033   9.9137039
  83.4668655  11.1335049   8.9578476  83.8364258  10.3542156  10.2016811
  21.0989017  70.6385803  28.5386620  21.4247417  69.7742462  28.2876892
  21.8707962  71.0993500  28.8674526  80.3308716   0.0745376   3.1855209
  79.7325897   0.8160684   3.0937564  80.0214844  -0.5637909   2.5428345
  20.9777889  51.7257576   4.3562016  20.2136688  51.2372246   4.6622834
  20.8317604  52.6188583   4.6681004  59.4379196  35.9259033  41.7317238
  60.0613213  35.7656937  42.4401970  59.0526695  36.7771378  41.9396057
  24.7309189  38.6416702   9.9638109  25.2981205  38.0408287  10.4470310
  25.3313103  39.2790794   9.5771961  24.8591003  17.0590611  73.4986420
  24.1857014  17.6489964  73.8373795  24.3891926  16.2499313  73.2968292
  48.1517982  63.0692902   4.2925429  47.5945473  62.6452713   3.6399248
  49.0069275  62.6530838   4.1840820  26.4952545  55.1070938  25.9630737
  25.6278419  54.7045784  26.0055676  26.7322235  55.2625237  26.8773594
  60.7141800   0.4211900   6.4186964  60.3925018  -0.3857185   6.8207579
  61.5339775   0.6066960   6.8766799  13.5644951  40.3823547   2.4637778
  13.9508295  40.7615509   3.2532001  14.3143101  40.1742630   1.9063662
  58.8361015  33.4250603  30.7341728  58.1066284  34.0446510  30.7485847
  58.4213181  32.5692177  30.6259060  16.3273869  57.2011108  23.5296288
  15.8113651  58.0013275  23.6276417  16.5764904  57.1884384  22.6054974
   5.0788116  68.9093781   8.9391832   5.6506429  68.8109665   8.1778984
   4.2996173  69.3485489   8.5982761  51.1121063  35.8797569  47.1707687
  51.9233551  36.1950264  47.5691605  50.6207123  35.4979439  47.8980789
  29.8448124  24.6006737  75.1869888  29.7555866  24.1677628  76.0360260
  30.6766510  24.2783451  74.8400345  61.9542046  42.4308128  81.5870285
  61.6215096  43.0703926  82.2166977  61.2568169  42.3502045  80.9363403
  62.6453209  56.3766174  61.1228752  63.3661270  55.8657265  60.7545509
  61.8753967  56.0955429  60.6284637   3.1254845  64.6966782  77.6882553
   2.6174088  64.0042343  78.1108780   3.7771592  64.9488678  78.3424377
   2.0353847  60.1444626  35.8274040   1.7092568  59.8315964  34.9836121
   1.2666397  60.1404686  36.3977089  29.4762516  31.5837116  88.9550858
  30.2130241  32.1947746  88.9554443  29.8707085  30.7328091  89.1464005
  77.2931442  48.3103714  84.9694443  77.6628494  49.1480560  85.2484283
  76.3462296  48.4308853  85.0406494  71.9441071   2.6646502  51.6233139
  71.7396240   3.4956603  52.0520859  71.1326981   2.1600049  51.6797333
  14.8252773  70.1928558  55.1441727  14.0601006  69.7237320  55.4768295
  14.8973780  69.9161835  54.2306709  13.3133698  60.7344971  36.3328667
  13.1096401  60.1314697  37.0477676  12.9023247  60.3410339  35.5631485
  44.7588120   5.5335212  17.9007416  45.0350647   6.2049870  18.5244789
  44.7526970   5.9807320  17.0544567  62.2122688  31.0991249  79.1946945
  61.5112839  31.6043301  78.7828522  62.9663506  31.2214794  78.6179657
  47.9795303  54.9238472  15.9029856  47.4768753  54.6983261  16.6857433
  48.7989883  55.2855034  16.2405167  77.0421066  53.4037819  86.9768982
  76.3308487  53.5598068  87.5981827  76.6318283  53.4904366  86.1164322
  39.9643021  50.3366623  18.5616722  39.8664131  51.1421852  19.0693951
  39.1532974  49.8535728  18.7202053  31.6099644  67.8807373  23.2421303
  30.8605118  68.4734268  23.1849003  32.0378647  68.1145401  24.0658207
  23.3272705  54.3186836  44.4001389  23.2851830  53.8365059  45.2259483
  24.2581043  54.3313980  44.1773834  37.7990646  61.8016663  20.5624275
  37.5105324  62.4157066  21.2376595  38.7541809  61.8080368  20.6252327
  34.3953705  65.8343811  58.4795609  34.4715195  64.8970108  58.6577988
  33.4714508  65.9631119  58.2650108  17.1659603  63.4900665  80.8687286
  17.5750599  62.6371231  81.0148697  16.6030579  63.6196442  81.6320038
  48.0763130  44.5343208   2.2074447  48.7103081  44.3982620   1.5033368
  48.0343895  43.6909752   2.6582670   3.9315715  11.1459074  66.8874588
   4.1099973  10.2940178  67.2858047   3.2364061  10.9726019  66.2526779
  23.5785389  39.5544472  23.9570007  22.7214775  39.5730247  23.5311699
  23.3827057  39.4143753  24.8834229  66.0966797  58.7274017  51.0088997
  66.3205185  58.1846924  50.2528610  66.3024673  59.6203041  50.7321129
  76.2601547   0.8817664  88.3639297  76.8945084   0.3049451  87.9383621
  76.7481537   1.6862689  88.5396194  47.4694824  44.2770500  77.6148911
  48.3595161  44.6274872  77.5793304  47.5080376  43.5927162  78.2830505
   8.6493406  53.5739441  15.4098845   9.4226751  53.0138969  15.3425684
   8.0541248  53.0923538  15.9843616  27.3895817  33.2309685  17.3827705
  26.4372787  33.2320671  17.4794750  27.7213955  33.2851562  18.2789822
   0.8411575  10.7002487   9.1060705   1.4338441  11.3699455   8.7648087
   1.3468423  10.2577591   9.7877722  69.5699615  70.2788849  11.8338614
  70.3116455  70.8033295  12.1356668  69.8154678  69.3766632  12.0386906
  39.0455780   5.1323466  11.4941578  38.9210777   6.0803585  11.5389357
  39.9003181   5.0224414  11.0775366  78.9249191  31.2668056  20.5631981
  77.9832993  31.2792358  20.7347679  78.9941406  31.1576729  19.6147614
  21.9554253  62.3306808  71.3332062  21.9671555  61.6216393  71.9761353
  22.7859211  62.2435074  70.8653259  50.1853333  49.3281441  36.5771408
  50.3630791  49.5281830  37.4961739  49.2751770  49.0318871  36.5681953
  33.8588409  16.4356270  79.8521118  33.5073395  15.9345350  80.5880356
  33.0849266  16.7662868  79.3960876  67.5871887  41.3632774  20.3577805
  67.2084503  42.2298393  20.5056419  68.1727905  41.2275543  21.1026802
  82.3974609  28.0120239  25.7086601  83.1974182  28.0523434  26.2327538
  82.1030731  28.9209805  25.6506386  79.2045975  55.4179726  38.2850571
  78.7207184  56.0691071  37.7770081  79.6359711  55.9237938  38.9737434
  83.5892181  23.9299946   6.0250955  84.0327454  23.0990295   5.8547688
  82.7848511  23.6830235   6.4814248  42.3996239  22.7645664  75.8130035
  41.8051491  22.9115410  76.5486832  43.2585754  22.6474361  76.2188568
  55.0692635  30.6442165  13.2919178  55.4895554  30.0450287  13.9088125
  54.1406975  30.6125088  13.5221195  14.5036440  13.5321846  33.2627220
  15.2334538  13.7234030  33.8518295  14.0831470  14.3800287  33.1192818
  58.8340530  23.2381248  61.7845345  58.2649574  23.3510094  61.0232048
  58.3250389  22.6940746  62.3854866   9.3392859  61.1123123  17.1899033
   9.4536886  60.1825180  17.3864326   8.3943300  61.2543907  17.2456093
  17.0933781  54.2551689  57.9734535  16.7699547  55.0235138  57.5030518
  17.5749092  54.6154099  58.7181587  78.9243546  23.6392975  69.9412308
  79.1034088  24.3303757  69.3035889  78.0762482  23.8745213  70.3175583
  14.0145826  67.4736099  86.7643967  13.1174288  67.1404724  86.7452240
  14.5130634  66.7933044  87.2170944  13.0545053  64.2518005  19.3143520
  12.6117659  63.4466820  19.0460262  12.9458733  64.8442307  18.5704060
  65.2117538   0.4183395  41.0159225  64.9355011   1.2400534  41.4217606
  64.4282303  -0.1313063  41.0305710  39.5006638  25.8446636  77.5391388
  39.3971634  26.6947079  77.9668655  39.0195084  25.9304962  76.7161255
  61.2072220  21.9877510  61.1739120  60.5666275  22.6029568  61.5308304
  61.7925491  22.5308437  60.6460152  77.2309875  68.4358368  44.7528801
  76.9679337  69.0972672  45.3928413  76.5998077  68.5286407  44.0392761
  59.3995018  71.8930969  22.2146530  58.8884583  71.2151947  22.6568184
  60.3044662  71.5865479  22.2720985  82.8544388  55.1928596  20.4367428
  83.4055099  55.9484215  20.6408863  82.4224167  54.9809570  21.2642021
  32.9482880  56.2938805   6.0337586  32.2367630  56.9326553   5.9898643
  32.8212967  55.7405624   5.2630825  21.2804508  45.3607635  29.3630219
  21.0847836  44.9008484  30.1793709  21.0404034  46.2708244  29.5373573
  28.2216778   1.1698912  32.5251236  28.2925396   1.1722342  31.5705528
  27.9833183   0.2693917  32.7453918  71.2597733  71.0783844  86.2966461
  71.1522522  71.3509216  85.3853836  72.1767578  70.8112946  86.3601532
  22.6444683   5.2094769   7.2565665  22.3082256   5.7701712   7.9557047
  23.4234352   4.7992525   7.6322756  53.1105919  21.4767570   3.3590648
  52.8181343  21.5184956   4.2695374  52.9899216  20.5602989   3.1105142
  20.3040085  49.3659897  18.6144276  19.4703598  49.8319855  18.5503273
  20.6761780  49.4187164  17.7341194  81.6089249  51.7783394   1.5531644
  82.0376511  52.6069031   1.3389137  81.8586273  51.1885071   0.8418434
  13.4070187   3.4013772  25.5983791  13.3945150   4.2239723  26.0876770
  13.9162560   2.8043575  26.1465359  56.1397285  64.7143326  67.0975418
  56.1912422  65.4403610  67.7192001  56.2853050  63.9323235  67.6299973
   8.0324564   0.6024371  65.2508774   8.3736830   1.2708830  64.6567612
   7.1080637   0.8265923  65.3580399  84.2807388  28.7322426  80.5953293
  85.1032791  29.2200794  80.5544815  83.8517609  29.0520439  81.3890228
  35.9078064  67.0734863  56.4213676  36.7268639  66.9232407  56.8933907
  35.2232704  66.8753738  57.0604286  44.3439827  16.8721638  78.2714615
  43.8745804  17.1936646  79.0412216  43.7006226  16.3397045  77.8036957
  14.1661053  50.8075562  78.3035278  13.2466192  50.5429077  78.3306961
  14.1916571  51.5194244  77.6641312  78.5326691   0.6982611  18.9184990
  79.1832352   1.4002633  18.9050121  77.9624557   0.8857905  18.1728973
  46.0077324  71.3505554  33.7004967  46.2447472  70.6289139  33.1180077
  46.8457069  71.7310181  33.9636993  39.9299164  21.0264244  89.3976669
  39.4554977  20.3441105  88.9226913  39.6293259  21.8454971  89.0039749
  56.4453468  56.5920715  86.7723694  56.7738647  56.9222183  87.6086197
  55.5214500  56.4026260  86.9359589  70.5197449  27.8154106  69.1327972
  71.0077362  28.5638103  68.7892914  69.9181824  28.1952419  69.7731705
  34.5765152  19.5500412  83.1385574  33.7147942  19.5239029  82.7226410
  34.8546143  20.4622478  83.0562592  56.2064819  28.4994297  28.5310764
  55.7812805  29.3558731  28.5750866  55.5423775  27.8858814  28.8453293
  67.3233795  41.7058792  26.2917633  66.4697571  41.8447495  25.8815517
  67.8470764  41.2762756  25.6154385  17.2221317  47.0339317  60.3268394
  17.2397690  47.7138863  59.6533508  16.6589890  47.3913765  61.0133781
  60.7381935  46.6143150  50.1941795  61.6291962  46.5604172  49.8485794
  60.8359947  47.0475006  51.0421295  73.4571381  21.6286888  14.3859034
  74.2015152  21.4255981  13.8194380  73.5617599  22.5568104  14.5953646
  80.4256668  69.8929977  65.1259003  80.3265991  69.6536942  64.2044067
  80.8760910  70.7373810  65.1069870   5.9855862  65.7741241  82.3250656
   6.2314577  66.5010376  82.8972397   6.6684971  65.7554932  81.6546021
   2.8452809  68.1714554  80.0744171   2.0561948  68.6707535  79.8639984
   3.2364221  68.6409454  80.8111877  67.9711838  57.9336853  85.7320480
  67.2070389  57.5653076  85.2886429  68.0289688  58.8310509  85.4039841
  42.0824051  57.4456062  89.2820892  41.8995285  56.6651306  88.7589722
  41.2758980  57.9590950  89.2361908  79.6067429  59.2351341  48.5604668
  79.2018585  60.0978394  48.4708290  80.5462418  59.4143066  48.5988884
   9.4556427  33.8860970   5.2772379   8.9077120  34.5986404   4.9481740
   9.9655285  34.2826576   5.9836278   7.6125932  39.7391548  69.8606186
   8.2353373  40.4119415  69.5853424   7.7975917  39.6076241  70.7905121
   4.8574924  65.2710419  56.1758194   5.4520450  65.5814743  55.4929047
   4.4518719  66.0667725  56.5200958  82.6662292   8.8689394  81.5823441
  83.1242371   8.2284794  81.0380325  83.1732635   9.6746168  81.4821854
  21.2835426  64.6645126  30.3119411  20.5287647  65.1962662  30.0593948
  21.0815582  64.3681641  31.1994152  52.9386482  37.0324287  14.9326696
  53.6210976  37.4213409  15.4797001  52.2485313  37.6950874  14.9034100
  48.3187752  19.4284153  72.3269730  47.7388191  18.8241158  72.7903290
  49.0593834  19.5522099  72.9206085  48.5032234   4.8234162  16.3999634
  48.7639542   5.2101135  17.2358551  49.3085365   4.4410620  16.0513821
   6.9258943  47.3044891  63.9749565   7.7019172  46.8007927  63.7293739
   6.1897321  46.7743988  63.6695061  39.6801834  31.0140228  12.3001385
  40.4585114  31.5704327  12.2711000  39.7525215  30.4602280  11.5227642
  22.9395428  46.8284569  66.4476700  22.8497906  46.1267433  67.0924683
  22.4692440  46.5080681  65.6779861  14.9376631   4.1119561  46.7560387
  15.3840094   3.2782841  46.9043541  14.8433371   4.1672778  45.8051071
  70.1517715  64.2453842  52.9028435  70.0338821  63.3783379  52.5148125
  69.8809586  64.1385345  53.8146973   7.5123286  51.4450684  55.5519333
   6.6485596  51.0906868  55.3408661   7.5539689  51.4211273  56.5079269
  12.5437775  38.1350632  58.3075066  12.7774620  37.7306137  59.1429977
  11.6171131  38.3565559  58.3995132  69.5266418  45.4284210  84.8095627
  69.8253632  46.3259659  84.9558945  68.7258987  45.3548393  85.3288116
  68.9425659  51.7956429  74.9102097  69.3403320  52.6234322  74.6404343
  68.0824738  51.7950706  74.4901199  63.0567398  48.3827324  68.9684296
  62.6371536  48.0244713  69.7506256  63.7515106  48.9475975  69.3067398
  11.6902733  22.2139244  85.1192551  12.5734911  22.3204136  85.4725571
  11.8072176  21.6660500  84.3431244  46.2866707  34.0060234  80.5058670
  45.6931152  33.9603958  81.2554321  45.7333870  33.8094368  79.7499161
  20.6643715  32.6172295  74.1701279  21.0268726  32.6418304  73.2845688
  19.8707809  32.0881348  74.0894623  75.1548080  14.7322588  83.3942795
  75.1546478  14.2719927  84.2335587  74.3788910  15.2917795  83.4278183
  80.0952148  51.6021194  48.6292152  80.6692429  51.5759201  47.8636818
  79.2607193  51.2542343  48.3148575  10.7853098  61.6972961  39.6323776
  11.6091805  62.0684128  39.3165588  10.5682573  62.2189293  40.4050484
  74.2494812  10.8921156   6.3888426  73.3895874  10.4717245   6.3799810
  74.7776947  10.3697395   5.7852330   8.6172571  60.1893463  20.2147274
   9.5652781  60.2740211  20.3163033   8.2520685  60.7775307  20.8757191
  49.6587334  49.0561256  51.3881569  50.4074478  49.1114693  50.7943573
  48.9526062  49.5078201  50.9259987  33.1351357  48.1450272  85.6614456
  32.8575821  49.0571136  85.5760345  34.0904732  48.1798477  85.6129913
  72.1198044  48.6128578  27.4492931  72.9103928  48.1102753  27.6458244
  71.6399460  48.0696869  26.8240528   2.0960538  19.8703156  55.3169022
   1.6870183  20.7275295  55.1981316   2.9010048  19.9154720  54.8009109
  71.0928421  46.9916077  11.0185537  71.0206680  46.8525391  10.0742645
  70.3990250  46.4496269  11.3941908  84.5703201  47.5632095  48.9244461
  83.9326248  47.8048935  48.2527542  84.2483139  47.9825821  49.7223663
  45.0878754  46.5955696  58.4161644  45.7412224  46.4403458  57.7340508
  44.2565765  46.3453560  58.0129700   7.5433230   3.7808642  39.7035980
   7.1801658   3.0670111  40.2277794   7.1028795   3.7045712  38.8571815
   7.7758608   6.7140121  88.9450684   7.1093249   6.2049265  88.4837723
   7.3838444   6.9056239  89.7970276  51.5291023  62.0922394   4.4562707
  51.0288162  61.7934494   5.2156596  51.6784172  63.0235786   4.6191835
  60.4673653  66.1923599  18.6558743  59.9039192  66.1185379  19.4261417
  60.4106140  65.3347549  18.2345371  66.4340820  56.5845108  34.6138496
  67.3666840  56.7788086  34.5204544  66.2587051  55.9241066  33.9435196
  78.3746567  20.3557816  38.5521469  78.1604156  20.5564346  39.4632301
  78.6355896  19.4349194  38.5646782  14.9571066  10.6327314  60.5257301
  15.3077736   9.7462397  60.6117287  14.0603065  10.5684624  60.8541374
  13.7774858  64.6929626  50.0592308  12.8528194  64.7665787  49.8230019
  14.1292477  65.5733414  49.9271851  19.3251095  63.7448235  43.3164330
  19.5996284  63.7956467  44.2320137  18.6334553  63.0831566  43.3101425
  59.1070518  68.2466354  49.0990982  59.7489052  67.6530304  48.7093658
  58.9648743  68.9175415  48.4313354  46.5356178  29.0148373  14.7433672
  46.8313522  28.1779556  14.3850355  46.1000099  28.7835884  15.5637341
  78.2903290   9.6608858  34.8488617  78.6727676   9.7579021  33.9767609
  77.9907761  10.5405931  35.0782433  65.7252960  37.6270714  18.0761490
  64.7777939  37.6210327  17.9403725  65.9504700  38.5543060  18.1521034
  42.7773285  64.5029221  70.7926254  42.6092911  63.6957283  70.3063736
  43.0041237  65.1449738  70.1198959  82.8549347  69.4837723  44.8714867
  82.5014877  68.6217422  44.6519318  82.3367996  70.0954132  44.3483620
  51.0038185  11.0700865  80.8293991  50.2185745  11.4817114  81.1902161
  50.7491150  10.8008127  79.9468765  33.5842209  26.8745594   4.5262570
  33.5563622  27.8257351   4.4227314  32.8132706  26.5595913   4.0543809
  54.9592133  27.3534698   5.8756642  54.4709702  26.7592602   6.4455476
  55.6752968  26.8201027   5.5307341   7.0772638  36.6316528  24.2912731
   6.8379660  37.5395241  24.1048908   7.8141127  36.6980324  24.8986263
  56.7757263  39.6298485  79.3293457  55.9960670  39.5651550  78.7778168
  57.4921875  39.3360634  78.7666702  27.6751499  34.2648239  27.2146206
  27.0447884  33.5474167  27.2794323  27.3102112  34.8446617  26.5461617
   7.6135440  50.7734871  24.3602753   6.7219839  51.0432739  24.1398945
   8.1349726  51.0238686  23.5976124  47.0697632  57.1925507  49.2442703
  47.9802361  57.4689674  49.1400299  46.7816963  56.9774513  48.3571510
  82.7378006  60.0698318  33.3410988  83.2905960  59.4500275  33.8170128
  81.8652725  59.9492226  33.7157707  10.9362669  67.2145309  37.7905235
  11.7067318  67.3433304  38.3437195  11.2826195  67.1943436  36.8984108
  58.6096840  20.8325653  56.4032288  58.9071045  20.1487293  57.0033455
  58.8787117  20.5251579  55.5375786  41.4055672  67.3038254  67.1788712
  40.8948364  66.7647934  67.7828827  40.7512894  67.8131714  66.7006226
  34.6765442   4.9267716  66.8742371  34.5552444   5.7534943  67.3411942
  34.8774414   4.2910151  67.5610352  80.1956329  21.2610703  53.5515976
  79.5616989  20.5459061  53.6054115  79.6818390  22.0500603  53.7240524
  66.7483749  37.1608315  56.5102196  66.8339767  36.2241783  56.6879425
  65.8507233  37.3722229  56.7666702  26.4133129  12.0442924  88.3952103
  27.3544350  11.8698120  88.3865204  26.3428402  12.9657192  88.6446838
  59.1730766  50.5431137  31.9595928  58.4561234  50.3244972  31.3642635
  58.8474121  50.2998886  32.8262062   3.2881258  12.6332302   5.6132445
   3.5487864  11.7122097   5.6101813   2.9446309  12.7820072   6.4942145
  85.8692474  56.5166550  47.6972275  86.3023987  56.0983505  46.9531593
  86.5502853  56.5785522  48.3670006  43.2870560   2.9535658  22.4144478
  43.5522270   3.7619348  21.9757481  42.3309402   2.9944365  22.4344292
  84.7604599  13.5147514  74.5842438  85.1685181  14.1282187  73.9731979
  85.3330231  13.5241861  75.3512650  58.9217339  66.3526535  53.8216400
  58.1501923  65.8498993  53.5604935  59.5483360  65.6928024  54.1186180
   0.7206482  32.1575699  86.5259781  -0.1321055  32.4585915  86.2122421
   1.2651733  32.9447708  86.5319672   8.1316328  70.7556763  87.0156250
   7.9307952  70.0932999  87.6768036   8.4594431  71.5025101  87.5166473
  13.3631830  16.8737926  17.8690987  12.8817310  16.7634888  18.6890182
  12.8262510  16.4276714  17.2141857  68.0304718  44.4422455  26.3644733
  67.6163254  43.5939293  26.2061234  67.9343414  44.5836258  27.3062820
  60.5658875   6.2788782  14.7207203  61.2057610   5.7199030  14.2798815
  59.8800621   5.6765790  15.0090094  67.0481339   5.2936993  29.9046993
  67.2407532   4.3839674  29.6777287  67.7155304   5.8020115  29.4438038
  65.4676971  14.9581585  37.8009453  65.1938782  14.0410461  37.8136330
  65.0000687  15.3579016  38.5342674   4.6372523  35.2110634  55.8564720
   5.0103374  35.1943245  56.7378120   5.1477480  34.5653038  55.3679810
  31.4131870  11.0671024  42.1272659  32.2631378  10.6268644  42.1299438
  31.6114902  11.9691935  41.8759880  65.3615036  60.7782555  57.4395447
  65.6376190  60.2741508  56.6741257  64.4136047  60.6516266  57.4805183
  30.8827953   6.3159494  20.2541065  30.6075516   5.4070306  20.3738480
  30.0948830   6.8300333  20.4305801  11.0118923  18.8568096  22.7400875
  10.4571600  18.1686249  22.3727894  10.6767368  18.9866161  23.6272469
  80.2829590  50.3396416  31.7869625  81.1071701  50.7609138  31.5431824
  80.5447540  49.4941483  32.1514320   8.6096277  57.0600929  26.7308044
   8.9801016  57.5694351  26.0100040   8.2664661  57.7169342  27.3366375
   0.3891820  23.0574093   4.2973962  -0.1750463  23.7847252   4.5598650
   0.4392701  22.5006485   5.0744047  39.5615501  43.2586212  16.3513737
  39.9225273  43.5519371  17.1879692  39.8540649  43.9163933  15.7204981
  64.3042221  23.7294693  11.7860050  64.6747131  22.9193630  12.1362791
  65.0469208  24.1767254  11.3803110  29.7588024  17.5630951  14.9479752
  30.6249809  17.1575794  14.9089394  29.1485386  16.8377113  14.8151999
  46.8544159  28.0779915  76.7984543  47.2801361  27.8977585  75.9602890
  45.9395409  28.2444973  76.5714874  43.5882835  65.0358505  60.5280800
  44.2192039  64.3599319  60.2804871  43.0660934  65.1768951  59.7383614
   8.0147943  31.9327984  13.1764889   8.8904018  31.5478344  13.2132006
   8.1646013  32.8756714  13.2456446  75.7763748   0.1839565  32.5830803
  76.6995697  -0.0087646  32.4193573  75.6664886   1.0906181  32.2965126
  36.4471512  59.1754036  23.4079380  35.8697243  59.4227180  24.1301899
  35.8533173  58.8914757  22.7129745   7.6980119  50.3906250  64.1556396
   7.9034743  49.6778259  64.7605591   8.1656017  51.1472397  64.5093765
  82.8817749  25.9665298  17.4690418  82.3030930  26.6306915  17.8435421
  83.2014389  25.4737129  18.2248039  75.3968811  43.7785950  81.6988449
  76.1186981  43.5613632  81.1089096  75.5136948  44.7097168  81.8875198
   7.1130853   7.1768951  46.5848389   7.2307420   7.7450361  45.8235207
   6.1644177   7.0784526  46.6659012  33.5659485  36.1367416  83.9322357
  33.3861160  35.2071190  83.7919159  34.0360374  36.1666412  84.7655182
  44.0468063  37.8284912  21.9732494  44.6067657  38.1180916  21.2529659
  43.4420624  37.2051620  21.5707874  82.4568405  25.8097038  77.5970459
  82.8312531  25.6885338  78.4696121  83.1952057  26.0904427  77.0564651
  20.4636173  48.1613960  29.2697277  19.5335236  48.3867188  29.2894268
  20.8082066  48.6326332  28.5111618  11.5248585  62.6854134  80.3966599
  11.1928225  63.4687500  79.9580612  12.2123575  63.0098381  80.9783249
  46.4906349   9.1361780   6.4633141  47.0258408   9.6575460   7.0616136
  46.7204590   8.2291222   6.6649628  10.2473326   9.9501963  31.6441612
   9.5377398  10.5220423  31.3514099  10.1982803   9.9775991  32.5997124
  65.1196442   4.7123327  76.5162430  64.7781372   5.5931978  76.3623505
  66.0700302   4.8242850  76.5377808   6.4843321  24.2942524  72.7698135
   7.2270575  23.6909752  72.7952881   6.8790560  25.1632881  72.8419189
  61.4285240  65.0756226   4.6943583  60.7810402  65.4077682   5.3161902
  60.9139709  64.8078079   3.9329503  61.6561508  61.8996429  40.7289619
  61.3659630  61.0108719  40.5237579  60.9976120  62.2317390  41.3391037
  60.6647606  49.4515686  28.7442570  60.6592178  48.5742340  29.1269970
  59.9051094  49.4636726  28.1620064  11.7583551  60.4148521  31.2918854
  11.0048323  59.9539566  31.6606846  11.4253092  60.8134155  30.4878578
  21.8838100  49.9462051  27.7747688  22.7160454  49.6336288  28.1296082
  21.9674091  49.8281097  26.8285675  87.0138779  48.6155014  48.1386375
  86.6563263  49.4778023  47.9269142  86.3073578  48.1719131  48.6079903
  30.8887520  36.5601921  29.7253399  30.9633083  37.1347198  30.4873066
  29.9691162  36.2948914  29.7144833  38.5256653  44.9970589  11.9078026
  38.2473679  44.0820312  11.8689728  37.7129288  45.4977875  11.8373852
  77.8523254  17.6651020  21.3564224  77.0886230  17.6359348  20.7801094
  78.3467026  18.4294395  21.0604248  69.3388290  44.8664551  73.0346069
  69.6561356  45.4308128  73.7396240  69.0852661  44.0544853  73.4735184
  30.2307625  13.7098875  75.7122803  30.3056850  13.5003099  74.7813110
  31.0997543  13.5271387  76.0696182  16.0824852   0.5787085  33.6135712
  15.6681194   0.8041165  32.7806702  16.0645084  -0.3779885  33.6388588
  84.8791504  30.5003815  87.4610519  85.3939743  30.4990501  86.6540909
  84.1509628  31.0945568  87.2796021  77.5522919   6.8048234  78.5313492
  78.4511032   7.0966649  78.6836472  77.6349487   6.0997581  77.8892593
  57.0710068  43.1184731  35.0945129  57.8918991  42.6620598  35.2790489
  57.0325928  43.8161812  35.7487030  50.0135307  38.5043983  42.4631195
  50.7349396  37.9557037  42.7709084  50.4415207  39.2705421  42.0809174
   2.6521049   7.5602732  55.9011459   2.8547575   6.8539362  55.2877541
   2.5885775   7.1273222  56.7524681  84.8269958  41.3429146  65.9427872
  84.8503876  40.3882446  65.8772659  85.4901505  41.5542068  66.5999069
  73.9303131  47.5844574  58.6085663  73.7017670  46.8910675  57.9895287
  74.7902527  47.8897133  58.3195152  34.0629921  59.5210915  53.5540161
  33.5916405  59.9909058  52.8660240  34.9725075  59.5090523  53.2559052
  59.5773811  66.2784653  58.7953835  60.4806404  65.9936066  58.9339676
  59.6448555  67.2199936  58.6366348  66.6993866  28.7260284  88.2641449
  65.8249054  29.0761662  88.4341965  66.8064575  28.7992630  87.3157806
  11.6088533  54.7667313  68.2768402  12.3642292  54.7431450  68.8642731
  11.0807781  54.0113678  68.5352859  68.7235260  63.3258171  61.0338669
  68.2525635  64.1548080  60.9490051  68.3592300  62.7716446  60.3436432
  32.5153275  58.2232552  76.2602234  32.9590187  58.0634651  77.0931931
  33.0457497  57.7581749  75.6132355  67.5405273  14.7108421  49.5200615
  66.7272034  15.0441027  49.8991051  67.4035110  14.7642975  48.5742264
  28.7132721  48.2281036  60.3713188  28.2139359  48.5429459  59.6178131
  28.1501560  47.5658646  60.7720375  70.2338486   4.2123318  25.8026943
  70.4388046   4.6617684  24.9827976  69.3445587   4.4955521  26.0152607
  47.9331551  48.5022926  78.2613602  47.2819099  48.9588776  78.7939377
  47.6203079  48.6026268  77.3623123  57.7213745  19.2543488  14.8708210
  57.6768341  19.0950089  15.8136139  58.5418701  18.8443394  14.5971203
  27.5970802  59.6926460  10.9034376  27.9496651  60.4496117  11.3713255
  26.7493610  59.5291328  11.3167992  47.6720161   3.6015275  11.0550308
  47.3611908   3.3091471  11.9118462  48.2285156   4.3563271  11.2469063
  14.5415964  41.3405914  29.9153805  15.3317804  41.1102409  29.4267273
  14.5945578  42.2903023  30.0225029   6.0824966  32.5839119   7.3577528
   6.5214415  32.3810234   6.5316811   6.4544182  31.9640217   7.9851604
  27.9683838  53.3455849  71.5595016  28.0595779  52.7067108  70.8525696
  27.5355110  52.8632126  72.2638931  67.6651382   1.0676949  -0.0396782
  68.0923080   0.2149273   0.0412208  68.3388138   1.6981649   0.2150792
  39.4875641  71.3371353  69.1502762  38.5751381  71.3095932  68.8622665
  39.7057419  72.2690048  69.1659927  74.4491196  43.0581779  59.1031075
  74.1402054  42.2245064  59.4577827  74.1523972  43.7123032  59.7358055
  72.4009933  46.1560364  30.3520794  71.9471588  45.7522163  29.6123505
  71.7646561  46.7712364  30.7165585  70.9350052  17.6692142  19.3890419
  71.2450790  18.4609585  18.9494648  70.9845200  17.8781528  20.3218460
  79.5099182  28.3598118   5.4148116  80.1383362  27.6851082   5.1577101
  79.3823776  28.2230911   6.3535728  78.2724915  25.4162464  32.4966011
  78.2514038  26.3503456  32.2886429  77.4546432  25.0723553  32.1372986
  75.2604294  12.0379820  39.4592361  74.6875687  12.1545219  38.7012939
  75.4058533  11.0930758  39.5065117  74.2532120  50.2278709   0.1052267
  74.4567719  51.1493263   0.2655901  73.8007889  49.9409637   0.8984643
  27.7367516  53.0813217  41.2283173  26.8184891  53.0103111  40.9675827
  28.2056007  52.5224037  40.6086235  64.1206818  69.5428238  67.3328171
  64.2318344  70.2563019  66.7044601  63.6588440  69.9425125  68.0698242
  48.2527504  42.5538406  18.6633587  49.2009430  42.6847305  18.6689358
  48.0071602  42.5419693  19.5884399   5.5398383  50.5227013  19.0596275
   5.8881049  49.8419991  19.6354618   5.8556232  51.3425255  19.4396286
  63.8707314  24.1949902  21.2585583  64.2382278  23.4390621  21.7165432
  63.2289772  24.5566101  21.8697987  79.2660294   9.0827627  29.9936848
  78.5638199   9.4210072  29.4380569  80.0375824   9.0762138  29.4272118
  68.5324936  56.8550148  19.1207237  68.9354019  56.9928017  19.9779930
  69.1757126  57.1916389  18.4968777  84.4133606  39.8660622  89.0502090
  84.8580475  39.3092690  88.4110947  85.0022583  40.6111755  89.1695328
  58.6909485  64.3947144  72.8899689  59.6065979  64.2066727  73.0960312
  58.6824265  64.5348282  71.9431152  62.9820862  29.2879658  12.1825552
  62.0830574  29.0853729  11.9238367  63.2590332  28.5311127  12.6989937
  84.1012726  23.2179852  50.3257942  83.9233246  22.7607861  51.1477051
  83.2427063  23.3117371  49.9131241  84.1305618  55.3175621  75.6244888
  84.8411789  54.9210777  76.1285324  83.3474045  54.8400688  75.8981628
  40.8256989  43.7571869  23.3969975  41.6221504  43.5274506  22.9183331
  41.1234627  43.9242096  24.2912407  13.3151283  69.5180206   6.9788365
  12.3772840  69.5211945   7.1703286  13.4469433  68.7378693   6.4401102
   6.8663182  31.0282803  84.1600113   7.3529840  31.8146572  84.4069977
   6.0658035  31.0677986  84.6833191  39.6437035  59.4012032  30.6334229
  40.0289421  60.2487030  30.4107971  38.7408257  59.4589920  30.3208466
  62.2534714  12.8428755   5.1893125  62.3356400  12.5991840   6.1113186
  62.2195015  12.0076685   4.7229362  70.3297806  53.3748283  72.1127014
  69.5427628  53.7254486  72.5297165  70.8294067  54.1494217  71.8546143
  40.4117661  48.9471054  23.2043819  39.6270256  49.1347008  22.6893787
  40.0977325  48.8884811  24.1067009  63.4406853   7.8221259  56.1037979
  63.3183594   8.4501734  55.3918839  64.3874207   7.7993946  56.2431030
  70.2787476  11.0480566  70.3841705  70.1334229  11.6979990  71.0716934
  69.4013748  10.8364115  70.0653381  40.3692284  47.1925888  53.7582932
  41.1354218  46.6189804  53.7457504  39.6337509  46.6059952  53.9349632
  47.2336426  65.5379944  80.3855133  46.6303062  65.0807037  79.7997742
  48.1027565  65.2492523  80.1071243  37.9401550  36.5983810   7.9176917
  37.7953987  37.5076408   8.1794729  37.0834923  36.1822510   8.0135880
  72.8882141  63.1984787  68.9207230  73.0962524  62.4974365  69.5383759
  73.4072418  62.9941788  68.1428375   1.1332189  29.4742470   2.0908616
   0.6705862  30.0488205   1.4808887   2.0582657  29.5891132   1.8733175
  49.0830498  62.5852051  59.6704292  49.7040482  63.0652237  59.1225433
  49.2521629  61.6639023  59.4733734  76.2125702  34.2117691  55.2648621
  75.8904495  34.3343887  54.3718719  76.8770981  34.8918037  55.3752670
  68.8689651  60.9180756  54.8632011  69.0500641  61.8466682  54.7177773
  68.3966446  60.8936272  55.6953964  70.1662979  15.3026524  50.6264801
  69.3179474  15.0881424  50.2385292  70.1601944  14.8603582  51.4753456
  66.7866898  15.8475580  53.1156349  67.0970230  14.9904280  52.8236504
  66.7433243  15.7745457  54.0690613  33.5708160  27.8455276  84.5316849
  33.5210075  28.2294044  83.6562500  33.4442024  28.5856628  85.1253204
  71.4489517  27.5229530  36.8490028  71.2829208  28.1266861  36.1250038
  72.3159485  27.1613064  36.6652679  23.7896461  53.5982552  54.9840965
  23.0487671  53.4341621  54.4006538  24.3353481  54.2242012  54.5080338
  43.6213074  63.8350029  45.2984657  43.3390312  64.2554016  46.1107597
  43.6756134  64.5504074  44.6648445  76.1818161  19.7353153  17.0791759
  76.6430893  19.0837135  16.5510883  75.4655228  20.0341339  16.5189381
  40.3072853  10.9789219  13.7869263  39.3784065  11.0907202  13.5846529
  40.7614555  11.2733583  12.9974518  15.3431454  62.9467010  61.9700775
  15.8317862  63.7208481  61.6905060  14.8340492  63.2441978  62.7240982
  19.8297615  15.9287271  20.5673199  18.8950100  15.8947859  20.3640461
  20.0251598  15.0690565  20.9401684  81.4208908  45.6332779  58.0581779
  82.2934494  45.2398949  58.0698395  81.5140686  46.4062347  57.5013237
  63.0406036  12.6535444  77.4431458  63.4981384  12.5716486  78.2799149
  62.1747398  12.9890270  77.6754379  51.0193062  53.4211044  42.0716171
  50.2517319  53.5240479  41.5090637  50.7359428  52.8131981  42.7545395
  68.4364395  30.1330471  24.2508259  67.6920242  30.5925694  23.8623428
  68.4454727  30.4205818  25.1637726   1.4196479  66.5671158  72.2416534
   1.4098103  67.4694443  72.5609436   1.3198628  66.0330811  73.0297470
  13.7767992  11.4674978  24.9124222  13.3769493  11.7769880  24.0996685
  14.7188387  11.5351963  24.7568245  48.4907265  31.9005413  72.2700119
  48.2634506  32.3687668  71.4666824  47.7360420  32.0300407  72.8443985
  57.1399117  58.7745438  12.9805574  56.4852715  58.2019615  12.5807753
  57.9652100  58.2996140  12.8828049  59.2299614  50.0800018  43.1374550
  59.4206543  50.9638214  43.4516640  58.3895721  50.1621971  42.6866493
  58.8999138  29.5362263  29.6062107  58.2485771  28.8406143  29.5161095
  58.5525284  30.2588120  29.0833073   1.5654278   6.2675309  30.9541607
   1.3473419   7.1698284  31.1876755   1.5348936   5.7913198  31.7839336
  85.1379776  63.5213242  67.6434479  84.5756607  63.7217064  68.3917007
  86.0190125  63.7533340  67.9370117  65.9845734  27.7725525  64.2546768
  65.9321518  28.7243176  64.3420105  65.2547379  27.4433403  64.7792664
  72.9175034  49.5848083  44.3325806  73.7996979  49.3038330  44.0896606
  72.6198807  48.9248962  44.9588127   5.2974553  35.8644714  17.3344231
   5.7151484  36.5643959  16.8325577   4.3663487  36.0862732  17.3256283
  13.4782133  31.4763393  22.1107731  13.1002512  31.5256653  22.9888058
  14.1054029  30.7549343  22.1601753  13.6476364  42.5968475  26.6120987
  12.8980083  43.0110970  26.1846790  13.3627367  41.6980400  26.7770424
  73.6127472  29.9678059  28.4904613  73.2591629  29.0799179  28.4369411
  74.5201035  29.8823147  28.1978340  72.2057724  65.7714539  65.1112900
  72.8528595  65.2723618  64.6128769  71.5079117  65.9542770  64.4821625
   4.0156665  10.8510303  26.4435539   4.1562419  11.3069897  27.2733555
   4.8000164  10.3144083  26.3292580  26.4596043  13.3087673  78.5175018
  26.1498032  12.6650696  79.1546097  27.1927834  12.8775473  78.0784988
   8.9206743  50.8293457  31.1702995   8.9765558  51.7339745  31.4781208
   7.9850926  50.6278076  31.1876450  59.4944725  53.0368843  48.5034218
  59.1074028  53.0664635  47.6284714  58.9344788  52.4342804  48.9928131
  21.2750282  14.0301895  86.0120392  21.3211002  14.3516378  86.9124680
  21.0051632  14.7920637  85.4992523  85.3528519  60.8264465  20.4677906
  85.2180634  61.1578674  21.3556099  86.2513657  60.4964409  20.4691677
  76.9078522   9.9280033  45.6787415  77.1477051   9.2625790  46.3236580
  76.4638062  10.6060333  46.1879883  42.8174286  55.4393044  58.4369659
  43.1885872  54.5570831  58.4243317  43.5781860  56.0186081  58.4804230
  30.0938435   7.5881224  14.6130152  30.7999249   7.6846752  15.2520456
  30.5423965   7.4254866  13.7832069  62.3933792  56.8470840  16.5682621
  61.8018532  57.4629860  17.0006962  63.0832214  57.3975677  16.1977024
  14.8125477  53.0443230   3.6206179  13.9511375  53.2952614   3.9541366
  14.6269016  52.5724792   2.8087478  77.3885422  50.9654617  52.4027519
  76.5733109  50.9466743  51.9014778  77.6458206  51.8874283  52.4071312
  28.1324635  41.5675812  25.3475266  28.2415199  40.9668846  24.6103001
  28.6710663  41.1921501  26.0440826  83.5915680   4.9327121  14.4659233
  84.3063583   5.1208806  13.8577290  83.9927063   4.3934536  15.1474800
  56.6175232  25.8953495  81.2501144  56.6297874  25.7983589  80.2979202
  56.9384384  26.7838326  81.4045181  84.2336273  58.3011894  34.8851509
  84.9299469  58.7955894  35.3175163  84.1385574  57.5089645  35.4138985
  81.6934738  56.9997406  51.4515343  82.2388992  56.3970909  51.9570618
  82.2811890  57.7195740  51.2220535  86.2000198  61.0879517  66.8286133
  85.9287262  61.9744568  66.5904160  85.7423172  60.9100380  67.6502457
  59.1799355  41.6503220  35.9991798  59.8973045  42.2285004  36.2586403
  59.1375504  40.9942055  36.6948433  44.9751396  24.3423443  28.5728626
  45.0746994  23.5378857  29.0819473  44.0286369  24.4705524  28.5102215
  12.8843479   7.0602946  68.0551910  13.8061457   6.9333997  68.2797318
  12.7937298   6.6702623  67.1857681  51.4434967   9.2258615  62.0333443
  51.3822365   9.6930742  62.8665276  52.2409782   9.5648575  61.6267242
  86.6276855  18.1493950  59.4831123  87.2483521  18.5437489  58.8703384
  86.3910065  18.8623428  60.0763397  50.6147346   4.4616065  38.9071121
  50.7716255   5.1675353  39.5342331  49.7950668   4.0613151  39.1971893
  69.6435776   9.7916021  55.9254150  68.7706146   9.4064217  55.8492165
  70.0740967   9.2761612  56.6074753  60.9479675  24.0886784   4.9915271
  61.7512703  23.7624874   5.3971620  60.6310043  23.3553219   4.4643140
   3.2901375  38.7884636  23.2984867   2.7887359  39.5773926  23.5044441
   4.1645126  38.9626236  23.6468639  50.7495956  25.1626511  57.3410454
  50.4082375  25.5250282  56.5234947  50.6579208  24.2152462  57.2398148
  51.3300095  23.9039326  17.1143036  50.5504608  23.8921490  16.5589676
  51.8253555  23.1292896  16.8482361  68.2457199  59.2139626  16.5299206
  68.2719803  59.7532158  17.3203297  69.0687332  58.7254715  16.5457916
  76.2494583  34.7752800  32.6182823  76.3404922  35.7187767  32.7515411
  75.5140686  34.5242996  33.1772423  59.7168465  40.4315872  48.7709427
  58.7812576  40.2340508  48.8143387  59.7690620  41.2291565  48.2442627
  84.3140411  33.1560707  41.8576584  85.2432098  33.3317184  42.0060425
  84.2710037  32.8412666  40.9547310  23.2382088  70.9881744   2.2888038
  24.0214367  71.1516342   1.7633835  23.3087978  71.6007233   3.0209403
  43.8628044  47.7370834  47.4134827  43.6735458  46.7990036  47.4338837
  44.3175201  47.9076767  48.2383232  46.9394989  51.4363365  11.9318352
  46.1165428  51.3972092  12.4191208  46.6728020  51.5596123  11.0208416
  10.8439102  19.5770626  32.2739067  11.6168528  19.8385830  32.7743073
  11.0618639  18.7098637  31.9323082  55.7104492  11.5792198  19.4388313
  55.2659302  11.1934052  20.1936703  56.4875069  11.9993677  19.8074570
  63.9784164  28.0523777  36.2022285  63.2165337  27.6750774  36.6420135
  64.4328766  28.5416698  36.8880081  24.0282173  56.0046310  22.9212894
  24.3237076  55.1308670  23.1771297  23.3643513  55.8460121  22.2502060
  72.9525146  43.4758492  80.3964767  72.3902740  44.2198448  80.1806183
  73.5767899  43.8241501  81.0330276  51.5733833  67.6201096  14.6908207
  51.2286491  66.7277145  14.7226152  52.4100304  67.5702896  15.1531754
  77.3654633  30.2489166  81.6038513  76.7561188  30.5251675  80.9193039
  77.5600357  31.0507145  82.0891266  83.2905884  11.0768185  74.5260849
  84.0274353  11.6873341  74.5023117  83.2208405  10.8212976  75.4459076
  10.6735659  38.0637550  66.1306839  10.5255184  37.6765594  66.9934692
   9.7951403  38.2334671  65.7903976  47.2281456   9.8196926  88.9853973
  47.5765076   9.7321873  88.0981445  46.9449425  10.7322483  89.0426025
  85.7910156  59.6024399   8.8596411  85.7606964  58.6530342   8.7415628
  84.9635620  59.9157600   8.4944248  78.6918259  27.5924168  55.0061378
  78.1606445  26.8413525  55.2706795  79.3765869  27.2181377  54.4518318
  56.1825371   7.6298141  61.6780930  56.0175705   7.9667673  62.5587082
  57.0634575   7.2583098  61.7249260  66.9664230  36.0355301  48.6074905
  66.1587296  35.5219841  48.5958099  67.4388199  35.7568283  47.8230171
   8.5206461   8.2975760  38.2319984   9.3749790   7.8749046  38.3197327
   7.9748497   7.8743472  38.8947296  24.4540501  33.3582726  80.6332169
  25.2464123  33.5437622  81.1371918  24.4224796  34.0507088  79.9730911
  86.7168274  58.0467148  30.4029350  87.3558731  57.3451958  30.2775288
  85.9899292  57.6288147  30.8646832  82.5156174  28.5880527   0.4122153
  83.3662567  29.0258389   0.3807656  82.6200409  27.9093704   1.0790875
  37.2213211   9.9039049  18.9986076  37.9721565  10.4704590  18.8211403
  36.7294388  10.3641405  19.6786575   0.5833719   6.5201879  48.8455315
  -0.0054978   5.7892885  49.0332832   0.5447959   7.0665803  49.6305161
  77.8002930  53.2529945  39.1997337  78.0505600  54.1075516  38.8485527
  78.0692139  53.2832718  40.1178818  80.5428467   9.3226576  25.8318882
  80.5574646   9.5688314  24.9070015  80.5369568   8.3655014  25.8249111
  61.7416840  67.4426880  44.9968948  61.2073593  66.6485214  44.9921112
  61.4242859  67.9494171  44.2494202   9.8400955  57.2501869   5.7179179
   9.1616898  57.8945961   5.9197421   9.6923571  57.0266914   4.7989755
  22.3925800  58.7927628  31.6540642  21.6371059  58.8218536  31.0670013
  22.0722218  58.3404045  32.4344292  50.6720734  39.5836411  19.6826210
  50.4984894  38.8095322  19.1470337  50.7686615  40.2956772  19.0502357
  26.2346630  69.4786987  67.0452957  25.9012718  70.3680801  66.9266434
  26.8176231  69.5404053  67.8019867   1.4608188  34.4654579  46.4225883
   0.8621368  33.8071060  46.0699043   0.8884712  35.1629791  46.7421379
  75.2491913  48.3173523  61.4628181  75.2745285  47.5659676  62.0552864
  74.3705063  48.2940483  61.0838776   4.3827515  53.3400459  46.9457359
   4.2316289  53.6461678  46.0514870   3.9147503  52.5065651  46.9958801
  37.9522934  66.0806808  66.2529526  37.3280678  66.7462692  65.9638672
  38.7660942  66.3030472  65.8007278   4.5255756  33.5350494  76.8055496
   3.6696980  33.2464676  77.1224518   4.6915617  32.9914398  76.0353699
  73.1277847  24.3467197  60.9263687  72.8462448  25.2000237  61.2562752
  73.9976807  24.5065651  60.5603638  42.2886124  41.8898239  76.4489517
  42.0913811  41.9751015  77.3817215  41.8083572  42.6075020  76.0360031
  29.8251667  70.3106155  71.5901031  29.6845379  69.3979721  71.8421631
  30.4330807  70.2643433  70.8521805   2.0688896  32.8849030  21.2737732
   2.7341375  33.5455055  21.4668541   1.6202195  33.2169571  20.4961700
  32.7814026  37.0049744  89.4873276  32.1022758  37.1173668  88.8222046
  33.4719925  37.6158409  89.2301102   2.1679387  44.6121178  67.6286163
   3.0412798  44.8604469  67.9316635   2.1477258  44.8808632  66.7101364
  77.7759628  60.8786049   5.2601647  78.1621933  60.9762268   6.1305261
  77.8228836  59.9394417   5.0812716   4.0132003  17.1187687  81.3116913
   3.5986185  16.2562695  81.2905273   4.3062387  17.2657871  80.4123840
  13.6704273  71.3233566  48.8162079  13.4475765  72.2099075  48.5323067
  12.8573570  70.9785995  49.1853828  23.3565559  22.4167576  78.9002304
  22.7643528  22.9069004  79.4705658  22.9392548  21.5611286  78.8002701
  47.8649292  23.4681816  66.6137314  47.5648079  24.2501259  67.0771103
  47.0600090  23.0213871  66.3516006  86.5936966  55.2070274  21.3698063
  86.9439621  55.2061920  20.4789944  87.0966187  54.5320435  21.8255463
  50.8456116  61.7801399  66.3040466  50.3085175  61.2002754  66.8439713
  50.2606659  62.5014915  66.0722656  79.1449738  30.8577423  14.0302706
  79.9309082  31.2496777  13.6495686  78.4328537  31.4367008  13.7583895
   4.7212849  41.8962631  62.2888985   5.1439857  41.5299034  63.0656471
   4.4836168  41.1326561  61.7629242  56.4263420  61.1380997  67.1180267
  55.5006638  61.0734558  67.3529129  56.7897453  61.7624779  67.7459793
  17.3323898  61.8364296  42.7161522  17.3876610  61.7003937  41.7702827
  16.9435425  61.0288048  43.0519638  46.5099678  45.0158272  71.3571701
  46.3513908  45.5286598  72.1496964  46.1615791  45.5565262  70.6483002
  47.4090347  58.7748337  52.9990158  46.9411316  58.1594162  52.4346085
  48.0931435  58.2481613  53.4123459  56.7799568  66.9085541  25.3911247
  57.6921158  67.1739578  25.2738285  56.5593872  67.1945801  26.2775631
  34.2187958   3.9996085   6.8388724  34.2622337   3.4015656   7.5849886
  35.0191917   3.8239052   6.3441710  86.3513794  18.6357098  77.4575195
  85.9523544  19.5057163  77.4674911  85.6091003  18.0321026  77.4271851
   7.8062587  54.2714272  45.3891563   7.0397220  54.0845528  44.8471870
   7.4793801  54.2323608  46.2879639  49.1396828  68.1051025  77.9613113
  49.8436928  68.4242783  77.3967590  49.4779930  67.2878799  78.3272552
  50.5678749   6.9035106   6.5719647  49.8148422   7.2466278   6.0908737
  50.4042244   7.1518574   7.4817853  62.1416473  62.4753189  46.1913528
  62.1652374  61.7263908  45.5957146  63.0258713  62.8398743  46.1529007
   0.7491835  28.8397198  58.1422462   0.8394516  28.1886406  58.8380775
  -0.1551902  29.1446571  58.2154160  80.4245834  55.4723816  75.5982666
  81.0355911  55.2385368  76.2969894  79.7446899  54.7998772  75.6396255
  12.0434780  51.1692162  38.0128937  12.7861013  50.6700516  37.6729279
  12.4422274  51.8760986  38.5203857  76.3258209   6.6295228  44.0422554
  76.1868134   6.3137193  43.1494064  75.5607224   6.3205547  44.5274315
  52.9793243  58.0472488  27.0822773  53.2712212  58.6387558  26.3886299
  53.1180992  58.5397949  27.8912086  29.8944931  44.9569283  85.3871918
  29.1276836  45.3260193  84.9490051  30.3061352  44.4032707  84.7236786
  77.2014618  22.0540447  20.8284645  78.0240707  21.9050369  21.2946720
  77.3783417  22.8077011  20.2654858  65.3570175  66.8895721  27.0464878
  65.9342728  67.6197586  26.8232365  64.4735184  67.2348557  26.9182873
  28.6634731  71.1185989   1.7622882  29.2080002  71.8887558   1.9253309
  29.2889709  70.4168701   1.5818522   2.5054965  19.9401417  12.5465508
   2.0964031  19.3551846  13.1842804   3.1551914  20.4287033  13.0519562
  49.3275795  18.4435177   2.0708754  49.4901543  17.9408836   1.2726524
  49.3317871  17.7901325   2.7703772   9.2878523  31.2658520  65.5624008
   8.5875463  30.6159916  65.5033722  10.0632992  30.8131123  65.2308273
  62.8071785  10.3395252  40.6855507  63.4393578  11.0580568  40.6683922
  62.5124512  10.2581053  39.7785034  77.7056427  45.9260368  65.6922989
  78.3375549  45.9595375  66.4104919  77.3867569  45.0235252  65.6957550
  85.2446136  18.1779861  45.7769737  85.2661057  17.4671860  45.1362457
  85.0725098  17.7426872  46.6119156  48.6633148   3.0297234  30.5753307
  48.3502541   3.0765646  31.4786739  48.4889641   3.8996212  30.2160091
  24.0698471  39.4511185   7.1225214  24.5244179  40.0121040   7.7509260
  23.1689148  39.4128189   7.4435916  83.4711609  23.4591999  22.7670479
  83.2248383  22.7952271  23.4110165  83.1162033  24.2761288  23.1175690
  48.7236557  43.1104317  75.2459183  48.0525284  43.6410446  75.6751862
  48.3041573  42.7955322  74.4452438  63.1928101  10.7598610  86.6827011
  63.1365891  11.6373539  87.0609589  62.5383759  10.2505741  87.1608047
  72.9362411  41.3359947  87.2317429  72.8159790  41.8799782  86.4533844
  72.1740570  41.5278206  87.7781143  12.3406219   4.9631395  84.5194702
  13.2493706   5.2389054  84.6393127  12.1201115   5.2443485  83.6314774
  26.1271877  39.8241920  45.4162445  26.9083958  39.4128227  45.7859993
  26.1248207  39.5521240  44.4985275  55.4574356  65.4680405  45.6312027
  55.3415565  64.8710251  46.3703728  56.2205391  65.9956665  45.8668289
  43.9893761  28.2356834  70.8336258  43.2905312  28.8289471  70.5581436
  44.2574463  27.7915001  70.0292206  64.7265091  25.5706959  44.4163322
  65.5265274  25.1368885  44.1196632  65.0342941  26.3480053  44.8824768
  10.0531445  22.7989807  33.7531357  10.7770004  22.5847988  33.1645851
  10.3561440  23.5683250  34.2353516  82.9358292  36.6975441  43.9266968
  83.1265411  36.0676994  44.6217918  82.8517456  36.1639824  43.1364594
  52.2528915  29.7499962  47.5279427  52.3055916  29.4324856  46.6264763
  52.7102890  30.5907059  47.5128899  70.6782074  56.9074898  36.2260170
  70.6162186  56.2109451  36.8796310  70.9913330  57.6681137  36.7155418
  55.2674713  36.3287544  69.5359802  54.4891510  36.7372704  69.1570816
  55.3902893  36.7774429  70.3725357  63.1473770  20.9987812  38.4552155
  63.9939957  21.4424896  38.5061607  62.9381332  20.9885731  37.5212250
   4.8141742  53.7571373  39.9206696   4.0796103  53.1634331  40.0761108
   4.7310109  54.0051155  38.9998970  26.1149654  53.7752914  43.5727654
  26.1503086  54.4222107  42.8681526  27.0313206  53.6206894  43.8021622
  79.6150284  37.0413857  19.0712032  80.0007019  37.8962631  19.2627048
  80.1620407  36.4190598  19.5504951  50.0932426  52.7328529  82.0389786
  50.4052048  51.8726044  82.3198395  50.8354912  53.3179703  82.1904221
  83.6572189  20.9702587  58.7722931  84.0475540  20.6281223  57.9680443
  83.5641327  21.9094467  58.6126328  69.8078766  53.8847542   2.9702029
  68.9787979  53.4807434   3.2264075  69.5811310  54.7941208   2.7756090
  85.4312668   1.8440322  13.5297384  86.3587646   1.9731076  13.3314352
  84.9830475   2.0166001  12.7017603  13.5164948  25.5836010  31.2441063
  13.4327364  26.5338173  31.3235264  14.0268221  25.4541283  30.4447098
  51.3901901  63.9240189  51.5228004  51.7499771  64.6041718  52.0921707
  51.1161118  63.2300186  52.1223640   1.4751588  13.8530197  68.8743820
   0.5197829  13.9045162  68.9033127   1.7008537  13.2103777  69.5469131
  85.3587646  29.3512268  42.2752762  84.5327301  28.9157715  42.0648422
  85.1762619  29.8344822  43.0811234  67.3955460  35.1966438  10.8843670
  68.1979828  35.0326538  11.3797741  66.9531631  35.8936310  11.3688650
  84.9074020  37.7288437  29.6661854  85.6880188  37.5192490  30.1789646
  84.9934387  38.6616364  29.4693947  53.6242104  42.4524422   7.6211767
  54.1041489  42.3765678   6.7964740  53.8053970  41.6321869   8.0800743
  18.7271881  25.5175095  62.3450470  18.3027916  26.3560047  62.5268364
  19.5093937  25.5203838  62.8967514  19.7269974  68.9832153  35.9885406
  20.6154366  68.6275482  35.9682732  19.1729698  68.2318115  36.1999283
  71.7243576   7.3686161   7.6745219  72.5985565   6.9869571   7.5948510
  71.1281586   6.6335144   7.5316944  31.5509701  57.8765678  25.3442211
  30.9255905  58.5703354  25.1348934  31.2330761  57.1137962  24.8611546
  25.9880848  70.4298401  31.2991714  26.7275562  70.4481049  30.6916504
  25.9843025  69.5373459  31.6451111  48.4256973   9.2789850  82.5826950
  48.6596375   9.2657490  81.6546173  49.0940781   8.7400894  83.0058823
  80.5307922  31.6359062  57.8429489  80.0529709  32.4652977  57.8379860
  79.8566971  30.9703102  57.7057915  14.1542234  45.7206612  26.7482586
  13.9599266  45.2616692  27.5654545  14.8204327  45.1807938  26.3228874
  13.5900335  55.4575729  58.7506142  14.3891706  54.9992294  59.0104866
  13.6273279  56.2899361  59.2217941   0.1479686  50.9849701  86.2110214
   0.8294747  51.3679276  86.7634048  -0.4779782  50.6082001  86.8294601
  50.8952026  38.0658302  71.1618423  50.8114014  37.5541191  71.9664307
  51.6018982  37.6379547  70.6783829  67.5253677  26.1317844  32.5115509
  67.0992126  26.9427376  32.7890053  68.1260681  26.4023285  31.8171520
  20.3662701  52.5382843  63.5105515  19.7279358  52.6822777  64.2091446
  20.3027325  51.6029930  63.3171043  14.1752615  43.8768921  60.3380547
  13.4996710  43.7117958  59.6803665  14.1650915  43.0969505  60.8928680
  62.2091026  47.9322548  71.5175400  62.0734901  46.9896049  71.4213486
  61.7768364  48.1534767  72.3424301  70.4765701  54.1383667  78.9398270
  70.4504929  54.4261322  78.0272827  71.0420456  54.7757912  79.3759079
  35.2826462  63.3415184  37.4575615  35.0120354  62.8975601  38.2612419
  36.1386757  63.7151566  37.6669350  59.5929947  37.5249023  57.2715645
  59.0228653  37.5381355  58.0403328  59.3505936  36.7236519  56.8073730
  17.4554386  51.3997421  33.8131104  17.6974926  51.7791595  32.9683151
  16.5706558  51.7259026  33.9774666  82.8588486  50.0977516  61.5724869
  82.0372925  50.5871735  61.6142960  83.4779205  50.7033310  61.1647453
  13.4930220  61.6134262  56.7023926  13.1000032  60.7840080  56.9741173
  14.3745470  61.3774796  56.4134789  41.7594032  18.8056278  70.1636276
  41.8678284  19.1059456  71.0660095  41.4994316  17.8881111  70.2461624
  29.8112812   1.2414353  83.0965881  28.9456406   1.4597570  83.4418945
  30.1627960   0.6032333  83.7173615  85.2568893  56.8327141  78.6964569
  85.6690140  56.1474075  78.1704025  85.0122833  56.3944778  79.5115356
  70.2483597  32.9223824  62.7679939  70.9967651  32.3257523  62.7554283
  69.9689560  32.9368896  63.6833916  24.5073528  58.9355850  20.6659813
  23.9942398  59.5672379  21.1699333  23.8884544  58.5776749  20.0295105
  26.4330330  34.8567047   8.7726889  25.7727833  35.2374916   9.3517418
  26.8390751  34.1647568   9.2947712  38.0046730  49.5038567  78.1753693
  37.6741867  50.2264595  78.7090836  37.8438377  49.7795525  77.2729492
   5.3623223  22.1029625   2.0068967   6.0853138  21.8940086   2.5983808
   5.7223907  22.7601452   1.4113346  84.9914474   2.3033941  71.4057846
  85.2167053   3.2130656  71.6006927  84.3872375   2.0513632  72.1041031
  82.9051895  59.8337059  57.6753159  83.0611343  60.6171570  57.1479454
  82.1625061  60.0645256  58.2333221  47.1804428  40.7648659  51.4267960
  46.5307693  40.5799561  50.7485886  47.6717110  41.5141449  51.0899429
  29.5061588  63.6883469  54.5338173  28.6226215  63.7930107  54.8868637
  29.7725658  62.8117561  54.8110313  48.1921158  51.0484047  74.9320450
  48.8303566  51.5061913  75.4791412  48.4280396  51.2892952  74.0362015
  53.5113029  15.0406771  82.1003418  53.1566124  15.6484947  82.7491760
  52.7759323  14.8590870  81.5151138  73.9257736  56.4354820  19.6870022
  73.7742157  55.6522369  19.1580505  73.6710434  57.1617813  19.1179390
  57.8004951   1.7580746  11.5680199  58.6695480   1.3573321  11.5876331
  57.5821533   1.9017284  12.4888458  80.3845901  55.7819595   3.1425173
  80.8148270  55.7280235   3.9958730  79.9378738  54.9409218   3.0459206
  40.7987022  42.0206337   6.4404321  40.8349380  42.7448120   7.0653200
  41.6830826  41.9731140   6.0773320  74.9967270  59.4849930  61.2130814
  75.6887360  58.8957901  60.9127502  74.2183609  59.2056084  60.7310791
  73.9244995  46.4515305  11.4293966  72.9802094  46.4644928  11.2732286
  74.2730103  45.8827896  10.7428799  14.4268456  42.8735046   8.9954882
  14.3343773  42.5602646   8.0957317  13.5464640  43.1569672   9.2420835
  77.9818802  34.2217941  37.1892891  78.9147949  34.3599968  37.3530045
  77.5939636  35.0937271  37.2633705   3.7472129  55.4584236  77.7969513
   4.0815935  56.2498093  77.3749008   2.8587573  55.3613510  77.4542313
  68.8333588  20.6028366  49.3669815  68.5870132  19.9242668  49.9955406
  68.1866379  20.5257244  48.6655273  51.3558044  18.0686073  39.0203819
  50.6629333  17.7709007  39.6099014  52.1603012  17.9774151  39.5309753
  56.3639145  20.3591709   4.9713297  57.0378304  20.7337341   4.4040804
  55.6748581  20.0763626   4.3701210   4.7083483  54.9744377  37.0417023
   4.7729149  54.0194206  37.0394592   4.9389248  55.2321815  36.1491585
  41.8274002  64.6063919  58.4817657  41.1379890  63.9955864  58.7422562
  42.2064857  64.2176819  57.6934586  72.7447205  45.4954147  15.1115332
  72.7547760  44.9380112  14.3334379  71.9672318  45.2170563  15.5955353
  63.8474998  36.9339981  57.9781914  63.0228539  36.4945297  58.1856804
  63.7307739  37.2520370  57.0829506  39.4681778   3.1998219  48.8574104
  38.9922562   3.6859746  49.5307465  39.6057472   2.3331997  49.2398682
  43.3284378  42.5760117  17.4755516  43.1367188  43.4217339  17.0703030
  44.2504005  42.4169922  17.2732449  26.0639915  30.6382866   2.5098996
  25.7981510  31.4749966   2.8913138  25.4021702  30.4583931   1.8421700
   8.7299662  40.7635345  25.8025131   8.2415876  40.7222404  26.6247120
   8.4396086  41.5780907  25.3921185  35.4984093  51.4094620   7.4305816
  35.7806511  50.5440598   7.7266450  34.9802246  51.7541771   8.1578255
   5.2153087  50.7890282  11.7135849   5.2699871  51.7073212  11.9781189
   4.3268542  50.5237808  11.9513330   9.8907900  66.4155579  74.3042297
  10.0113325  65.8223038  75.0456772  10.7795963  66.6154556  74.0104675
  38.7634315   3.2136066  36.9167862  38.0173454   3.7926371  37.0727005
  39.4578018   3.5617547  37.4761429   6.3177123   6.3687372  58.0972824
   5.6335387   6.1782489  58.7390366   5.9060245   6.9744191  57.4809265
   0.3681531  28.6315804  63.6127167   0.0646510  27.7403793  63.4398689
   0.1055774  29.1285267  62.8379097  69.7855377  42.1746483  16.2979660
  69.6965866  42.9454308  16.8585129  69.9263000  41.4501648  16.9075108
  44.6806221  34.6140137  63.4061661  44.2988625  35.1118736  64.1290970
  45.4059830  35.1572495  63.0979767  76.9317474  63.4713364   4.3530412
  77.1257706  62.7218094   4.9158859  75.9882278  63.6029434   4.4462323
   0.6276375  52.7903633   9.5347414   0.5663951  53.7061615   9.2630835
  -0.1635835  52.3826637   9.1826305  40.5762596  48.8574791  58.1388817
  39.8417549  48.7849236  58.7483635  40.1889229  48.7021561  57.2774429
  46.9087753  39.1980705  29.4519596  47.0838318  38.3505592  29.8610001
  46.0294304  39.4307938  29.7500000  53.7205391  27.2456532  78.0633163
  53.4651031  28.0769844  78.4631500  53.2382812  26.5835190  78.5585327
  76.4212799  61.7142105  52.9106102  76.9533768  62.1574860  53.5713768
  75.5743637  62.1587410  52.9474335  80.5870056  23.9560318  33.1862450
  81.5338821  23.8917065  33.0616570  80.2999802  24.5822906  32.5216789
  49.1123466  54.4298859  70.5877838  48.8912468  55.3609810  70.6079712
  48.3132591  54.0005302  70.2822571  54.3953018  45.0033646  88.1271286
  54.1211739  45.1955299  87.2303772  53.6846962  44.4719620  88.4861298
  61.1199722  47.5580521  52.6667175  61.0602531  47.9485817  53.5385857
  61.0966911  46.6142998  52.8248978   3.3540292  23.7164669  29.3700275
   3.7625029  24.2412930  30.0584602   3.2001805  22.8643093  29.7779350
  51.4395561  14.2670078  47.0416183  51.7933388  15.1528559  47.1212463
  51.0512047  14.2419128  46.1670990  24.4492188  69.3317947  85.6670303
  23.7981377  68.6486740  85.5067978  24.0899048  69.8391495  86.3948517
  53.0909004  15.6322956  20.2378044  52.1808281  15.7848396  19.9833908
  53.2646904  14.7283554  19.9752750  35.0859070  42.4412689  79.9375076
  35.7402115  41.7828674  80.1712265  35.0189133  42.3845406  78.9843445
  82.5707932  20.7106724  48.8777351  82.6200104  19.9596024  48.2863770
  83.2275696  20.5295601  49.5501060  69.9676819  66.9751205  32.9278717
  69.7503586  67.7192154  33.4894066  69.8597260  67.3078690  32.0368881
  29.6737995  32.9611588   9.1962700  29.4541645  32.9737358   8.2646942
  30.3599072  32.2979813   9.2716560   3.1468894  14.3767214  87.6789474
   3.1480772  14.8412094  86.8420029   4.0437608  14.0568581  87.7766266
  42.5590057  66.4836731  62.6020432  43.1145973  67.1950684  62.2835083
  42.8134384  65.7265167  62.0745850  29.1399956  65.7118378  49.5535851
  29.1309395  65.6541824  48.5981674  29.1377411  66.6513214  49.7368774
  68.7685165  42.2770920  74.0674667  69.0473251  41.6297607  74.7151260
  67.8569260  42.4634705  74.2921982  67.8890152  17.2431774  29.7739964
  66.9529190  17.3519192  29.9416962  68.2979660  17.3268452  30.6353874
  47.4219055  24.9045334  63.7479248  48.0833702  24.2359104  63.5700493
  47.8981056  25.5963726  64.2070847  12.0607796  51.0282936  86.1257629
  12.0824556  50.0860901  86.2931366  11.5618534  51.1158600  85.3135834
  58.4221420  10.4904757  35.7230644  57.7550735  10.4538565  35.0375633
  57.9688034  10.1992645  36.5142097  81.3282623  48.6749992  73.9544754
  82.0123978  49.1916313  74.3802414  80.8662262  49.3018265  73.3978348
  14.8068800  40.0361252  10.4472647  14.4002495  40.8267403  10.0925713
  14.6883554  39.3779526   9.7624340  71.4153214   6.7465663  55.5379448
  72.0170670   6.4301968  56.2117729  71.7985382   7.5727725  55.2433968
  41.6724701  37.3674698  13.8944578  41.0863457  37.5135117  14.6369953
  41.5727692  38.1504860  13.3530025  65.9307938  54.2843132  46.2827797
  65.4051437  55.0320320  46.5671120  65.3592682  53.5272217  46.4108315
  47.8877144  43.7470131  63.4160767  47.9076424  42.9729958  62.8532867
  48.7850189  43.8320007  63.7383347  63.6772728  26.3087597  41.3588104
  64.5632019  26.2902260  40.9968491  63.7955551  26.1265564  42.2910347
  16.1732864  18.3423920   4.8622103  16.2098827  17.4023952   4.6852913
  15.8074913  18.4059944   5.7444692  13.3051672  64.1765594  74.8539581
  14.1270227  64.2197113  75.3427505  12.7500219  64.8425522  75.2595444
  39.8079910  33.1072845  80.4434204  39.4125671  33.9724464  80.3367996
  39.4538383  32.5911751  79.7192459  37.8945999   2.7571745  16.4066849
  38.5584335   2.1939988  16.0087032  37.9278641   3.5652647  15.8947134
  51.3619537   0.4852771  17.8172512  51.1141624  -0.4198909  18.0056705
  52.3145943   0.4970329  17.9097958  73.1304550  55.8839569  68.7061462
  72.5937500  56.6506805  68.5053635  73.8748856  55.9494057  68.1080093
  74.6029129  65.5393677  85.5319672  75.4565964  65.2645264  85.1974335
  74.0226440  64.8021317  85.3422089  61.5915146  23.3694115  30.4506607
  61.1370163  23.9074211  29.8024273  62.5145531  23.4251747  30.2034340
  39.9057045  67.9156799   2.6076269  40.6173820  68.5294724   2.7892909
  40.1259613  67.1359482   3.1172674  63.9417725  38.6927719  78.7748108
  64.0121155  39.0223045  79.6707458  63.1507263  39.1061554  78.4289780
  62.6500549  61.8223686  54.4415436  61.7403183  62.0358582  54.6489830
  62.6074829  60.9520607  54.0453377  68.5660095  25.2877140  82.8491287
  68.6132507  24.5115719  82.2909164  68.8767929  26.0020504  82.2929230
  10.5647373  58.3663025  24.9997673   9.8973989  58.3102722  24.3158436
  11.3957176  58.3591576  24.5247383  48.1205902  10.9937639  24.6080284
  47.9401588  11.4156179  23.7679596  47.2596321  10.8880148  25.0127506
  51.0744514  23.4377174   7.9541063  50.8032417  24.2644081   8.3531780
  50.3436852  23.1951694   7.3854365  57.6326447  55.7472878  57.0068550
  56.9633408  55.5481720  56.3521690  57.7903709  54.9133339  57.4494362
  37.9821396  53.3729286  82.9609528  37.6953087  54.1005020  83.5128555
  37.6544800  52.5912476  83.4057541  63.5213432  48.6679764  22.0244904
  64.1877213  48.9638329  22.6446800  63.8510742  48.9434319  21.1691341
  19.1866398  48.6531982   1.7076113  18.9150600  47.9788437   2.3302870
  19.4457588  48.1663933   0.9252359  65.9381027   7.3468561  12.2535706
  66.1131973   8.0849285  11.6697702  65.0762558   7.0283942  11.9851732
   7.7017441  65.9934158  80.4434814   7.5476823  65.5501022  79.6092300
   7.9655199  66.8802872  80.1982956   4.7929358  48.6954193  21.8592510
   4.6463857  48.3011475  22.7190781   5.7397208  48.8292160  21.8153362
  38.1769104  70.0710678  74.6153336  37.3093414  70.0667572  74.2109375
  38.0433922  70.4927826  75.4641876  18.4552460  30.7169266   3.9670186
  18.9798698  31.4299603   4.3311415  17.9128151  31.1357613   3.2987525
   2.5568480  46.3478203  78.2891541   3.0643988  45.6015167  77.9703217
   2.3938315  46.1501389  79.2114258   7.4710817  49.1591301  52.3371124
   8.0340395  49.2980728  53.0986938   8.0334148  49.3481445  51.5859222
  10.8573923  47.5714989  38.2144394  10.5872192  46.6622086  38.0862694
  10.3962727  48.0570526  37.5304489  33.3845367  68.7042236  19.2225056
  32.6923485  69.2497864  19.5959606  34.1411781  68.8564301  19.7886868
  60.8858299  29.4403648  87.2191620  61.1375847  29.7490826  88.0895309
  61.7167625  29.2634239  86.7781677  11.4956760  42.4610443  14.4645319
  11.7746000  42.2384033  15.3527126  12.0455189  41.9197464  13.8980494
  34.0146446  59.2570381  25.2915802  33.1074791  58.9591599  25.3590412
  33.9686813  60.2010193  25.4433060  11.7920008  17.8973427   4.2898955
  12.2734175  17.3231525   4.8855271  12.4654064  18.4505291   3.8939888
   0.4808641   5.4765377  41.5908432  -0.0874235   6.1917191  41.3048401
   0.5801063   4.9246163  40.8151093  31.3235779  48.0788155  30.3066998
  31.0206223  48.2728081  29.4196739  32.2438889  47.8389626  30.1983795
  26.7979507  50.2763176  83.6052475  26.6747875  49.6372757  84.3071671
  25.9122047  50.5666161  83.3875046  21.2588863  25.6119041  63.9345665
  21.5529613  26.1690903  63.2139473  21.8341789  25.8408794  64.6645279
  58.6330872   2.3581362  78.2980118  59.3281441   2.1481955  77.6742706
  57.8531151   2.4776795  77.7561798  45.6830788   5.4918647  36.3611298
  45.9798813   4.8837657  35.6841087  44.7568207   5.2826586  36.4816017
  63.0754433  39.5749512  26.2555161  63.8055496  39.0249062  26.5394688
  63.3451881  39.9079552  25.3996086  12.9220705  26.6956596   7.4196897
  13.8493347  26.6033936   7.6385517  12.9167547  26.9193916   6.4890189
  65.1791992  14.5288715   0.5059267  64.2331772  14.5221148   0.6516306
  65.4712524  13.6622124   0.7884855  45.0812569  57.1372452  87.7046127
  45.0573883  58.0249901  87.3474350  44.2737274  57.0618248  88.2129898
  16.4945431  45.0359917  41.2364235  16.0584412  45.6043625  41.8712463
  17.3863640  45.3791771  41.1806679  49.2278595   4.7561831  21.5382919
  49.5749741   5.0522237  22.3797817  48.3051147   4.5701265  21.7119370
  80.0921631  27.2664948   8.1340723  80.1333313  26.7188873   8.9180765
  80.1583023  26.6482296   7.4063330  77.7041626  13.0875111  73.6146164
  76.8269577  12.8368492  73.9043121  77.5529175  13.7261820  72.9178696
  59.1845398  68.8993149  39.2373657  59.5118904  68.0032959  39.1584396
  58.3467674  68.8898849  38.7744675  10.3794622  53.0984459  84.9384613
   9.7513351  52.8783607  85.6263962  10.2759819  52.4035149  84.2883911
  83.4342422   0.1797456  36.1584778  82.6760635   0.0863565  36.7352600
  84.1524277   0.4199133  36.7439308  62.7620659  47.8191948  77.7335052
  62.5146904  48.6568146  77.3417969  62.2461281  47.7694321  78.5382156
  68.3037796  11.1403532  10.1751242  67.7600327  11.5210447  10.8647928
  69.1521225  10.9925985  10.5931120  60.6934738  70.3811111  83.9611053
  61.2840309  69.6983109  84.2793121  60.7696762  70.3385544  83.0078888
  74.9996033  18.4944515  65.0900116  75.3322601  17.6453247  64.7992249
  74.1680756  18.5971889  64.6271591  84.9158630  21.4917965  63.1866379
  85.5456390  21.7065659  63.8747406  84.3117981  22.2342205  63.1745949
  82.3527832  39.9419518  85.4030457  82.2981262  39.3732224  86.1710281
  83.2801361  40.1705360  85.3398056  69.0705719  56.8983307  62.3641052
  69.0752411  56.4820023  63.2260094  68.2975464  56.5390129  61.9287338
  74.2027130   7.1063533  22.1532784  74.4741516   7.2405138  23.0613270
  74.0291824   7.9876494  21.8224678  63.9202461  19.7338028   4.6822901
  63.6641464  18.8263950   4.5171871  63.3668938  20.0096760   5.4129953
   6.3328156  49.4563255  88.8885651   6.3326569  48.7383575  89.5216064
   6.0672355  49.0488167  88.0641632  29.7304688  18.9177532  12.6262417
  30.1019516  18.4701862  13.3864489  28.8329849  18.5897274  12.5701065
   4.2465997  14.0577660  31.6460896   4.2521143  14.6298914  32.4134712
   5.1556807  14.0500984  31.3465137  72.1751175  14.2730398  88.7700348
  72.1100235  14.1928091  87.8184280  73.0433884  13.9294825  88.9805222
  52.7820244  63.2055511  20.5969849  51.9069557  62.8180237  20.5793438
  53.1128960  63.0905609  19.7061806  26.7270184  27.1484280   6.8537960
  26.8243980  28.0896606   6.9981194  27.5703316  26.7777271   7.1138635
   6.8721132  44.6157799  42.1566696   7.0782809  44.1318626  42.9563866
   7.6848545  45.0705795  41.9356689  25.9932346  12.0127840  16.1015682
  26.0903683  12.4142466  15.2380724  25.2889042  11.3741093  15.9909029
  45.4457169  68.1611557  53.7659035  45.5562248  68.3115692  54.7047310
  46.3328247  68.2091980  53.4095840  55.1895027  48.8465729  16.9541111
  54.2863998  48.9916954  16.6720276  55.3925476  49.6021805  17.5055294
  68.5456848  60.4253540  67.3589249  68.4853363  61.3150444  67.0110168
  69.3718338  60.4126854  67.8421936  20.2155170   5.0529957  70.9215012
  20.4551792   5.4311585  71.7675476  19.8736343   4.1848946  71.1353912
  26.1929150  63.2428398  82.3442993  26.6761799  62.4227028  82.2439880
  25.8517437  63.2120323  83.2380981  81.0890732  35.5005074  76.6456909
  81.0821609  36.4360085  76.4431458  80.4284973  35.3989143  77.3309250
  53.4703064  18.0469398  63.7115135  52.6711082  18.5476856  63.8751221
  53.3851929  17.2718601  64.2667084  39.9365768  24.5046139  74.2834549
  39.3098183  24.4995823  73.5600052  39.4754982  24.0731354  75.0028076
   9.2653999  31.3758125  24.2264328   8.7966776  31.8780403  24.8929901
   9.6448135  32.0388756  23.6496964  23.2703285  44.6187782  67.9791946
  23.0236492  44.1424675  68.7719803  22.9221725  44.0879707  67.2627716
  30.1520939  69.8740997  78.2679520  30.1644497  69.3090515  79.0404739
  31.0733032  70.0760040  78.1041260  17.7993279  18.5544033  10.0734472
  17.6265545  18.5774021  11.0146446  18.3448906  17.7778072   9.9489880
  73.4588928  51.4297791  12.4203739  73.4488754  50.6494293  11.8661346
  73.5791016  52.1563301  11.8088923  48.3396950  15.3999224  76.2118530
  48.2325783  15.1340961  75.2985611  48.5496178  16.3327293  76.1667480
  44.0484314  52.2519875  85.4855347  43.8067245  52.7278404  84.6909409
  44.1645393  52.9339256  86.1471329  80.2300186  24.3390388  84.1819000
  81.1539459  24.4563732  83.9609299  80.2242737  23.6197701  84.8134460
  84.1127701   8.8262930  27.2612934  84.3086700   7.9487467  27.5895748
  84.6956329   9.4025908  27.7556400  81.7720871  38.4320755  13.3696251
  81.8257751  37.6502419  13.9192495  80.8802948  38.7549286  13.4988642
  85.7008209  29.9436131  20.7847862  85.5319901  29.8466892  21.7219810
  85.4174652  29.1127548  20.4031906  62.4414635  38.6414642  37.0339661
  61.5110664  38.4996185  37.2085304  62.6746216  37.9568024  36.4069862
  24.4485035  43.3754768  71.9684982  25.2213936  43.0063210  71.5411835
  24.4876366  43.0411987  72.8645782  64.4535599  30.1275139  82.5901794
  64.7897339  30.2515011  81.7025757  64.4585800  29.1788807  82.7178574
  34.0999832  62.7072105  86.4363937  34.0879097  62.2242889  85.6100311
  33.4848747  63.4281044  86.3015289  52.4060593   3.3191910  40.6870995
  51.7672844   3.5835390  40.0250397  51.8963852   2.8213892  41.3263664
  48.4729996  31.6999130  24.1732826  47.6761322  31.9944668  23.7322903
  48.2757301  30.8058224  24.4524231  46.0407639  58.3670273  37.4497261
  45.7034378  57.7102280  36.8405762  46.9815788  58.1953697  37.4901848
  84.1473923  62.0508156  56.2838135  85.1029510  62.0200653  56.2369995
  83.8541031  61.5808907  55.5031853   3.4497585  12.4019909  89.4332733
   2.8988218  13.0468311  88.9895630   2.9759998  11.5757885  89.3375015
  67.4127884  27.4364815  25.7278976  68.2306595  27.7081470  26.1444492
  67.6493073  27.2831039  24.8131504  78.5369034  11.4134760  11.0868616
  78.3625183  12.2927856  11.4224787  78.3800888  10.8363810  11.8342600
  31.3532925  45.6750488  81.2458267  30.4198170  45.8806953  81.2964935
  31.7911415  46.5171471  81.3698807  70.9925232  53.1762009  29.2330418
  70.3269958  53.0245552  28.5619850  70.6490631  53.9043770  29.7507553
  85.3898773  39.3851967  70.7513046  84.5416946  39.6758690  71.0864487
  85.4265823  38.4535942  70.9681091  24.4490700   7.6719379  19.3416290
  23.7917500   7.1918740  19.8453159  24.9410000   8.1649132  19.9982967
  81.3337479  69.7035675   6.2716432  81.1441650  68.7919617   6.4936013
  80.8412399  70.2139816   6.9144111  63.4808617  32.3177414  37.9401093
  63.4575729  33.2616234  38.0975189  62.5605392  32.0552788  37.9213066
  66.4735336  40.1245766  51.5810738  65.8953094  40.8828506  51.6641884
  65.9574356  39.3918343  51.9171715  71.8771896  61.6072578  80.6283417
  71.0850220  61.9971085  80.9980927  71.9153442  61.9452934  79.7336273
   3.4765530   0.9880009  51.0320015   3.4978702   0.2515046  50.4209747
   3.7306185   0.6086660  51.8733025   4.3797016  21.8747406  10.6375580
   5.3210750  22.0465889  10.6148233   4.1818752  21.7470760  11.5653505
   9.0603228  12.2976980  24.7068615   8.2290821  11.8307409  24.7918510
   9.2559214  12.2700109  23.7702694   1.0783895  18.5589008  69.3637314
   1.7019274  19.2851429  69.3655624   0.8681254  18.4214172  70.2873764
   0.9789644  38.2615929  33.7258034   1.6200409  37.7217140  34.1881714
   1.4006220  39.1170311  33.6441727  79.6264267  22.0292416  11.6224461
  79.3793793  22.8383732  12.0702248  78.9296036  21.4111290  11.8429289
  84.8962097  10.6832924  47.0504112  84.7173309   9.7842550  47.3260307
  85.8510056  10.7507019  47.0581703  72.9132538  46.2403831  89.0310516
  73.4228516  45.6148338  88.5160446  72.0730438  45.8046913  89.1740417
  62.2448158   9.4863138  64.2025299  62.7714195   9.9953232  64.8188400
  62.2798462   9.9867334  63.3873100  46.1441040   9.5495615   3.9104860
  45.2723389   9.2301970   3.6775372  46.2355995   9.3397322   4.8399115
   9.2974415  59.0408325  64.6808319   8.5679836  59.6562157  64.6071777
   9.9980621  59.5478745  65.0910416  64.0099792   3.9433384  55.3941307
  64.2692261   3.0266051  55.3012810  64.8066559   4.3896599  55.6810760
  20.6876240  31.9186211  84.1151733  21.2228928  32.0698395  84.8941879
  20.8292122  30.9961128  83.9026642  42.7237892  16.6135368  83.4899826
  43.4681015  17.1888981  83.6666031  41.9589195  17.1857948  83.5510483
  80.7646103  65.1482086  55.7480965  80.4691772  64.4671249  55.1438828
  81.3995743  65.6568222  55.2437439  76.1523972  26.7769566   1.1530629
  76.7451859  26.9561119   0.4231787  75.5371094  27.5101871   1.1474297
   1.1456336  46.1487503  46.7926369   0.5243847  45.4251289  46.8742180
   0.6844044  46.9029312  47.1596642  55.1785545   3.1035521  59.4845619
  54.7435150   2.8236127  60.2899246  54.7781487   3.9478607  59.2770805
  82.7427673  55.7463570  43.2015648  82.9051971  56.0676308  42.3146439
  82.0580368  56.3215103  43.5429916   4.6118679  22.7164745   5.5136261
   4.2748003  22.8772640   6.3949680   5.5362887  22.5059929   5.6454415
  49.5878830  64.0747528  73.0810471  49.7994270  64.6523132  72.3476257
  48.6473083  64.1918793  73.2145767  31.2736225  56.3135452  59.9714203
  31.7685890  56.9936409  60.4282646  31.0690956  55.6697426  60.6495934
  41.7371750  70.7488785  18.3021107  42.1047058  71.5489731  17.9266033
  41.3014374  71.0386658  19.1036015   6.1674852  28.3613605  14.4426012
   5.8514886  29.2409115  14.2357960   5.8614545  28.2006302  15.3352060
  51.8067398  14.2835989  22.7473602  51.9442253  14.9208612  22.0464859
  52.5059967  14.4639769  23.3756428  13.5359402  49.8652840   6.3079300
  13.0666437  49.1097603   5.9541311  13.5028067  49.7448997   7.2569518
  54.7710152  34.6686440  59.5544052  54.2260780  33.9820404  59.9389191
  55.2045441  35.0778618  60.3032875  51.7989349  12.7050886   9.1286650
  50.8579597  12.5599098   9.0300665  52.0287399  12.2460594   9.9365711
   9.0119781  55.8062019  67.4963684   9.2132616  56.2636871  66.6800232
   9.8429403  55.4115677  67.7609406  52.5914307  38.5924377  23.7150707
  52.2013664  38.4475784  24.5771008  52.5712128  39.5424347  23.5996132
  62.0670280  29.8775730  46.5117760  61.6313972  29.0365810  46.3732414
  61.4541359  30.5250454  46.1633911  86.6613617  62.2002029  33.4912567
  85.7187424  62.1903954  33.3251266  86.8061829  61.4697685  34.0926895
  79.3530045  51.0450287  60.5535660  79.9590378  50.3512154  60.2936134
  78.5058975  50.6062393  60.6317444  43.2255745   9.2305622  79.8902588
  42.6474533   8.4679184  79.8706360  44.0719147   8.8823919  80.1708145
   4.5113277  55.3910408   3.0586517   4.0929899  55.9757347   2.4267051
   3.9323196  55.4082756   3.8206782  26.8734798  10.3391438  72.5400772
  27.4902973  10.0813503  73.2251434  26.3239079   9.5663948  72.4094543
  56.3184624  63.3143616  59.0838776  56.7839127  62.5322647  59.3803864
  56.7465096  64.0365677  59.5436935  64.5389938   1.6093649  76.9849091
  63.6876144   1.9408751  76.6994400  64.7827606   2.1748738  77.7177124
  18.8120098  26.3685474  32.7713165  18.8594532  26.9869175  32.0422058
  17.9341908  25.9919662  32.7092514  10.9976482   3.5553880  86.7376862
  11.5579815   3.6862626  85.9727478  10.4656382   2.7908967  86.5168915
  66.7492676  36.3900032   6.5166221  67.3817444  37.0592499   6.7779980
  66.4985657  35.9641876   7.3364172   6.9671693  64.1262512  58.2705460
   7.2237139  63.7078514  59.0923462   6.0926666  64.4754715  58.4423637
  52.3993187  32.5712128  37.4713402  52.6520157  32.0978966  38.2640228
  53.1201782  33.1817322  37.3168640  81.2974319  48.4946404  23.2607517
  82.2484436  48.6000175  23.2874985  81.0581818  48.2512283  24.1550331
   0.7238623  10.1299133  47.1279755   1.4413531   9.6917295  47.5856171
   0.9159123   9.9979582  46.1995697   4.5490122  49.4721603  44.3553619
   3.7351563  49.5513458  44.8529549   4.8858576  50.3666153  44.3032188
  38.9889793  38.4967918  22.0852318  38.3546371  39.1030350  21.7027283
  39.6085129  39.0597572  22.5494328  30.7103024  50.1854477  40.7150154
  31.6119881  49.8834877  40.6054077  30.5073433  50.6361732  39.8953323
   2.8865480  68.8220596  27.1865253   2.7809064  69.7199020  26.8719749
   3.8046141  68.6139679  27.0130749   5.0865965  21.1449451  69.7159042
   4.3985653  20.9306469  70.3459167   4.9387169  22.0666103  69.5040131
   9.1789036   7.0807452  10.1902475   8.3333645   7.4747877   9.9757080
   9.7611561   7.8267221  10.3342304  72.3235168   2.6867006  71.1636887
  73.2205505   2.4948771  70.8902512  72.2750702   3.6426322  71.1725769
  58.9301529   8.7259407  24.8839207  58.5634956   7.8866596  25.1621323
  59.7703285   8.7829065  25.3389969  14.6613750  19.1216030   7.0797291
  14.7539024  19.4967709   7.9554682  13.7988625  19.4130878   6.7841954
  36.9258232  53.8420029  29.0826340  36.0970039  53.4963608  29.4140320
  37.5326004  53.1038017  29.1384449  76.7814789  16.5812054   9.5534849
  77.0364532  17.5029297   9.5940208  76.1766434  16.4675503  10.2866230
  24.1722679  21.0641327  75.1681900  24.4390316  21.7780437  74.5890503
  23.6513920  20.4857121  74.6110992  64.5834732  32.2873955  34.2191277
  63.6403236  32.1811714  34.0949516  64.6937180  32.3584061  35.1673012
  78.3914871   3.7616076   7.8549976  78.2524338   4.6934757   8.0238733
  79.2504044   3.7199395   7.4345841  73.6660080  38.4724426  50.4764824
  74.3761673  38.5936737  51.1067314  72.9315643  38.1543198  51.0014763
  70.3657532  19.9419441   2.8046341  70.9874954  19.7825527   3.5147479
  69.9178314  20.7498798   3.0553100  81.9002914  61.2636223  45.3601723
  81.4369354  60.4271240  45.3176880  82.6045151  61.1155510  45.9913406
  76.5133286   2.8203938  81.0932465  76.4831696   2.9421115  80.1442947
  76.2218704   3.6587493  81.4516373  67.7866745  42.6708374  66.2730865
  67.3427124  43.4146538  65.8658066  67.9400024  42.0596199  65.5525742
  85.3936310  60.5505066  49.5641365  86.2573624  60.9595337  49.5102959
  84.8090439  61.1662750  49.1221848  63.9231758  17.5834370  18.4913960
  63.8600845  16.6603603  18.2460766  63.6214638  18.0582428  17.7169533
  81.4553299   3.7152379  76.7521210  81.0465698   4.0513482  75.9545135
  80.7894745   3.1488655  77.1421204   7.0648766  14.5008383  32.3085976
   7.7555246  14.0463753  32.7909889   7.3424892  15.4168444  32.2988510
  41.4582138  69.3506393  43.1535110  41.6150322  70.2682190  42.9305763
  42.3267670  68.9486313  43.1382217  85.3865433  65.9614334  87.6575699
  85.7930222  65.1973343  88.0664215  86.1185303  66.5466614  87.4628067
  44.2082176  17.7792606  20.1994972  43.3334999  18.0195618  19.8939495
  44.4218330  16.9834366  19.7124004  43.7656784  70.0429688  35.0600395
  44.0781593  70.3758240  35.9013481  44.2479858  70.5507278  34.4075089
  82.6048508  53.8105202  45.4571762  81.7306442  53.4219055  45.4260101
  82.5925522  54.4827614  44.7758713  18.2724781  64.5776825  15.0832415
  18.5524788  65.3943024  15.4967117  18.9787769  64.3633423  14.4737883
  74.0252838  36.1382942  88.2441788  74.9522705  35.9147682  88.1607437
  73.8877182  36.8335953  87.6008606  54.1189575  15.2876225  75.8174973
  53.2046623  15.5388412  75.9485855  54.3718071  14.8665371  76.6390686
   6.3067517  32.3198624  18.8097591   6.1942167  33.1863594  19.2005882
   6.9007359  31.8635941  19.4057732  52.5940781  66.8336258  46.9531593
  53.5194283  66.9892044  47.1422501  52.1602859  66.9069366  47.8032646
  27.0452023  63.3520241  69.8334579  27.1771317  64.0201950  70.5060425
  26.1783447  62.9917564  70.0205383  72.8261795  16.0334778  83.3170471
  72.1047897  15.7471685  83.8772659  73.0545578  16.9028149  83.6461792
  11.3712807  13.7141829  19.4930439  11.1421709  12.8488369  19.8320389
  10.5656404  14.0330515  19.0862274  28.0684471  43.2483902  86.8983536
  27.9064426  43.7343063  87.7069778  28.7975445  43.7096329  86.4837418
  84.9769516  26.0883141  13.9516420  85.0248718  25.2080498  14.3245640
  85.6094894  26.5977821  14.4581661  78.9390564   6.3093061  44.2807426
  79.2873611   7.1860037  44.4429703  77.9901199   6.4306831  44.2489967
  24.6530819  62.9645805  75.7638550  24.1434364  63.1671181  76.5483704
  25.5637074  62.9841042  76.0581512  13.6171398   7.6935663  83.1010132
  13.9221363   7.8024879  84.0017624  13.2310162   8.5397444  82.8749084
   2.1013279  36.6174431  51.9114532   2.2835772  37.1735687  51.1539955
   2.7106333  36.9216614  52.5840836  85.8658371  60.3649750  39.7571716
  85.4989090  61.2352638  39.9127121  86.0947189  60.0422707  40.6287842
   9.8844490  34.2962723  36.7528801   9.7320604  34.2029533  35.8125076
   9.3960743  33.5737877  37.1475143  48.9427872  56.5320702  47.0003510
  48.6786118  56.3429756  46.0999680  48.9514198  55.6777039  47.4318733
  70.6786499  57.3221855  13.8117170  70.8040695  56.6974945  14.5260439
  70.0553665  56.8934402  13.2252588  14.1666946  33.9608345  10.1792469
  13.4562540  33.8425102   9.5487661  14.6145105  33.1150360  10.1969995
  16.6033306  53.2169037  48.6411858  17.4089298  53.2340889  48.1245193
  15.9028864  53.3134155  47.9959755   0.5070366  45.0306129  35.7742462
   0.8368873  45.8071098  36.2264481   1.0650990  44.3175468  36.0846291
  53.8540306  50.3683243  87.4365540  53.0007133  50.1686401  87.8215332
  54.3829498  49.5894890  87.6094360   4.6950221  64.1917953  60.6174774
   4.2637267  64.4220200  61.4404030   5.4163394  63.6186943  60.8772583
  76.6097260  11.5964241  70.2897034  75.8983459  11.6922712  70.9229355
  77.3975906  11.8394260  70.7759628  22.9052982  46.7151833  31.5151272
  22.4111500  46.2419624  30.8457184  23.8030224  46.3969879  31.4198627
  80.6772385  31.0866261  86.8038025  80.1920776  30.5556068  87.4353638
  81.1580200  30.4500008  86.2748489  50.3902168  30.9063663  12.1472559
  49.6284370  31.0601559  12.7060709  50.6199226  31.7728786  11.8116589
  39.3980293  47.1220589  78.4643860  38.7599182  47.8038826  78.2542419
  40.2003326  47.4005928  78.0228424  40.1324043  70.6155396  81.6666336
  39.4402199  71.2764359  81.6847534  40.7663841  70.9500275  81.0322723
  49.8473930  44.0214043   0.2770275  50.6218185  43.5221443   0.5363355
  49.7708054  43.8723259  -0.6653857  11.6472282  71.2249985  45.2607918
  10.8908463  71.8095551  45.2116661  12.3893213  71.8068314  45.4250946
  74.1334610  40.4970245   8.3160315  74.9496155  40.0877686   8.0285816
  74.1841888  40.4870567   9.2718334   8.3528786   9.6543560  55.9369850
   9.3035526   9.5701227  56.0101624   8.1267233   9.1466455  55.1576805
  73.6466141  61.5994453  51.5757751  73.6468582  62.4563942  52.0022430
  73.3377762  60.9957848  52.2513809  11.0010109  17.4937477  72.3580017
  11.2411070  17.9461498  73.1666565  11.8071737  17.0605755  72.0774765
   1.6652174  16.0621605  89.4868088   2.0215065  15.4728088  88.8220139
   1.8605340  16.9397640  89.1583405  22.4711285   8.4958801  74.9876480
  22.9257011   7.8615918  75.5419693  21.8269119   8.9022675  75.5673599
  71.8698807  39.1432343  78.1057587  72.5291443  39.2752151  78.7870712
  71.3976364  39.9748421  78.0651245  42.7320442   6.6779594  25.3520374
  43.0192642   6.8377886  26.2510319  42.0980263   7.3731294  25.1759872
   2.8873205  12.3264275  80.4797211   1.9629315  12.1687927  80.6717911
   3.1833866  11.5230951  80.0516663  17.1867962  62.8278275  37.7769432
  16.6222534  62.0631828  37.6636391  17.3602638  63.1316071  36.8859558
  18.9244041  47.0264473  26.5229073  18.4813194  46.2050705  26.3101959
  19.8133411  46.7640991  26.7620659  38.0095825  53.5274429  73.6428909
  37.5583344  52.9422264  73.0345154  38.7986679  53.7984772  73.1737289
  56.6096497   1.1343675  40.1444244  57.4519882   1.3251288  39.7317314
  56.5758858   1.7192537  40.9013901  13.0055323  71.2697144  84.8595963
  13.0883551  72.2154922  84.7376099  13.7820139  70.9045944  84.4353409
  23.8984795  20.7873802  17.9390678  24.3819675  20.7971516  17.1130085
  22.9803638  20.8665390  17.6801701  31.9330502  61.0281792  61.6680412
  31.5459213  61.4289513  60.8897438  31.5731831  61.5295029  62.3997574
  74.6704941  55.7184677  49.6717834  75.1663132  56.3233147  49.1199188
  74.0205765  55.3349304  49.0829315  72.6269302  20.1964436  28.7037449
  73.1379471  19.4648304  29.0499191  72.9602509  20.9631710  29.1698551
  72.6720352  13.8549871  73.2932129  73.2778015  14.2799482  73.9004135
  71.8982162  13.6621408  73.8226013   9.1560955  37.9383698  25.6106682
   8.8706541  38.8391876  25.4580784   9.8097067  38.0088272  26.3064117
  83.5552750  13.3649378  85.2791290  83.4533615  14.3148232  85.2194366
  83.2349854  13.1441746  86.1537170  80.4169159  21.5674648  68.9334946
  80.0640564  22.2069187  69.5522232  79.8954010  20.7784729  69.0809631
   1.3897042  30.7808514  43.9520187   1.7371650  31.6181164  43.6446266
   0.7947174  31.0154171  44.6641998  80.6684647  25.6061420  10.2908077
  81.0748291  25.8528309  11.1216173  81.3573761  25.1412449   9.8159389
  67.5415955   2.8032048  78.1084671  67.0650177   1.9837728  78.2412720
  67.2064590   3.3880417  78.7880859  84.0652695   7.8110237  67.7670288
  83.2278442   7.5352993  67.3943024  84.1427155   7.3098593  68.5788574
  40.4751015  34.2882843   3.2347891  39.6062508  34.3227692   3.6349711
  40.4623795  33.4926033   2.7028468  17.2155590  29.3776512  21.6536217
  17.2907887  29.5504646  22.5920830  18.1090393  29.1775475  21.3745518
   5.2812338  70.9238815  44.8198395   4.7986374  71.7256546  45.0210762
   5.7430973  71.1204987  44.0048218  73.0580139   3.7909634  55.5442772
  73.8538818   3.2738945  55.6686783  73.1458282   4.5178456  56.1608543
  68.0376816  59.8260574  13.6388474  68.6905594  59.1771965  13.9014511
  67.6357880  60.1076202  14.4606981  34.9600563  25.1867123  83.9753418
  35.0297661  25.7112312  83.1776886  35.8207893  25.2617569  84.3873367
  68.0604401  61.7298126   9.9121590  67.1306152  61.9060135   9.7686062
  68.1022949  60.7889671  10.0832901  12.6950817   4.5857034   7.4141097
  13.3571434   4.6505461   8.1023693  13.0785103   3.9925520   6.7680554
  81.4353790  65.5008011  21.5912819  81.2524185  65.4359436  20.6539707
  82.2895432  65.0821991  21.6981106   8.3894434  62.5611877  28.6218109
   7.6476336  62.0054207  28.8607140   8.2199821  63.3913383  29.0671864
  69.4964066  45.4375648  24.0833874  68.9322281  45.2133675  24.8234329
  69.0606003  45.0505409  23.3241024  55.9838257  32.7918854  48.3524055
  56.9123688  32.6283951  48.1871529  55.7870636  32.2822266  49.1383858
  35.6601028  65.1610489  87.9695969  35.6683960  64.2537079  87.6648026
  35.0758018  65.6128922  87.3607788   1.2367678  63.8598099  27.3567810
   1.4438852  64.3063583  26.5358486   0.8346939  64.5357971  27.9023132
  13.0872126  58.6095848  23.6965618  13.8066225  59.1696587  23.9881039
  12.7904530  59.0074615  22.8781147  46.0351448  54.9191628  10.1612253
  46.8339195  54.6222572  10.5971537  46.1227112  54.6054077   9.2611589
  48.5205956  63.8851852  52.8114395  48.0160751  63.2698288  53.3434410
  48.8937569  63.3477631  52.1127548  86.6570358  40.6380196  22.3248062
  86.7753830  39.7675514  22.7049484  86.7332077  40.4994736  21.3807526
  34.8406448  49.2390022  15.1548977  34.2197456  49.0960884  15.8692446
  35.5928421  49.6592369  15.5718317  48.8926239  67.8289108  18.9027157
  47.9851189  68.1102753  19.0189266  48.8262329  66.9827423  18.4601936
  28.9440823  26.8706856  10.6065016  29.5303917  26.3618946  10.0464964
  28.1253891  26.9209290  10.1130953  35.1942215  50.1852760  34.6530037
  35.0599861  49.6885643  35.4601517  34.7529869  49.6694298  33.9781380
  66.9774323  71.4090958  11.9116907  67.0339508  72.2997055  11.5654879
  67.8649902  71.0614471  11.8244820  71.0639725  42.6203575  10.9084063
  71.4557571  43.0513878  10.1488380  71.2225647  41.6876869  10.7627773
  11.5975180  10.2997866  21.7682953  11.5740662  11.1904497  22.1181545
  10.7026882   9.9770126  21.8747272   7.7288527  50.2681122  82.5682373
   7.9041882  50.0823097  83.4907150   7.6393476  51.2202911  82.5285110
   1.6859473  27.1059132  75.5907364   1.1586738  26.9357662  74.8101807
   2.0394552  27.9848785  75.4540558  27.5784626  30.8578568  25.0418797
  28.2893047  30.2173176  25.0164528  27.9927769  31.6852798  24.7970390
  86.0953369  47.5113945  29.0672703  85.5304565  48.2837639  29.0432339
  85.7000656  46.9059563  28.4400272  72.7672729  54.4633408  48.2770729
  72.2346878  54.1044350  47.5673027  72.3793411  54.1018219  49.0739708
  64.2490997  26.6482258  27.2198353  63.7272186  26.9646378  27.9572315
  63.6065636  26.4545097  26.5373039  81.9427567   7.1946459  60.0590057
  82.0394669   6.9714718  60.9847870  82.8317337   7.3966184  59.7671852
  67.6788254  23.9530964  39.4464874  66.9033356  23.4108944  39.5909271
  67.3837128  24.6382465  38.8467293  78.7839890  28.4463882  59.8887482
  78.4792786  27.5389996  59.8941154  78.3096161  28.8540649  59.1641808
  72.1616135   7.8005137  63.1908493  72.4607086   7.6274920  64.0835037
  71.4400024   8.4205551  63.2959862  22.8025398  20.5775185   4.3701067
  22.4940529  19.9522820   5.0259624  23.6509228  20.2330227   4.0911775
  81.4004288  37.1368217  61.4649963  81.9442978  36.6768456  62.1044159
  80.9311066  37.7942505  61.9785728  16.9583740   9.6248474   2.5906019
  16.9631271  10.3358297   3.2314718  17.8639641   9.3155174   2.5693228
  55.4501762  59.1011276  21.7979488  56.1233864  58.4603615  22.0269356
  54.6331482  58.6024590  21.8033524  50.8596725  60.2270622  28.7737255
  49.9998665  59.8148727  28.6896667  51.0793304  60.5063324  27.8849106
  20.0702877   9.5336943  52.6346207  20.9571896   9.8102808  52.8651314
  19.7240753  10.2540083  52.1078224  64.0612717  60.8535385  64.1106567
  63.9206963  60.1164932  64.7049942  65.0112000  60.9701042  64.0941467
  60.9554977  47.9401550  73.8176117  61.3224106  47.2815819  74.4074326
  60.0787773  47.6156464  73.6119766  70.9785995  44.4016418  28.1917896
  70.7654419  43.5202103  27.8854046  71.1081924  44.9089355  27.3904858
  46.9131126  52.9914398  69.5945129  45.9893303  53.0384407  69.3482437
  47.1056786  52.0542793  69.6242523   6.7260876  52.1276360   0.3881707
   5.9874611  52.4114456   0.9267938   6.5860243  51.1887627   0.2651637
   8.2274036  20.6453438  12.8692112   8.7263880  20.4310951  12.0809574
   7.7066579  21.4097157  12.6226540  27.7966785   0.1003973  62.8180656
  27.3826885   0.7875171  62.2958488  27.2037830  -0.6473382  62.7432480
   7.9307837  49.5431557  10.7136965   8.7384281  49.2345238  10.3029814
   8.2205868  50.1949768  11.3519564  17.7976036  58.9793663  56.1220741
  17.7446423  59.0826607  55.1719398  18.7019463  58.7105522  56.2837372
  74.6016464  59.8815155  10.5728092  73.6576843  59.7441254  10.6520891
  74.6884232  60.5790672   9.9231005  33.9002724  61.9620819  35.5475235
  33.8876762  61.1177444  35.9982681  34.2063866  62.5822906  36.2092361
  73.5819702  34.2466736  81.3813324  73.1250381  35.0603104  81.5944901
  74.4367676  34.3344688  81.8030548  66.3667755  43.5765610  82.5175400
  67.1010666  43.1796074  82.0490494  66.3532944  43.1300392  83.3641052
  36.9460945   3.2820525  79.6296310  37.5481033   3.7699561  80.1915588
  36.3190346   3.9376118  79.3242340  74.6484299  22.0390568  70.5474777
  73.7230301  21.9236507  70.7632217  74.6619034  22.1378880  69.5954895
  24.2842350  68.3656616  50.3479424  24.0544415  67.7162399  49.6833496
  24.1615276  69.2087021  49.9115334  29.0770016  62.2028198  17.6163025
  28.6505833  62.6203575  18.3646755  28.5745583  61.4011650  17.4709339
  46.5599022   3.7119720  43.2795296  47.1041679   3.2691317  43.9306030
  45.8182640   4.0530772  43.7793808  62.0335960   5.7799253  61.0737495
  61.4011841   5.5486259  60.3934631  62.6710815   5.0660081  61.0608673
  49.0625954  23.3084221  15.4039192  48.2485428  23.2072716  14.9106426
  49.6596870  22.6697598  15.0142746  83.1550446  23.6950798  26.9624405
  83.2211914  23.1942902  26.1493816  82.9992142  23.0352516  27.6381435
  19.6264114  41.1375427  20.6345940  20.1675930  41.5998535  19.9945755
  18.8465691  40.8764458  20.1447906   4.3080773  54.6714973  31.9932842
   4.7338424  54.2128143  31.2690163   3.7722085  55.3422585  31.5700169
  58.8368874  42.6957664  47.0035744  58.8183327  43.6394501  46.8443718
  58.2698593  42.3273811  46.3260803  82.5558014  43.3236656  19.7603111
  81.9200287  43.9285774  20.1425552  82.6672516  42.6426392  20.4236469
   5.5092974  40.0190163  17.0238495   5.0715156  40.4579506  16.2945232
   5.1389599  40.4274673  17.8063126  76.7435989  16.3776321  31.7606468
  76.2646484  16.0423508  31.0027390  76.8591080  17.3100510  31.5776634
  58.2867317  37.0686340  69.9661484  59.1924210  37.3782387  69.9559555
  58.0462303  37.0012550  69.0421066  76.6091995   0.9959606  43.8150902
  76.4236374   1.0452214  42.8773422  75.7780762   0.7325946  44.2101936
  41.0227051  40.1470871  50.2057724  41.9526482  40.3723831  50.1796875
  40.7039185  40.3433380  49.3248138  33.7425041  51.2856674   9.7861204
  32.8151398  51.0957451   9.9281111  34.0677299  51.5484962  10.6471558
  33.7189102   0.6496567  31.1482754  33.9915047  -0.1192966  31.6489105
  32.7624817   0.6303818  31.1815052  57.3032417  57.5697899  34.6801605
  57.8027420  58.3783875  34.5665741  57.9465752  56.9323921  34.9901237
  48.0721550  68.1132355  53.1809654  48.8880577  67.6131058  53.1610069
  48.1038666  68.5902786  54.0102196  20.1876621  63.8788567  21.7934551
  19.7258530  63.9146271  20.9557896  21.1089592  64.0013504  21.5644608
  76.5838470  12.4712410  14.1717262  76.8113785  11.7570095  13.5764666
  76.0885849  12.0493183  14.8738117  63.6499863  16.7349758  32.8729134
  62.9570885  17.2806911  33.2448235  64.0371552  16.2919159  33.6279144
   8.4979162  68.5562973  79.3023682   8.5661707  68.9154663  80.1870041
   9.3594809  68.7095795  78.9144974  66.8115692   8.0281267  50.8888664
  67.0935287   8.7862158  50.3769760  67.4228897   7.3332996  50.6444511
  57.8542595  40.8256187  58.2577133  57.8158798  40.5042686  59.1585388
  57.1322327  41.4509544  58.1955261  60.6027641  71.1377335   2.3326468
  61.1687927  70.7416534   1.6701001  60.6273346  72.0749054   2.1394143
  12.2116909  69.9584885  60.5647545  12.4670076  69.0553436  60.3766785
  12.8866434  70.2784958  61.1633072  84.2721481  53.4720917  85.4853897
  83.6908798  53.9030190  84.8587646  84.9106140  53.0106277  84.9416656
  47.7996712  52.5127563   7.2367725  47.8060074  52.1802826   6.3391914
  47.2894974  51.8682976   7.7273083  14.6563272  44.0494118  87.0810928
  15.2097244  44.4927940  86.4381332  13.8386278  43.8763885  86.6145477
  49.6922722  32.6619873   6.9568515  48.9184494  32.1117210   7.0778289
  49.5628624  33.0726624   6.1019654  60.8455391  69.0669708  15.9265213
  61.7111015  68.7878723  16.2250805  60.3351631  68.2583847  15.8824129
  62.8960800   4.0727925  50.0658836  62.8360596   3.7528486  49.1657372
  63.5235443   4.7943311  50.0222778  73.7764816  25.2569008   2.0297413
  73.5768051  25.5262012   2.9263134  74.4711761  25.8529015   1.7497278
  49.3608742  14.6684952  78.9085770  49.4022751  14.4278412  77.9830475
  48.5106010  15.0969934  79.0068283  39.3512878   6.9794765   6.5244851
  38.9897728   7.7921453   6.1707749  40.2199287   7.2230363   6.8444343
  49.6998062  68.5677872  55.7791824  50.4538422  69.0586395  55.4525108
  49.1014481  69.2386932  56.1079445  53.8599854  61.0957375  15.1280298
  53.3866348  60.6197739  14.4456587  54.7457466  60.7338257  15.1020098
  81.2678604  54.2143402  56.2428970  81.7575989  54.7071037  56.9013596
  81.3201599  53.3047791  56.5364952  20.3719292  34.5824738  19.7335815
  20.2575855  33.8248138  19.1598988  20.1173058  34.2669487  20.6006718
  56.4111519  30.9764175  81.5474548  56.7141533  30.0740566  81.6482925
  56.1837883  31.2533283  82.4350662  52.8656807  25.2224598   4.3207421
  53.7351837  24.8707275   4.1297336  52.9274864  25.5373173   5.2225604
  13.1744423  62.3379402   7.9048891  13.4816618  63.1294556   7.4629040
  13.9708385  61.8360558   8.0783796  60.2198677  23.1545219  19.0446892
  59.7740860  23.7530975  19.6440392  60.6315536  22.5061226  19.6159382
  76.4672546  71.0308685  17.1885185  75.5185089  71.1577759  17.1850758
  76.5932922  70.1565857  16.8197727   0.9469483  10.9702101  40.7528877
   0.0342909  11.2396984  40.8561592   1.0212159  10.1710968  41.2745514
  61.1341248  55.1396408  19.4115314  60.6975212  55.9284744  19.7330112
  61.5100899  54.7378922  20.1947803  24.5584774  53.3749161  23.4681530
  25.2963238  52.7664261  23.4286823  23.9016342  52.9209595  23.9960842
   6.6580706  34.1284637  10.6128225   6.4448962  34.6448097  11.3901072
   5.8408823  34.0957832  10.1154613  48.2755432  67.6736221   0.6923520
  48.8949089  67.6963120  -0.0371027  48.3234482  66.7752914   1.0193713
  84.8301086  30.8847160  17.6390724  84.8186264  30.4354229  18.4841976
  83.9741364  30.6946449  17.2551212  16.0756779  71.7634583  25.6929474
  16.7745056  71.5984039  26.3258991  15.6856985  70.9033203  25.5370102
  70.5383301  28.6430950  88.7257309  69.8875351  28.2192726  88.1662064
  71.3804779  28.3905258  88.3472748   9.2215376  34.6348572  45.1889191
   8.9450474  33.9708061  45.8204422   9.2814703  35.4416618  45.7004929
  81.7384491  39.2175789  30.2375488  80.8521881  39.5374565  30.4062042
  82.0869370  39.8151970  29.5760040  49.2292671  51.9238129  14.6613235
  49.3749352  52.4065399  15.4749508  48.3375473  52.1554985  14.4017353
  55.4113998   1.4944530   4.4377837  55.8668365   1.1050774   5.1842389
  54.6884384   0.8933619   4.2582049  77.0023346  29.8886356  68.7172852
  76.2272491  30.1900253  68.2433243  76.8467178  30.1534538  69.6238708
   5.8458996   1.4045660  24.3031826   6.7331705   1.1279417  24.5322266
   5.4450245   0.6265770  23.9155445  86.4362793  61.9823914  27.1904907
  86.3340454  61.8985748  28.1385174  87.1204605  62.6427650  27.0808258
  73.0383148  10.8786125  48.8251877  72.9262085  11.8096523  48.6332741
  73.0080338  10.8256283  49.7804413  86.1019592  39.7926445   4.3930688
  85.2265320  40.1219482   4.5965800  85.9528656  38.9106140   4.0524406
   1.5142083  12.5712070  31.7355003   2.0374265  13.1570063  32.2825966
   1.1072328  11.9651423  32.3546028  45.1115074  65.6328888  28.8351307
  46.0258026  65.5393753  29.1026230  45.1559448  66.0268784  27.9639091
  75.4916687  66.6658173   4.3614440  75.1902466  65.8148804   4.6796837
  74.8250275  66.9350510   3.7295167  28.3239002  60.1964149  27.1216564
  28.3046856  60.2158051  28.0784664  28.3057156  59.2652779  26.9005527
  40.3866997  61.6930695  66.8376312  40.5162697  62.0893021  65.9759750
  40.6928864  60.7919464  66.7353516  56.6120071  21.5086441   0.9833511
  56.4833183  20.8934155   0.2614341  55.9715729  22.2020035   0.8241986
  64.4645996  60.0450821  47.1061249  63.7799110  59.7393150  47.7010460
  65.0145111  60.6131973  47.6456375  29.4229527  33.7535820  32.0424004
  29.1939049  34.6741524  31.9146748  30.0130615  33.5506554  31.3165741
  28.7973652  11.1032600   6.6810074  28.3583717  10.4522123   7.2284141
  28.7107544  10.7645750   5.7899280   0.8151805  34.7482605  53.8449173
   1.4032331  34.8563728  54.5924072   1.1307520  35.3798561  53.1985970
  68.7296677   8.0223541  62.1818008  68.8594131   8.1591911  63.1202431
  69.4775696   7.4894638  61.9117966  28.7878284  55.6483498   5.2940741
  28.0152607  56.1151619   4.9755507  29.0437946  55.0833855   4.5650125
   7.1668153  59.5751495  76.8310165   7.4578505  60.0482330  76.0514526
   7.7738867  58.8387794  76.9048767  13.3288946  57.8411522  46.9477386
  13.4188890  58.7158127  47.3260269  12.3881130  57.6660767  46.9703102
   2.2307229  60.4443092  16.6454697   2.0304518  61.2142830  16.1132431
   1.4255949  60.2753983  17.1348267  27.4092083   7.7661166  15.1000843
  28.3550282   7.6213865  15.0734434  27.2871151   8.4267750  15.7818871
  23.8221684  35.6753235  78.2291794  24.2365112  36.4728966  78.5584717
  22.8990612  35.9083328  78.1301270  82.1347656   3.4905493  49.6637764
  81.5910263   3.0016766  50.2815018  82.9367294   2.9733188  49.5892105
  32.5047913  38.3824310  24.4520168  31.5668182  38.2819862  24.6143475
  32.5657425  38.5880814  23.5191593  38.1089401  69.1706696  35.5759430
  38.3324280  70.0547791  35.8668518  37.9247093  68.6920013  36.3841324
  50.1712265   7.0656629  83.4336853  50.2842178   6.6841717  82.5630951
  50.9913483   6.8727393  83.8880081  49.5448837  36.0477104   9.0672684
  49.1610832  35.5617409   8.3373613  49.6217079  36.9451828   8.7434330
  62.6181107  52.4068260  72.9996109  62.2746506  51.9138184  72.2544937
  61.9865723  53.1141319  73.1304092  80.9168625   3.5868034  58.3426552
  80.3604584   4.2671533  58.7218170  80.3298721   2.8418572  58.2133102
  71.4755173  20.4078312  73.9927673  71.9987488  20.3372211  73.1943436
  71.0162201  19.5701847  74.0529938  12.1313620   2.5980642  11.9794130
  12.7519846   1.9378073  12.2878294  12.4877024   3.4281337  12.2960167
  67.7381973  44.9018555  29.4456120  67.1106110  45.6240616  29.4736538
  67.7719116  44.5787430  30.3459969  14.3539982  52.6557846  27.7380047
  13.9378786  53.5172539  27.7072563  14.8480206  52.5990944  26.9201050
  45.0710373  71.0492249  88.7017517  45.9275742  71.4410553  88.8721848
  45.1070480  70.7853165  87.7823563  12.4060917  30.3186531  85.7435913
  12.6444864  29.4527931  85.4123993  12.3294601  30.8622570  84.9594650
  50.7581940  61.7537613  10.1199665  51.2672119  61.2697487   9.4696856
  50.0318947  61.1698761  10.3385973  84.2253799  54.9672318  63.5839195
  85.1627350  54.9511833  63.7771645  83.8909836  54.1491890  63.9516373
  52.8158455  29.9088192  81.5799179  52.3707085  30.6631527  81.9660034
  53.0254288  29.3467770  82.3258514  17.0304337  58.3693161  20.8567715
  16.6848240  59.1904411  21.2068253  16.3661060  58.0764275  20.2329788
   3.8748817  67.0370789  71.1189423   3.1932437  66.8848572  71.7734909
   3.7439177  67.9443283  70.8432922  13.1600494   2.3099272  48.1105537
  13.6276836   3.0892646  47.8102493  12.4009113   2.2478766  47.5308228
  47.2823601  61.0738220  77.4743347  47.7086182  60.9743958  78.3255997
  46.9580460  60.1978836  77.2651062   9.2080421  45.3647842   2.0727539
   9.6354408  44.7946587   1.4336008   8.7241402  44.7662239   2.6417849
  62.1689110  45.8210754  30.8349514  61.4208260  46.0787048  30.2962227
  62.1121407  44.8667679  30.8829727  11.8360920   8.4023857  73.9241028
  12.1593914   8.9659462  73.2211685  10.9487305   8.1668453  73.6532822
  66.3022079  55.3794785  52.5244865  65.4334641  55.7691612  52.6227913
  66.2892227  54.6164551  53.1022949  55.3235321  35.4616966  88.1113663
  55.9043922  35.0965767  88.7788467  54.4761963  35.5421638  88.5492859
  78.0205078   7.4028363  82.9771500  78.9417801   7.4747534  82.7275238
  77.6227112   8.2141075  82.6611938  59.5517464  61.5470886  37.6337280
  58.8081436  61.7123833  37.0541077  60.3099327  61.5237274  37.0499153
  29.4495773  58.2706795  87.1923752  29.5888519  57.3339233  87.0533676
  29.3801918  58.3641129  88.1424713   2.2063951  28.8756485  12.1844721
   2.3972585  29.1178684  13.0906353   3.0631795  28.6878948  11.8011951
  39.9390259  19.8961983  17.7693081  39.6179771  19.6728039  16.8956623
  39.7993088  19.1026287  18.2859879  71.2419281  57.1106567  83.8973541
  70.8584824  56.6868820  84.6652145  71.6049576  57.9304733  84.2325211
  21.8973579   7.9529371  85.3813629  21.3876724   8.5064573  85.9730301
  22.6480789   7.6712246  85.9041367  12.4170504  36.9571991  70.0769653
  11.9864550  36.3804817  69.4459229  13.2474766  37.1894226  69.6613922
  10.2048006  60.4375610  75.2281036  10.6785145  59.6070976  75.1816559
  10.1587582  60.6350327  76.1635818   7.8556657  50.0207977  85.6192703
   8.5230560  50.3984337  86.1921692   7.0401058  50.4410858  85.8921280
  84.7112579   3.7349186   4.7835364  83.7998962   3.7169755   5.0756507
  84.7579041   3.0634131   4.1029954   6.4661274   4.3443966   3.8245263
   6.9568686   4.0044460   4.5727496   5.6064630   3.9290833   3.8932571
  67.1434708   8.9222193  40.7357140  67.8988876   8.5377798  41.1804352
  67.4627304   9.7610302  40.4029961  45.0142097  28.6438713  17.1133156
  45.3777542  29.1908035  17.8096867  44.1114655  28.4785233  17.3852463
  84.8634796  17.4694729  80.5771408  85.0398254  17.1481438  79.6929016
  85.0672302  18.4038944  80.5374832  70.3567276  33.9479752  73.3920135
  70.7506104  34.8089066  73.2509995  70.8911667  33.5497055  74.0790329
  54.7815018   4.1510277   8.0049925  54.8814583   3.9153812   7.0826530
  54.1719704   4.8890429   7.9989457   2.8285284  46.0800133  14.5330915
   2.0200381  45.6224747  14.3023672   3.3979783  45.3966141  14.8865347
  84.8506012   5.5641532  88.7559586  85.4519806   4.8565249  88.5239334
  85.0006943   6.2343225  88.0891953  37.7361374  67.1512756   4.6577182
  37.6131401  67.2732239   5.5991168  38.6610222  66.9228973   4.5646105
  56.3123055  12.6710186  22.0121651  55.5549698  12.9789362  22.5100193
  56.9773941  12.4889021  22.6760368  49.7071266  30.1495247  57.7529221
  50.3054848  30.6245975  57.1762924  48.9499092  30.7283058  57.8416023
  83.5707932  34.2187920  57.1575966  83.9628983  34.2216148  56.2843971
  83.3621902  33.2994499  57.3235016  70.4633102  25.1934872  53.1892433
  70.7331619  25.3108692  52.2784042  69.7775269  25.8479156  53.3221054
  58.4115067   8.0170479  45.3377571  57.8350830   7.5018268  45.9021301
  57.8602448   8.2662067  44.5959625  79.5584946  59.5116119  66.7229919
  79.8658905  59.6402245  67.6203232  79.6183624  58.5666809  66.5824280
  37.2084808  52.7583618  18.4961395  37.4769974  53.1207237  17.6518497
  38.0154190  52.7247849  19.0099068  45.3995819  66.5505600  40.7298660
  46.1446533  66.4838867  41.3270721  44.7482796  65.9494705  41.0914345
  82.5939407  58.9174271  23.0407906  81.7248230  58.5205269  23.0985603
  83.1812134  58.1830292  22.8619194  56.4033546  58.4708023   9.1600199
  56.4316483  57.6844635   8.6149521  56.9748764  58.2693214   9.9009657
  55.1014214  27.7126198  57.4326248  54.1690598  27.9233818  57.4827194
  55.1253281  26.7706966  57.2639732  69.0249252  27.2951145  28.3336506
  69.4077911  27.3094139  29.2108288  68.2961044  26.6781960  28.4004574
  67.0865936  67.1030273  75.9736252  67.8528976  67.4213791  75.4964905
  66.3430252  67.3459091  75.4219437  60.1088867  71.7584991  14.9667578
  60.8020973  72.1366882  15.5077419  60.1826706  70.8146896  15.1082182
  67.7565689  16.2303696  44.8020401  67.9840851  15.9482126  43.9161186
  68.5995865  16.3883362  45.2270088  52.7509842  18.9175606  22.6820965
  52.5772705  18.1552258  23.2342758  53.5039062  18.6610355  22.1496162
  56.4050941  24.0672340  60.6859856  55.9995461  24.7649059  60.1711884
  55.8666077  23.2957001  60.5099258  60.5341377  46.7291565  28.9459629
  59.8099060  46.1092567  28.8596611  60.8104782  46.9014549  28.0458622
  85.5080338  38.0818329  74.3474884  84.8897400  37.4109573  74.0579071
  84.9811325  38.6808548  74.8764343  12.1898851  48.8210182  22.8576126
  12.3155050  49.7662086  22.9416695  11.6536865  48.5824776  23.6138020
  61.7615356  61.4760017  82.4732819  60.9887962  60.9901237  82.1851501
  61.7224617  62.2989616  81.9860001   7.7785358  46.0273323  56.5412140
   7.4072042  46.8786125  56.3095589   8.7252254  46.1536255  56.4774895
  59.4743233  53.6615334  79.0643463  60.0022316  54.3024750  79.5405197
  60.0932350  53.2336655  78.4726486  67.8723450  14.1145954  11.0696239
  67.5060425  13.2310619  11.0319185  68.8198700  13.9803791  11.0898371
  44.1780853  14.2901411  72.0671387  44.4686852  13.3911953  72.2210236
  43.5797348  14.4756336  72.7908783   5.0450349   5.6557579  44.6940002
   4.1743817   5.4553967  44.3504143   4.9000010   6.3739214  45.3099861
  36.7671852  66.4734573  52.5270767  36.4477043  65.5903320  52.7121620
  36.0195770  66.9203110  52.1300430  30.0850086  68.6230011  48.9273224
  30.8298836  68.2147598  49.3686104  30.2317295  68.4475708  47.9978447
  34.5273590  51.9373894  70.1371078  34.4853210  51.1916733  70.7357483
  35.4582291  52.1556053  70.0913315  73.6318054  60.8366814  45.5662651
  73.0213318  61.0382309  46.2754402  73.1117630  60.3361359  44.9375801
  70.9626617  59.1614761   2.7502234  70.6949539  59.2287254   1.8336872
  71.1983871  58.2407532   2.8639534  83.6639557  55.4741631  53.5982552
  84.4630585  55.9383087  53.8477287  83.9327087  54.5586586  53.5217094
   5.5374680  19.7794495  73.5240555   6.4945345  19.7650127  73.5309219
   5.3078928  20.6244888  73.9106216  34.2069397   4.6041985  79.7189178
  34.7636299   5.2662535  80.1288147  33.9324379   4.0407906  80.4424210
  68.6514664  59.5879745  62.5266457  68.7906647  58.6757812  62.2721634
  68.5555496  59.5590935  63.4785919  23.7629623  49.7727509  19.8728123
  24.1468525  49.8003693  18.9964008  22.8181858  49.7558174  19.7200317
  86.0393066   7.8105721  77.0928268  85.9503860   8.3100271  76.2811127
  85.6634216   6.9540815  76.8894348  13.6040173   3.1954663  72.6514130
  13.9311523   2.6074636  73.3321991  14.3701859   3.7040303  72.3857422
  46.7857361   8.9083147  12.2278719  47.6162033   8.6429825  12.6230364
  46.1764069   8.9617653  12.9641428  65.9496002  68.0102386  79.1266937
  65.0044556  67.8740311  79.1927795  66.2491760  67.3248749  78.5293961
  43.3378334  41.6334267  51.7461929  43.5375366  41.3724823  50.8471642
  44.1081696  41.3689842  52.2490730  83.5318604  54.5573730  49.9353294
  83.8885880  55.3382568  49.5120087  83.4600830  54.7973862  50.8591652
  61.3692703  49.4754066   7.3795624  62.2908859  49.6166763   7.5961227
  60.8987007  50.1285439   7.8974471  59.7085953  18.6331120   5.1214404
  60.1912880  18.3267822   5.8891668  58.8241844  18.8020306   5.4462714
  86.5791397  14.2183456  50.8562355  87.1378479  13.9051962  50.1448898
  86.6244812  13.5281982  51.5179558  10.1820230  17.9022083  18.3573456
  10.9429245  18.3137722  17.9476185   9.8552437  17.2915497  17.6966324
  56.2865868  14.3989487  30.0027180  55.5092926  14.6462765  30.5035877
  56.8263245  15.1893978  29.9922848  27.4281521   2.1264455  13.0172014
  27.6874504   2.0741403  13.9371252  27.9730873   1.4739509  12.5772839
  73.1699295  45.0842934  60.1674271  73.2814484  45.1038437  61.1179085
  72.9470825  45.9854050  59.9338341  79.7817917  26.3693962  38.8454399
  80.2593384  25.5426502  38.7770576  79.3829956  26.3444042  39.7152481
  20.2737179  62.1026230  66.1646881  20.8087196  62.7879372  65.7642593
  20.3207302  62.2802773  67.1040802  63.6288948  48.7921715  41.2961884
  62.6908379  48.6708260  41.4430275  63.9694862  49.0753899  42.1447258
  11.0752258  61.2812843  86.3638992  11.6431580  60.5901489  86.0232925
  10.2223654  60.8598633  86.4700470   4.4046822   5.4564719  10.5806789
   3.8265350   5.8832040  11.2130375   3.8757389   4.7490263  10.2119360
  10.1834879  20.2534752  25.0557785   9.5072603  19.6330566  25.3278580
  10.6450787  20.4746113  25.8646450  75.1401520  51.8427086  69.9201508
  74.3448715  51.9916611  69.4086990  75.0345154  50.9602776  70.2756653
  20.6696434  65.2751770  59.7706566  20.6966877  66.2319946  59.7731743
  21.5864124  65.0098495  59.6974144  66.3526001   8.4191980  69.8824539
  66.2115173   8.0390062  69.0154037  67.2775574   8.2567215  70.0676041
  66.4890289  25.0961342  10.9849005  67.3409424  25.1590252  11.4167900
  66.2511749  26.0028534  10.7912054  65.8441772  26.0284786   2.6382458
  65.3384247  26.5780926   3.2368889  66.3796158  26.6462975   2.1404111
  62.0813675  39.5285301  23.4684086  61.4372559  39.2844124  24.1330585
  62.0122871  38.8424301  22.8045349  85.8726196  60.0157661  11.5398560
  85.9239578  60.9691200  11.6085005  85.6271820  59.8540993  10.6288919
  71.3494797  24.1673069  44.0063667  70.6565781  24.0222168  43.3621063
  72.0710678  23.6119499  43.7112122  62.4154549  25.6959896  84.1263504
  63.0990028  25.9076290  83.4905853  62.7662659  25.9972973  84.9644318
  14.2292528  69.3789749   2.3720949  15.0028200  68.8156281   2.3506362
  13.7702398  69.1867905   1.5544142  24.8716545   9.1865110  77.9978561
  25.2337799   8.9981899  77.1320419  25.5041008   9.7837715  78.3972549
  30.8936901  34.5737648  14.2613811  30.5079021  34.0427322  14.9580879
  31.6121731  34.0394783  13.9229250  62.6865845  15.3527975  30.5107040
  63.1634140  15.7181358  31.2559528  62.4449539  14.4698725  30.7905064
  42.5789146   3.0991597  75.9115295  41.8400688   3.2007239  76.5115509
  42.5933380   3.9138899  75.4092941   5.1001315   7.6119523  68.1168976
   4.7873969   6.7172170  68.2506027   5.4556565   7.8709645  68.9670410
  50.7518768  39.6601562  45.5745544  50.5486603  39.8021774  46.4990921
  49.9124489  39.4273224  45.1778374   8.1906796  26.5808659  13.5534611
   7.3836603  27.0634251  13.7325878   7.9124417  25.6680107  13.4792299
  52.4253197  28.3499317  24.7445946  52.5216103  29.1881351  24.2925129
  51.7995415  28.5270958  25.4469090  17.4452362   0.1489183  65.1005402
  18.2664242   0.5632466  65.3655167  17.3434200   0.3867692  64.1789627
  76.5637360  64.0798569  22.0822811  76.6058197  64.5027237  22.9399776
  76.6458282  64.7992859  21.4562550  22.8030262  43.8818588  37.1005898
  22.7689018  44.6642265  37.6510124  23.5481377  44.0308495  36.5184898
  53.5556412  11.8786488  43.0330696  52.6133308  11.8526220  42.8669167
  53.6734848  12.6186714  43.6286430  59.1482315  46.0280495  73.1569977
  58.4840202  45.4399376  72.7975845  59.5637016  45.5219460  73.8551941
  22.5656452  45.3104477  14.0023279  23.0175266  46.1114960  14.2675781
  22.1130161  45.5475922  13.1929340  48.7527237  58.2431107  28.0809479
  48.7592773  58.3565483  27.1305161  48.0830612  57.5774612  28.2380962
  31.0624161  69.0172882   1.3788056  31.3373356  69.4249725   2.2000492
  30.8072796  68.1285248   1.6262611  46.1742554  30.2966404  25.0223980
  45.7042046  31.0651226  24.6987972  45.4906082  29.6441250  25.1743221
  74.2858429  41.4022675  27.4421120  73.8789520  42.0715599  27.9923077
  75.2262115  41.5547256  27.5354080  49.4759064  58.0497971   0.5043038
  49.0594826  58.8914452   0.3186995  48.8592491  57.3985443   0.1698805
  21.3892498  71.1334534   5.0886283  21.2919827  70.2297592   5.3888059
  20.6516457  71.5979156   5.4841571  20.9663486  25.5108376  11.6411638
  21.4314632  24.7076645  11.8752861  20.5906963  25.8191299  12.4658289
  65.9450073  49.0943642  83.1011887  65.4956436  49.7688370  83.6104965
  65.5512466  49.1496010  82.2304764  77.8113632  14.3923063  18.6585770
  77.4558716  13.6868992  18.1179657  78.4428024  14.8341646  18.0908852
   4.9193559  54.6300888  44.4775963   4.8942642  55.4916992  44.8938065
   4.6911182  54.7989388  43.5634689   8.2368946   8.4702539  74.1671295
   7.2977448   8.3086519  74.0770416   8.6240063   7.5979605  74.2411575
  44.9400635  59.8139725   2.9533873  44.7510223  58.9577370   2.5695157
  44.3978233  60.4250565   2.4546082  19.3840466  60.0546989  19.1335258
  19.1919956  59.4942703  19.8853664  20.0380383  60.6741028  19.4573593
   9.2766762  18.3203583  74.5535583  10.2038136  18.5346813  74.6570663
   8.8760366  18.5836582  75.3820496  35.0323639  63.1913643  16.5708885
  34.7729607  62.7451897  17.3770351  34.9332581  64.1223907  16.7698936
  63.8776093   4.2755113  23.4773979  63.2109756   4.2980146  22.7908669
  63.4661331   3.7940488  24.1951103  75.3838196  15.3876057  43.0269127
  75.0118256  14.5088940  43.1025314  75.6864853  15.4423800  42.1204796
  86.4896469  40.5665092  59.6207237  85.8386688  41.2192154  59.8784943
  87.1754532  41.0717010  59.1840630  53.3519058  56.8980408  80.8264236
  53.7608833  56.4162636  80.1074905  52.4911385  57.1463165  80.4892654
  70.3377304  32.8337212  83.2556534  69.6646423  32.6388855  83.9077377
  70.7004700  33.6759300  83.5301285  23.6626015  61.6339684  18.1292000
  24.1333351  61.5362434  18.9569035  23.7086086  60.7680702  17.7238159
  38.4672127  51.6435432  29.1103382  38.9146461  51.0633507  28.4943771
  38.6665001  51.2775383  29.9720535   0.5703648  51.5242157  73.2372971
  -0.2951866  51.9043999  73.3873367   0.7652404  51.0466385  74.0436325
  75.6502762  68.9162292  42.6095467  74.7918930  69.2913208  42.4127846
  76.2174377  69.2345276  41.9072266   1.4578617  61.0839157  69.8430023
   1.6505508  61.6627235  70.5806274   0.5363958  61.2490387  69.6433411
  85.7943115  38.3106079  41.0630341  85.2496490  38.8307991  41.6537743
  85.7134094  38.7478065  40.2153664  60.6963234  36.4849586  87.4192200
  60.7617035  36.0141487  86.5883789  59.8595695  36.9469147  87.3675308
  42.6438866  69.1760788  27.9538193  43.5635529  69.4209595  27.8514214
  42.3608780  69.6337509  28.7454453  35.6783981  43.5083008  10.9410543
  35.3775864  43.9554367  10.1499720  35.1644211  43.8995476  11.6474438
  23.9261131  61.4959106  87.9593124  23.9979229  61.4765701  88.9136200
  23.0376034  61.8103828  87.7923050  61.9305687  39.0910110  59.4622116
  61.4859467  38.9536514  58.6257439  61.4925690  38.4925499  60.0673828
  52.8401604  18.4624500  51.0766678  52.9728622  17.6112938  51.4939919
  53.3874626  18.4323807  50.2919464  82.3198853  15.3286800  65.9906311
  82.9780579  15.5774326  66.6395950  82.1881866  16.1195717  65.4677734
  86.1396332  11.4665041  89.0205688  86.3832855  11.8636580  89.8567047
  85.3964157  11.9870119  88.7157135  67.8646088  54.7021599  78.8335342
  67.8077698  55.4326019  79.4495316  68.7983170  54.4953995  78.7926788
  42.4092522  69.5324020  22.6727219  42.8538589  69.6467056  21.8327866
  42.5510826  70.3594437  23.1332932  33.1239815  45.2333183   9.2223186
  33.1577377  46.1273727   8.8820829  33.9338417  44.8282356   8.9120512
  11.6000423  60.0329475  65.7713394  12.2050991  60.6697121  65.3909836
  12.1434412  59.2668991  65.9560394  61.8060150  48.5974808  37.9092369
  61.8395996  49.2035599  37.1691170  62.7223244  48.4655762  38.1525612
   2.9879653  39.1026154  12.7468920   2.1259902  39.3258934  13.0981417
   3.1971080  38.2574730  13.1446686  67.3136139  48.3448181  25.9845638
  67.8770828  48.3099518  25.2115707  67.8929062  48.1226234  26.7134495
  62.7517700   1.4884177  48.0309792  62.4261589   1.5819829  47.1357384
  63.5594978   0.9828392  47.9404449  17.3324699   5.6020885  86.4119339
  17.0649300   4.8855681  85.8363876  18.2870464   5.6205592  86.3435440
  68.1913757  41.2039566  11.6556377  67.2988968  41.3868294  11.3619299
  68.2203064  41.5338669  12.5537214  21.6237125  39.4052277  85.9779053
  21.6524315  38.5954971  86.4875488  21.0288181  39.9744911  86.4660339
  35.1201859  14.8027878  20.2809029  35.4971275  14.1590967  20.8807449
  34.5179214  15.3118572  20.8234501  85.6566925  70.3272171  22.3181801
  86.0736160  69.8052444  23.0037155  86.3660583  70.5337372  21.7095871
  22.8864346  35.9488220  20.6021633  23.4250412  36.3303108  19.9089088
  22.0976620  35.6451035  20.1529140  28.0982037  65.9552078   5.2961230
  27.9032249  66.7828522   4.8565598  28.5041599  65.4141464   4.6188602
  11.5457706  19.4284382  65.0124512  11.1375999  19.9399853  64.3139191
  11.8598652  18.6360760  64.5768585  30.3585243  62.0886879  27.7866631
  29.7990227  62.2939606  27.0376282  30.1128540  61.1966133  28.0317726
  39.7992630  22.8059177  18.6680756  40.6249847  22.6874924  19.1375332
  39.4252663  21.9263668  18.6156654  53.3641319  46.2527847  66.7501221
  53.5376701  47.0797462  67.1998444  53.4228439  45.5893555  67.4376144
  54.2687454  53.9165077  45.0678062  53.9416847  54.6050377  45.6467590
  55.0449257  54.2975082  44.6571770  83.1426773  21.7916660  24.7546883
  82.3346863  21.2818451  24.6957893  83.8415070  21.1392403  24.7077141
  69.2553024  47.5266914  52.5797997  69.2742157  48.4009972  52.1906128
  68.4930573  47.1045685  52.1835365   2.2485073  41.9683723  41.2085114
   1.8966601  42.0825310  42.0913467   2.8619764  42.6949883  41.0993576
  32.8095436  10.3117313  22.9241581  32.8053818  10.0880775  21.9934635
  32.9511108  11.2582283  22.9424057  71.3896027  51.1739120  83.8735504
  70.4763870  50.8897133  83.9121628  71.5810471  51.2383385  82.9379120
  28.2133579  33.8998070   4.1679606  27.4303284  34.1452484   3.6751575
  28.5261822  33.1031532   3.7393460  53.9651260  43.3776360  84.5113602
  53.8413734  44.2446785  84.8975677  54.8998489  43.3366508  84.3092575
  29.2089481  53.2321510  46.4462776  29.3442459  54.0999222  46.0656204
  29.0078697  52.6708298  45.6974640  12.9215012  21.7135029  13.8053293
  13.0677013  22.2562370  14.5801182  12.0508909  21.3380032  13.9367437
  70.5867844  15.2862473  84.9429932  69.6911469  15.1403599  85.2475967
  71.0897217  14.5667295  85.3245468   2.8001249  54.3821030  85.5110779
   2.3423696  55.1494293  85.1677094   2.5707433  54.3622398  86.4401703
  60.3211098  10.1536255  48.7565460  60.4377708   9.2260036  48.5512657
  60.0297432  10.5462399  47.9336281  76.7312775  16.5918827  36.5845604
  77.6696548  16.4140549  36.6482925  76.4778671  16.8604221  37.4676781
  41.5999947  44.8223343  26.3256435  41.0789261  44.0323524  26.4693298
  42.1172714  44.9168282  27.1254730   2.5238125  18.9243088  85.2234421
   3.4224234  19.1240730  85.4857864   2.4657657  19.2276077  84.3174210
  67.4669952  29.6932259  37.8012924  66.5479584  29.7060947  38.0685768
  67.5084076  30.2937508  37.0570564  77.2385254  49.8897476  48.0010567
  77.0028305  48.9621964  48.0191422  76.9937439  50.1819916  47.1230431
  61.9765625  65.7215500   8.0105820  62.7556305  66.1324158   8.3853817
  61.5587158  66.4179764   7.5040016   9.7402229   7.3612590  42.0438614
   8.9377298   7.1938243  41.5496941  10.3611031   6.7083039  41.7207680
  78.6977768  43.8229980  13.3021727  78.8599854  44.7461395  13.1079292
  78.4275436  43.8153419  14.2204037  65.1188812  64.6697922  32.8997650
  65.7110214  65.3472443  32.5731659  64.5246887  65.1347351  33.4888306
  42.7756920  48.3344879  56.1839142  42.5672760  47.8945847  55.3597298
  42.9020348  47.6219406  56.8104515  51.3116035  31.9360905  69.5164642
  51.7805672  31.8060112  68.6922150  50.4000168  31.7314301  69.3082504
  18.8157330  52.3312378  51.8509712  19.3734589  52.8630371  51.2832069
  18.5626011  51.5851860  51.3073158  45.8244133  38.4517403  85.5238876
  46.5454254  38.4084663  84.8957901  45.8418503  39.3526421  85.8468475
  46.4671211  27.9566536  21.3117409  45.8740616  28.7061176  21.3648129
  47.0634155  28.1733608  20.5950108  76.1245270  68.1415100  28.0025768
  76.6587906  68.5969315  28.6532555  76.6250305  67.3535538  27.7907867
  86.6241608  12.1390142  13.2284117  86.7503357  12.3299522  12.2989750
  85.7019272  11.8926420  13.2992630  27.6219482  51.9528122  76.7717896
  28.4962788  52.3121986  76.6213837  27.5411568  51.2442398  76.1333313
  59.7749023  67.5009995  80.1283264  58.9367905  67.0793991  80.3182144
  60.2863922  67.3888779  80.9296036  82.0612564   0.2415060  57.7215080
  82.1734161  -0.6295460  57.3408241  81.9270706   0.8166434  56.9682198
  84.3461075  61.5663338  79.5366974  84.9096451  61.4075203  78.7794418
  84.4193420  60.7689667  80.0611725  14.3377857   0.7464467  78.6745224
  13.7145996   0.7360159  79.4009933  14.8745718  -0.0347220  78.8081970
  17.7356224  19.4019032  82.9458008  18.3595829  20.1254044  83.0045319
  17.6772518  19.2113667  82.0095749  68.8515625  31.0251465   7.1662188
  69.2530746  31.5065765   6.4428620  69.0192871  30.1047726   6.9637055
  26.7326584  57.3101463  20.2060947  26.5252457  57.2763481  19.2722492
  26.0857925  57.9125023  20.5734673   2.0627012  62.1598854  77.6371231
   1.1918321  62.1860085  77.2407150   2.6002285  61.6849861  77.0032654
  40.0312462  64.3663483  44.6298523  39.6320724  63.6785164  45.1625595
  40.3393211  65.0127869  45.2650185   2.3309729  36.5342369  61.2158546
   1.8856962  36.5488892  62.0630531   1.6308410  36.6587219  60.5751114
  27.5107250  71.8999557  72.2898483  28.2140141  71.3844833  71.8949966
  27.6062508  71.7541046  73.2310333  41.3693924  61.4264641   7.3948612
  41.4061279  62.3127174   7.7546349  42.1607094  61.0009575   7.7250028
   2.1223445  62.8161392  14.2343664   1.1714890  62.8462944  14.1285524
   2.4643223  63.2459602  13.4504433  74.6240997  70.3330536  27.3427200
  75.1387482  69.5511475  27.5427094  74.6784363  70.8650742  28.1365891
  57.2616844  42.3756714  83.5973434  57.7664871  42.9835472  83.0570755
  57.0150566  41.6709595  82.9983521  30.1282864  69.6080627   7.1846247
  30.7317715  69.0927658   6.6493578  29.5026436  69.9713211   6.5578518
  40.3505783  47.0464592   0.9590615  39.9066925  47.1689835   1.7982185
  40.7699280  47.8890533   0.7846546  69.8908157  11.3497238  84.0122528
  69.0345535  11.5287905  84.4008102  69.9877625  10.3994360  84.0737991
   0.3734577  20.7098351  85.6756592   1.0234008  20.0248985  85.5186005
  -0.4222763  20.3863182  85.2533188  30.2791729  29.1689014  70.7999573
  31.0150452  29.7649460  70.6604767  30.6649494  28.4106598  71.2386856
  11.9207850  57.7962418  62.8929367  12.7850618  58.1068382  63.1627312
  11.3281984  58.5145340  63.1145897  67.4634094  64.6026688   7.5710130
  67.3055344  64.8894806   8.4704838  68.3330078  64.2034225   7.5960684
  62.3638000  15.1484251   1.6225421  61.7648888  14.6607971   2.1880107
  61.9813766  16.0241680   1.5672560  72.8458328  46.1868210  41.4571266
  72.7325134  45.5275269  40.7724915  73.7751389  46.4132156  41.4201546
  18.3806572  47.0756721  36.3187714  18.6509533  46.4478722  36.9888763
  17.4505024  46.8952446  36.1827965  28.2827549  52.0660896  80.0393143
  27.5955868  51.4998627  79.6880112  28.5919495  52.5649071  79.2831345
  44.1307411  41.3059158  27.5806351  43.2565231  41.1091118  27.9171524
  44.0608330  41.1665039  26.6362247  48.4427299   9.0324869  37.4633369
  47.4872322   9.0852909  37.4417496  48.6272621   8.1186752  37.6804237
  76.5981216  15.0589647  88.1465683  77.0008850  15.6708498  88.7626877
  76.0502548  14.4951086  88.6925888  24.5582638  10.8581352   2.9708726
  24.9650993  10.6113482   2.1403232  24.0673218  10.0808458   3.2373877
  59.5916100  66.4480667  37.9688721  60.0951157  66.7834320  37.2270889
  60.2006607  65.8720627  38.4309387  58.8692894  68.1208878  61.9946747
  58.1777840  68.6147308  62.4353218  58.9191933  68.5068359  61.1201553
  80.1773758  23.7197742  61.5600128  80.5077820  24.3406048  60.9106789
  79.3902054  24.1363373  61.9108200   7.8332515  13.7904034  13.3894711
   7.8791742  13.7619038  14.3451433   8.5299082  14.3951378  13.1341333
  18.1043758   0.4268332  83.8349075  17.7319756   0.7972675  84.6351166
  18.8347492   1.0069225  83.6197739  75.5270615   2.7317350   6.5765514
  75.9264679   3.0040269   7.4027247  74.8477478   2.1080503   6.8330212
  18.4712486  66.7528534  63.6126137  18.1896667  67.6562500  63.7569160
  18.7987862  66.4650574  64.4647446  14.2848701   4.3965821  77.8614120
  13.8270674   3.6042120  77.5807037  13.6468258   4.8633718  78.4010773
  74.7252350  19.5639954  10.0393448  74.0438919  19.3810596  10.6862926
  75.3169022  20.1735649  10.4804611  47.5447464  56.4422340  60.6653900
  48.4276619  56.8089600  60.6184807  47.6724396  55.5513496  60.9913521
  49.3330803   8.6576490  74.4478989  48.5207405   8.9463301  74.0319672
  49.0533562   8.2735958  75.2788544  10.3007107  24.4796314  85.4750443
  10.8990488  23.7351608  85.4119110  10.0315151  24.4933414  86.3935089
  65.2664795  34.7902679  25.1490250  65.0019531  34.1102409  24.5294914
  64.4508438  35.2355156  25.3786163  18.1282749  35.3703156  85.0203400
  18.0278664  34.4738235  85.3404160  17.2908211  35.5705681  84.6022415
   2.3183091  21.6341896  21.2016163   2.1815932  22.5071125  21.5697803
   2.9764740  21.2347507  21.7703876   7.0418038  37.5085793   7.5828476
   6.1089902  37.3075027   7.6580772   7.4546070  36.9928818   8.2755823
  53.2751007   6.3870230   7.4457550  52.3956757   6.2607155   7.0895395
  53.1299477   6.7573323   8.3164062  65.6250839  21.6413555  35.8809662
  65.5786743  22.3387356  35.2269516  66.5614014  21.5284214  36.0446472
  70.4647369  28.1154709  44.5687370  71.3809662  27.8404503  44.5353813
  70.1296463  27.7343025  45.3803177  38.8382645   4.4262276  69.4668884
  38.0757141   5.0043144  69.4906387  39.3619232   4.6893001  70.2237244
  12.2039928  41.3468170  21.4141083  11.3376465  40.9864273  21.2249126
  12.0298710  42.2283096  21.7440872  84.7182236  16.4969349  78.0557632
  84.4688187  16.3493690  77.1434784  84.7342224  15.6222315  78.4441757
  84.2721634  59.6927490  45.7997742  83.8313675  59.4766388  46.6214981
  85.1077271  60.0741043  46.0692825   3.0055282  40.6701469  80.4344940
   2.1723294  40.7921677  80.8896027   3.5355546  41.4218407  80.6995697
   0.0675816  35.4257011  50.5702667   0.1149905  35.9258766  49.7555237
   0.8730252  35.6500664  51.0362625  10.3007622  58.4873581  13.1686611
   9.3709831  58.2998390  13.0398998  10.5380125  59.0432587  12.4264212
  28.8205643  49.0617218  68.1531677  29.2756138  49.3151665  67.3500900
  27.9022255  49.2728615  67.9849167  83.7934723  42.0984306  73.9904022
  83.5080261  41.7730865  73.1366425  83.7788391  41.3275223  74.5576019
  80.1670837  39.2190895  75.1088943  79.4048920  38.6552696  74.9769363
  80.0011444  39.6543159  75.9451218  78.3017807   5.7200751  74.3382645
  78.2772522   6.5583825  74.7996445  79.2268600   5.5877347  74.1310120
  74.5345688  54.2576714  26.3903027  74.0652084  53.4942627  26.7266617
  74.1018906  55.0055275  26.8022919  25.4517174  34.0790100   5.9032373
  25.8895988  34.3025017   6.7245421  24.5187798  34.0968513   6.1166396
   4.0386157  51.9823875  84.1187973   4.2093959  52.3599854  83.2559586
   3.2748892  52.4601212  84.4424057  22.9668179  66.7287140  72.7219086
  22.5848656  66.4034500  73.5371094  22.2893543  67.2922211  72.3480988
  23.7081184  29.3313580  14.1263514  23.0436096  28.9277649  14.6847181
  23.4641476  29.0719032  13.2378740  30.6088371  38.2659187  27.4431953
  30.8489380  37.4773750  27.9297981  30.0992680  37.9429245  26.7000637
  45.7457390   3.2972775  16.4481888  45.6434059   3.9802475  17.1109943
  46.2430649   3.7172148  15.7463675  49.5735703  11.3252201  38.0994072
  50.4019585  11.2168570  38.5665894  49.2050934  10.4427872  38.0573616
  77.5934982   5.0331249  65.7970810  77.2044067   5.1401200  66.6650620
  77.4995346   4.0999365  65.6058655   3.9621875  32.3111000  43.5266533
   4.2503467  32.7017403  44.3516388   4.3386078  32.8744621  42.8505173
  53.9501343   0.1339859  82.3042297  54.8485298  -0.1869502  82.2260361
  53.6082497   0.1090502  81.4105148  67.3274078  70.5262070   5.1073174
  67.0479736  69.7760162   4.5825591  67.5102234  70.1587982   5.9720864
  66.8884964  54.5578308  27.4485626  67.2751923  54.1539192  28.2254524
  66.0861969  54.9710350  27.7676315  41.7319946   8.3563967   6.6425781
  41.7400703   8.5980148   5.7164102  42.5171585   8.7674675   7.0042009
  46.7736626  51.4088860  78.7112045  47.6814613  51.1128426  78.6441650
  46.6422768  51.9558029  77.9367065  12.0141773  65.8311691  47.7574959
  12.3269949  66.4334793  47.0825157  11.0607262  65.8545761  47.6761589
  27.8826485  70.6968842   5.9495158  27.2003651  70.2382965   6.4398441
  27.4514351  70.9740524   5.1411443  53.7689934  59.2668457  12.7992287
  54.2534180  58.4563065  12.6424131  54.1242561  59.8854904  12.1610317
  48.9145470   7.8540611  13.9112320  48.7575607   8.1358995  14.8124285
  49.8623505   7.9270859  13.7991037  75.2751007   7.3031921  29.3906708
  74.6611557   6.7922897  28.8631477  75.9901886   6.6960368  29.5810604
  18.0079136  42.0155334  18.4628868  17.2159672  42.2616043  17.9848671
  18.4862309  42.8373032  18.5730724  25.3785534  52.7159195  83.2317123
  25.4769955  53.5170937  82.7172623  24.4835529  52.7561455  83.5687408
  74.1761856   0.1831748  44.8790894  73.6028137  -0.2635346  45.5019264
  73.6403732   0.2878903  44.0928497  17.2542610  23.2685165  67.8259888
  16.4479675  22.7799778  67.6602936  17.3213100  23.8767719  67.0899429
  12.0828352  20.2152519   7.1817331  12.2948542  20.8737736   7.8432698
  11.5227489  20.6754208   6.5566092  59.0404243  39.9665451  82.4862366
  59.2794685  39.6341400  83.3514481  58.0841827  39.9268723  82.4702148
  58.3741608  66.3234406  46.0230408  59.2145958  66.4696198  46.4572449
  58.0860977  67.1970901  45.7584877  10.5660477   4.3088951  41.6833344
  11.4286852   3.9470289  41.4805031  10.1365852   4.3956890  40.8323021
  66.0425262  33.8984566  38.9573250  65.7971115  34.6101837  38.3661842
  65.2859573  33.3120956  38.9532738  39.3757286  15.3867102  13.4575930
  38.8906021  14.5964088  13.2203054  38.8315735  16.1066437  13.1384983
  44.7092781  50.8869934  29.2219944  45.4039841  51.2522202  29.7699223
  45.1028671  50.1119766  28.8211594  11.8823490   7.9928999  30.3418541
  12.7065639   8.2083597  29.9054146  11.5470324   8.8349667  30.6496162
  83.5959320  25.4893494  54.3623886  84.3208084  26.1130276  54.3198395
  83.7408218  24.9027081  53.6200333   0.7467915  57.3708382  76.3204269
   0.3023292  56.6682930  76.7948914   1.3807431  57.7193947  76.9471970
  14.1596918   6.0492539  54.4272079  13.4676523   5.6784797  54.9747849
  14.3124380   6.9209995  54.7918472  71.8101120  58.1250381   7.1591320
  70.9210205  57.8460846   7.3780441  72.3387222  57.8499298   7.9082117
  65.2831421  12.1824722  40.4506912  66.1985703  11.9404650  40.3104820
  65.2498474  12.4764366  41.3610268  10.0257988  34.2505188  13.7499018
  10.3584919  34.1688118  12.8561058   9.5419140  35.0764008  13.7507906
  34.2959251  34.6629219  88.0939026  34.5771065  34.9916039  87.2400055
  34.1147461  35.4510078  88.6060791  26.5227394  41.5491638  74.5251236
  25.9758129  42.2421265  74.8951340  25.9008751  40.8793526  74.2407532
  15.4539814  29.1554489  29.7813568  15.6388826  28.6828575  30.5929623
  16.1261253  28.8539295  29.1701775  10.3629189  27.7570763  28.9607430
  10.3636885  28.0572968  29.8696423  11.2676687  27.8715000  28.6699409
  68.5680161  48.9862251  23.6703033  69.1117325  48.2735939  23.3344955
  69.1278763  49.7607117  23.6159191  16.7653999  33.1015434  17.7738914
  15.8937731  33.4593201  17.9426937  16.8760872  32.4184074  18.4351807
  42.6817093  53.6557732  28.7756176  42.8999252  54.4528046  28.2925510
  41.7404213  53.7229919  28.9359074  28.7132320   6.6278567  42.9331322
  27.8598614   7.0613995  42.9275360  29.3465424   7.3455877  42.9295425
   8.8697081   7.6199265  82.5191879   8.5563679   6.7183495  82.5913620
   8.0782270   8.1544209  82.5832520  79.5450668  63.8315468  70.8977737
  79.7171402  64.2914581  70.0761261  80.2794495  63.2247238  70.9909363
  36.5362816  26.0253296  81.5287323  37.4101295  26.1078320  81.1468735
  36.0059853  26.6652412  81.0538330  59.6487617  41.9710083  30.3329315
  58.8114891  41.9659119  29.8690605  59.5076790  42.5584717  31.0753708
   7.6464295   0.4949117  35.1531067   8.2429981   1.1775657  34.8459892
   7.2318468   0.8707557  35.9296989  63.0308685  21.0088997  35.6566811
  62.7104912  21.3783455  34.8338165  63.9445000  21.2901268  35.7058411
   6.6834745   5.2169113  53.5362473   5.9700718   5.7871542  53.8227959
   6.2443380   4.4455910  53.1778374  86.4827652   2.9045970  68.8645935
  87.4254227   3.0629525  68.8140869  86.3264084   2.6801527  69.7818756
  76.1283722   7.2441421  15.6717186  76.0562286   7.2953806  14.7186165
  75.4429092   6.6284118  15.9310417  85.1097565  65.7294006  52.3726768
  84.9452820  66.2927475  51.6164894  84.5110245  64.9916611  52.2564812
  53.0786819  42.1760101  50.4134521  53.8257904  41.7379990  50.0057755
  52.8829002  41.6462059  51.1862488  36.3323288  23.6814919  16.5900135
  35.5494614  23.9837151  16.1295700  36.9520340  23.4662285  15.8929777
  66.6873322  14.5004272  46.8552589  67.1508484  15.0591145  46.2313538
  65.7772980  14.5140123  46.5587997  56.2367439  35.8554802  61.5899315
  56.6858940  35.0403137  61.3663254  55.9664879  35.7379990  62.5006409
  34.8040581  40.5712967  18.9066353  35.4306679  41.1983871  18.5455933
  34.1190491  40.5070419  18.2411556  18.0735741  53.8257141  46.0137672
  18.6776104  53.3444405  45.4483032  17.2035103  53.5684128  45.7087822
  77.4122314  21.8858509   9.2236700  77.8049774  22.7587585   9.2268267
  77.3308334  21.6631870   8.2962933  60.3500519  69.5974579   7.4770150
  61.1237946  69.0342560   7.4960380  59.7692566  69.1850204   6.8376379
  35.6002884  64.2384872  70.9577484  36.3903618  63.7631950  71.2148743
  35.4685516  64.8796768  71.6561356  49.0994186  38.6880302  78.9857254
  48.3063545  38.2169685  78.7300186  49.0479736  39.5183449  78.5122681
  67.5206833  14.9001284  84.9203415  67.8540802  15.4709530  85.6126175
  66.8085632  14.4124737  85.3342361  80.9265823  69.6919632  86.4744492
  80.3669662  69.5231705  87.2324524  81.5883484  70.3038254  86.7968216
  77.7312012   3.6611848  87.6991348  77.8914261   4.5424218  88.0367432
  77.4177551   3.8003824  86.8054886  80.7004623  17.8708763  83.3344345
  81.1772919  17.1490936  82.9246902  80.0928650  18.1708946  82.6583786
  37.6771088  12.4348726   3.1083031  37.4276352  12.7690630   3.9698782
  37.9593430  13.2102575   2.6231718  19.1378326  18.0446243  30.6639538
  19.9421692  18.5455780  30.7993031  19.2861233  17.2225857  31.1313896
   6.4911590  25.8038731  89.3001328   6.8780661  25.6120720  88.4458847
   5.6324649  25.3817196  89.2743759  85.6646194  64.9061813   1.4344509
  85.5032654  64.0777664   0.9828686  86.4109802  64.7259827   2.0060322
  85.1236420  56.8742065   9.0484514  85.2868347  56.6926575   9.9740000
  84.4420471  56.2503395   8.7985544  23.0131035  48.5121422  41.1504402
  22.7867126  47.6273766  40.8637848  23.4971180  48.3831406  41.9661102
  40.4308243  58.2619858  49.4881096  41.3234215  58.2874870  49.8328552
  40.5392952  58.3132744  48.5384598   6.1757951  24.7614861  68.3227539
   6.8463330  24.5901318  68.9840012   5.3982682  25.0016670  68.8267365
  14.5874348  24.6054096  87.0998230  15.0318336  24.4773579  87.9378815
  15.2887192  24.8320026  86.4890137   6.0469718  37.5730858  51.9471359
   6.9331894  37.2826805  51.7314568   5.6583819  37.8034401  51.1032372
  82.3611069  51.8707771  57.5762596  83.0529022  51.2624359  57.3163109
  81.5529175  51.4595757  57.2697029  69.1912537  22.8454094  81.5029449
  69.6174088  22.9234467  80.6493988  69.7930832  22.3132439  82.0233612
  74.4908295  70.4724350  58.3818932  73.8404083  69.8126907  58.6225662
  75.1740570  70.3890228  59.0470848  42.7365646  22.9183426  87.5603638
  42.6789169  22.3095818  88.2967911  43.5705528  22.7078915  87.1403656
  86.8962250  43.9326591  16.4831657  87.5970230  43.4365959  16.9062977
  86.1288757  43.7815132  17.0350399  62.5155296  59.4647026  73.7237930
  63.1341934  60.1184235  74.0495911  62.6982689  59.4084892  72.7858810
  34.3840065  21.7082939  17.0753384  35.0375710  22.2938747  16.6930065
  33.7153358  22.2944336  17.4296684  50.5082321  38.0324020   3.1240261
  50.3349571  37.1188431   2.8968306  51.4139214  38.0345345   3.4337924
  19.2140560  65.9483032  25.9948883  19.7994175  65.7316666  25.2691803
  19.7950573  66.0519791  26.7484932  18.0676003  50.1071091  50.3029175
  17.2196827  49.9574165  50.7210808  17.8499184  50.4459000  49.4345436
  31.1317921  16.5852661   4.2270136  31.0814743  17.3871899   4.7472248
  32.0609207  16.4949894   4.0153432  58.2980042   4.1902509  72.0923233
  58.1843567   3.4594858  72.7000198  59.2252007   4.4176269  72.1618805
  31.3411999  53.8503990  50.3337135  30.9274139  54.7056427  50.2172318
  31.3922863  53.7363014  51.2827148  16.5092525  45.5703239  85.3817673
  16.4441509  44.7843132  84.8393784  16.5428085  46.2922897  84.7541809
  39.3476524  62.0581741  36.2176857  39.1514549  61.5669899  35.4198875
  39.5974426  61.3894310  36.8553505  52.4040031  10.8758917   1.2049104
  51.5702248  11.1267738   0.8072824  52.1847038  10.1409292   1.7775971
  79.5525513  65.4016342  68.6864395  79.7130051  66.3207321  68.9003143
  78.6836548  65.3973236  68.2849045  81.6590500  14.7859688  79.9054642
  80.7353439  14.8044100  80.1557693  81.9380722  13.8881865  80.0853729
  73.1536942  16.3938961   8.1543522  72.7781296  17.1052094   8.6732168
  72.8416901  15.5957699   8.5808249  12.2603302   5.2294450  66.2267761
  12.3259544   4.9425998  65.3159256  11.4737530   4.7962408  66.5582275
  59.2061005   1.1929709  53.2526321  60.1475639   1.0991507  53.3978004
  59.0258331   2.1145709  53.4380760  47.6972771  57.7263184  24.9292221
  48.1124268  56.8657990  24.8709736  47.2135239  57.8149452  24.1080284
  66.4017944  10.5644569  57.0479965  65.4540787  10.4376183  57.0034790
  66.5321121  11.4821339  56.8090019  86.8379059  53.9948692  31.4540920
  86.0148926  53.5738373  31.7023220  87.1880951  54.3392410  32.2756805
  55.1304131  16.2597542  58.9043579  55.1661034  15.3469915  59.1904030
  54.5573311  16.6878452  59.5403976  81.8635101  41.9942055  65.2082901
  81.2585526  41.6315536  65.8553925  82.7164612  41.6323242  65.4485931
   3.9640586  29.9740505   1.7466801   4.6654282  29.3425732   1.9065248
   3.6992352  29.8136978   0.8409275  83.5873413   5.0674877  77.8249054
  82.8121338   4.6308508  78.1779327  83.8511124   4.5239625  77.0824509
  37.9670410  61.2381821  26.8364792  38.2087135  61.1798782  25.9121265
  37.5802193  62.1088982  26.9284439  46.9866791  67.3506470  23.9052238
  46.0949135  67.1113586  23.6527920  47.4523735  67.4492874  23.0747814
  59.0459213  40.3466835  66.9717255  58.6615181  39.4704247  66.9968491
  58.8782997  40.6563339  66.0816422   8.2113762   5.4643188  56.0996780
   7.7851934   5.3284016  55.2534370   7.5460463   5.8948693  56.6365166
  43.0599403  69.6449432  11.4135513  43.8517075  69.2134552  11.7347317
  43.3772926  70.4404907  10.9862061  45.3094711  70.9241257  59.3142548
  44.5845909  71.0929337  58.7123528  45.4856491  71.7725449  59.7209244
  48.7754593  49.7692146  46.1342239  49.4958725  49.3479462  46.6030235
  48.3081017  49.0470238  45.7144089  76.1263885  43.8084641  19.8776455
  75.9672089  43.9968033  20.8025360  75.8539124  44.6042633  19.4208202
  28.8987217  26.2263947  78.9181213  28.7346058  27.1044846  78.5742340
  29.8435841  26.2010670  79.0691986  21.0955524  40.1645012   8.3775148
  21.4472980  40.8932381   7.8661942  20.2911186  40.5098152   8.7646484
  55.3788300  25.0860748  57.3304558  54.7797852  24.3986473  57.0392265
  56.2501411  24.7025280  57.2307587   5.5012093   2.9046535  87.8470154
   4.6958437   2.3917005  87.7799530   5.9226799   2.5855396  88.6449890
  19.0016079  54.2617760  41.8576698  19.3157997  53.6386604  42.5128365
  18.6088676  54.9692764  42.3689728  65.7200928  50.7991791  47.2969513
  66.0746460  50.5740280  46.4368172  65.0685272  51.4770279  47.1174736
  33.2723694  36.3505630   6.6038899  33.0401611  36.9763603   7.2899566
  32.4319687  36.0667191   6.2441854   1.4474945  60.0125389  20.8412151
   1.2468903  60.9105186  20.5773449   1.9112872  60.1053734  21.6733875
  53.5800171  54.1545486  59.8129463  53.8618507  53.3952637  60.3231354
  52.7012215  54.3491440  60.1386452  55.1188660  31.3583202  79.0638428
  54.4137535  31.9368057  79.3543625  55.6140137  31.1656761  79.8600540
  45.3111839  63.6414757  79.2474518  44.3848305  63.5476685  79.0254135
  45.5461082  62.8066483  79.6525497  19.3656559  49.4975510  87.0974503
  18.5208874  49.7999878  87.4308090  19.1819477  48.6340027  86.7276306
  14.4073639  46.5210495  47.2905617  13.4937639  46.6126747  47.5610619
  14.5790253  47.2986336  46.7594070  82.8264160  24.5595531  83.9036636
  83.1604004  25.3341713  84.3560486  83.4068756  24.4534740  83.1499786
  80.6083069   3.3025255  12.5723906  80.0362625   3.8181565  12.0039539
  80.1463089   3.2687869  13.4100370  77.1905670  50.8669662  21.8697529
  76.6649246  51.2528114  21.1689987  77.5945511  50.0968361  21.4698429
  53.8547020  45.9545822   8.0814772  53.2169571  46.5790863   8.4271708
  53.9896202  45.3305016   8.7946062  39.8821526  70.0289459  71.9347839
  39.5653763  70.7490082  71.3894424  40.8258858  70.1750870  71.9999466
  50.6834412  28.6796894  85.0784378  51.4413147  28.5841370  84.5016098
  50.2351456  29.4620705  84.7572861  31.2025623  56.1018715  16.0127525
  31.5696774  55.2285271  15.8759108  31.8935585  56.6995773  15.7272577
  54.2424278  63.2253380  88.1613846  54.1563721  63.4114380  89.0963669
  54.6744156  64.0001068  87.8017273  78.5562363  27.7387772  51.6792336
  79.3142624  28.2780743  51.9045753  77.9175034  27.9237728  52.3677406
  74.1670456  64.1650543  53.1306458  74.1889877  64.0036621  54.0738831
  73.6307220  64.9520721  53.0347290  86.8761520  40.1811028  73.0073776
  86.7061005  39.8172302  72.1385193  86.2398987  39.7485962  73.5768967
  15.8421049  63.6468391  20.5371590  16.3909130  63.3364754  19.8169403
  14.9953718  63.8314438  20.1307163  81.9416199   8.4093180   7.5296373
  82.1868057   8.6070728   6.6257515  81.0180206   8.6542063   7.5863194
  35.7694168   0.8746969  41.4893456  35.6061249   0.2521392  42.1978607
  35.0336800   1.4854604  41.5328674  29.3398991  70.9648209  59.8804359
  29.0687237  71.8041153  60.2522850  28.6496258  70.7459793  59.2544441
  82.9013596  69.2287369  82.4493713  83.2458954  69.9376755  81.9062881
  82.0175247  69.0780869  82.1141586  28.7978268  49.2303085  57.5912666
  28.9680634  48.3091736  57.3943863  28.1248627  49.4893723  56.9617920
   6.3606339  66.2683640   0.6903673   6.6956301  66.7320786   1.4578156
   5.7258854  66.8717957   0.3040994  64.5957489  19.2232609  56.4557762
  64.5894089  20.1727371  56.3345947  63.8253708  18.9156933  55.9781189
   2.6049447  62.9221344  65.4704895   3.3127091  62.8298302  66.1082840
   2.0340672  62.1718330  65.6359558  64.6843491  44.2392387  23.6243858
  63.7619133  44.1521873  23.8647213  64.9757690  45.0313606  24.0758820
  12.3812199  18.1937752  20.5176773  12.1599016  18.8083363  19.8179874
  12.1890326  18.6707096  21.3250351  33.1167641  35.6474380  65.0420761
  32.4836578  36.3559723  64.9264069  33.4958725  35.5206261  64.1723480
  42.9110985  13.7942781  21.9388905  42.7196655  13.7695818  22.8764267
  42.1779938  14.2772245  21.5573845  74.0733948  51.0096474  32.8961754
  73.3394089  51.2922211  33.4417496  73.7850418  51.1804237  31.9995632
  16.3521729  68.3271561  21.3430004  16.1787872  68.8997650  22.0901909
  17.2963848  68.3966217  21.2020397  74.2518692   6.6524739   7.0613017
  74.9556274   7.2900796   6.9412541  74.3725510   6.0254455   6.3482080
  42.6638947  18.2808495  74.8490372  43.5629730  18.5264263  75.0671692
  42.5562019  18.5514679  73.9372253  73.7897720  22.3758907  33.8143654
  74.3955460  22.1943970  34.5329208  72.9228210  22.3480434  34.2191505
  16.5436077   8.4596729  21.4284039  16.2370796   8.1851397  22.2926407
  17.4958611   8.5039234  21.5149326  55.8292542  25.5511456  21.4482269
  55.8051872  26.2384911  22.1139679  55.7383080  26.0186310  20.6179142
  77.1811523  17.8166332  78.3355026  77.2095947  17.2162895  79.0804977
  77.9659042  17.6071777  77.8290253  19.6451073  19.2263947   1.8890085
  19.1729088  19.3531666   2.7119236  19.1120148  19.6782742   1.2349060
  21.4720421  69.5751419  42.0974655  20.6986580  70.0315399  42.4288406
  21.4221363  68.7034378  42.4897385  79.9576645   0.8216446  75.4111328
  80.1664429   0.5827664  74.5080414  80.6984787   0.4960036  75.9223938
  29.1306305  44.1878815  28.9958916  28.2514534  44.2511101  29.3690968
  29.6835022  44.6833992  29.6000652  18.0472393  17.9702473  85.1974487
  17.5563622  18.4935112  85.8310623  17.8275928  18.3540287  84.3485031
  22.1938267  61.4663582  27.8217850  23.1297588  61.4026413  28.0120544
  22.0577698  60.8692207  27.0861549  58.3706741  29.4388733  71.6130524
  57.5054436  29.3910065  71.2064667  58.5854607  28.5308876  71.8267365
  21.5993996  63.6059341  63.5688934  21.8630428  62.7432365  63.2487717
  20.8120041  63.8171844  63.0672836  53.0607872  33.0687103  80.3008041
  53.2253304  33.9610023  80.6057053  52.2710075  33.1405754  79.7647781
  63.5507126  52.0397453   2.8023341  63.7035789  51.7060242   3.6863546
  63.0954857  51.3276939   2.3529103  14.0858459  60.2851410   5.3614450
  13.7601824  60.7745552   4.6060314  13.5201569  59.5144844   5.4095173
  60.8906631  34.6471901  63.4003067  61.8406830  34.7620773  63.4225578
  60.7333946  33.8531914  63.9112473  62.6694069   4.2710223  74.5960159
  63.0949593   4.2527828  75.4532242  63.2915497   4.7272415  74.0294189
  53.5093346  24.1132603  82.0496597  53.9804420  24.8916454  82.3469925
  52.6093903  24.2503929  82.3455124  69.6851578  30.0797977  56.3825302
  69.8443909  29.6532040  57.2244911  68.7403641  30.0025425  56.2497787
   0.9835911  42.2012405  76.0893936   1.6292847  41.5009537  75.9949875
   1.3542018  42.9362068  75.6008224  60.3461456  35.1681061  84.6651154
  59.6716957  34.5112038  84.4924164  59.9770966  35.9845619  84.3283234
  79.4337692  41.0318375  34.5745697  80.0325089  40.3551331  34.8904953
  78.8450699  40.5707779  33.9769974  15.7034235  35.3487816  81.0276489
  15.4094410  35.0971336  81.9031372  16.3803272  36.0076218  81.1824570
  75.3717117  20.1524506  80.4075470  74.7905884  19.6192932  79.8650818
  76.2057571  19.6828594  80.3982239  33.5449944  41.1622429  29.6763592
  32.8302650  41.7675781  29.8737564  33.1924171  40.5892487  28.9954796
  82.6381302  66.2493134  13.7164097  82.8602829  65.3215027  13.7941837
  82.8824158  66.6257706  14.5618896  34.5578117  12.8033772  83.2722473
  35.4024696  12.9988956  83.6779022  34.3596916  11.9092245  83.5505829
  58.9723816   2.5661845  31.6343727  58.9227219   1.8053553  31.0556641
  59.8961411   2.6210749  31.8790989  71.1777420  56.4494896  46.5807304
  71.2715988  55.6121368  47.0348892  70.8697739  57.0546722  47.2553711
  76.2409897  24.3031921  12.3383331  75.6742020  25.0054989  12.0193567
  77.1241608  24.6697159  12.2947569  50.4507294  15.0349092  66.0585098
  50.1454811  14.1371155  65.9280396  49.6494789  15.5463247  66.1711349
  26.1151829  52.4938812  46.1300354  26.3887424  52.1138763  45.2951775
  26.6944294  53.2460861  46.2520676  19.6354103   0.9051557  26.5053482
  20.0690975   1.0202304  27.3508682  18.9200249   0.2948531  26.6842003
  47.2635345  66.8418121  59.4282646  48.0749702  67.2810593  59.1735725
  47.3679771  66.6695175  60.3640213  44.9856071  62.0364647  54.0364075
  44.7365685  62.1898460  53.1249886  44.9266510  62.8981285  54.4490700
   6.3740559  15.6485214   1.8787496   5.4853663  15.3055172   1.9726150
   6.6269526  15.9044180   2.7657626   7.8392434  10.5182314  33.0656128
   7.0345426  10.7764063  33.5150948   7.6495337  10.6549196  32.1374130
   9.1081743  20.3118210  10.4013662   8.6686878  20.6654053   9.6280222
   9.5035124  19.4940910  10.0992746  70.7156754  36.8127098  49.0247841
  71.0944519  36.3187981  48.2975922  69.9552155  37.2528343  48.6450119
  16.1533604   1.3609838  47.0220871  16.1042595   0.6836922  47.6966972
  17.0905533   1.5207864  46.9108963  64.4126968   9.4722080  84.5720062
  64.0263138  10.0406504  85.2381973  64.9645844  10.0551090  84.0505829
  15.6584921  68.1234894  41.2335587  15.1109371  68.9074554  41.1909180
  16.0882244  68.1776276  42.0871582  73.5326004  61.5160103  18.7589970
  73.8148651  62.4177170  18.9122372  73.1076736  61.5404778  17.9016342
  70.3691177  70.1334000  76.3073883  70.2256241  69.8221054  77.2011032
  71.2024078  69.7404022  76.0477600  30.3543129  28.7122841  88.7413712
  31.3113708  28.7104244  88.7578201  30.0998268  28.9379539  89.6361008
  74.8826981  60.5093422  21.0933113  74.5409698  59.6231003  21.2117710
  74.4859009  60.8118439  20.2764435  59.8886642  52.6829758  35.0420265
  59.4289207  51.8875465  34.7733994  59.1941414  53.3286972  35.1720810
  55.4569664  37.8819046  59.9991646  55.5620956  37.0854378  60.5195694
  56.0563507  38.5111046  60.4005089   3.6559267  57.4224510  16.4493828
   3.6125159  58.3602829  16.2627888   2.7555563  57.1152611  16.3435555
  73.9790573  58.4402657  31.3365631  73.2445679  58.2450676  30.7546272
  73.9320984  57.7672157  32.0155563  21.3174839  38.2596245  13.7184505
  21.1691551  37.3985596  14.1093454  20.4703369  38.7006760  13.7820444
   9.3473654  56.3594780  63.9170876   9.1766014  57.2487183  64.2274399
  10.0477123  56.0379868  64.4848785  84.3770599  10.8568907  84.6931381
  84.9336929  10.9277935  83.9176636  84.0267410  11.7388935  84.8179626
  19.6847744   2.6534836  72.4320145  20.1348133   2.6784494  73.2764511
  20.2666988   2.1470299  71.8653564  57.7466469  17.4880352  23.4698811
  58.4450645  17.1226234  24.0129490  58.0704803  17.4018383  22.5732574
  76.5441818  60.6135521  76.1472015  75.7222366  60.7794113  75.6855392
  77.2115097  61.0384026  75.6083069  77.4444427  59.0780907  85.5408859
  77.2141800  58.1905670  85.8156891  78.3495483  59.1914139  85.8310242
  66.2057343  52.7980614  30.1058216  66.2551956  53.4065514  30.8430634
  66.6859360  52.0244751  30.4011211  75.5073471  49.7218437  65.1857071
  75.7204590  50.0854187  64.3262787  75.4231186  50.4866371  65.7551193
  45.1079674  64.0838547  49.7275696  45.5041885  64.4277267  50.5281906
  44.6511879  63.2907639  50.0079117  39.3023720  49.3693962  14.1478853
  40.0728607  48.8022385  14.1177187  38.5777435  48.7783356  14.3523216
  71.6952820  26.7476406  17.8839970  71.8868866  27.4436684  18.5125389
  71.7526245  27.1744423  17.0291386  75.7649460  52.3163834  20.1378059
  75.9693146  53.0677032  19.5810471  74.9502716  51.9659386  19.7776337
  64.7436600  67.4572220  74.7538147  65.0049362  68.2189560  74.2363968
  65.0051041  66.7054291  74.2221375  86.6164169  11.8970919  34.1363945
  86.3958206  11.0670242  34.5589523  85.9167480  12.4941406  34.4014091
  51.7768250  56.4786758   0.7111241  51.0625458  56.9602890   1.1283618
  51.3389397  55.8555603   0.1312831  64.1971130  62.4330711  41.9417725
  63.3386726  62.8360825  42.0717392  64.1014252  61.5474205  42.2920570
  65.1207428  70.2907028  60.1322098  65.2121124  69.4290085  59.7255554
  64.4814606  70.1585922  60.8322830  53.0450668  50.8734322  71.8353119
  52.4555817  50.4474907  71.2129669  52.6241150  51.7109489  72.0292053
   5.6833372  61.4907951  29.8752136   4.9790220  61.7551842  29.2833767
   5.2608161  60.9057655  30.5040588  77.1625748  61.8825874  84.1288452
  77.5585709  61.4533043  83.3704681  76.9064255  61.1624374  84.7050476
  51.3967361  40.3374939  64.9255600  50.4432182  40.4181061  64.9487305
  51.6471367  40.6996384  64.0756302  34.6645317  70.0845566   5.7028866
  34.4014130  69.5862656   6.4766469  34.4326363  70.9897079   5.9106402
  79.0345078  69.3287201  81.9548492  78.9293137  68.6595688  82.6311569
  78.5080490  69.0121613  81.2207718  12.3753185  64.5759659  58.2425232
  12.9644718  63.9680214  57.7958298  12.2767076  65.3063126  57.6317062
  42.8415947  10.3654556  83.0951691  43.7672195  10.1218109  83.0859604
  42.4572868   9.8738432  82.3693237  86.6922760  25.1595592  17.2110367
  85.9951782  24.8588734  16.6280518  86.7005615  24.5207672  17.9238529
  37.5232849  15.7429142  28.0400410  38.0309258  15.0388584  27.6365051
  37.6565285  16.4951630  27.4633255  82.3613205  11.7488623  72.1294861
  82.7884827  11.2961464  72.8566818  83.0683060  11.9253149  71.5087814
  40.2692833  70.4065094  61.5121841  40.0866051  69.5732117  61.9463158
  40.4017258  71.0263062  62.2294998  75.9350662   1.5664140  20.7549763
  75.5724258   1.8681438  21.5878506  76.6188660   2.2030578  20.5468063
  80.2209244  57.3173599  40.3692589  80.1063080  58.1613770  40.8059845
  79.5928726  56.7375298  40.8000526  44.0039291  62.0166397  73.5829163
  44.9055939  61.7836037  73.8041000  44.0200958  62.9685097  73.4833603
   4.9838948  27.2152061  33.1968765   5.3932705  27.4648151  34.0253334
   5.1475239  27.9578400  32.6155396  65.0357819  12.6401930  59.4878578
  65.2700577  13.5027418  59.1452827  64.4243164  12.2843876  58.8430748
  80.2902527  64.5103989  24.1404858  79.7268295  63.8227615  23.7856045
  80.6734161  64.9279633  23.3690853  18.4263668   5.5691795  48.1453247
  19.2694416   5.2573619  48.4743042  18.2134800   6.3173447  48.7031403
  65.2251663  39.6094246  58.7630806  64.6461868  38.8518143  58.6791916
  66.1049805  39.2348671  58.8063469   5.9543176  29.4498062   6.8088489
   5.9580984  29.0834045   5.9245591   6.8366160  29.8020458   6.9259319
  53.5272369  16.1345215  46.2464638  53.1818352  16.4175167  45.3997993
  54.2864609  16.6979847  46.3958511  44.7723885  50.7115097  41.7414360
  45.0838089  50.3088570  40.9308052  44.8740768  51.6521301  41.5960999
   9.1800385   2.3081381  37.4864578   8.3318462   2.5895007  37.1434746
   9.6116295   3.1197529  37.7533722  79.1464615  50.2258644   9.8118677
  78.4111481  49.7857933  10.2383394  79.5543213  49.5458069   9.2757664
  12.2583876   9.9715614  64.0867233  11.3602352  10.0538807  63.7661362
  12.1856117   9.4166069  64.8632355  47.2058716   6.6074362  85.1000824
  47.5898666   6.4947853  84.2305450  47.7218971   7.3068700  85.5010071
   6.6005025   9.3262234  48.7947121   7.1655579   8.6197634  48.4818878
   5.7413282   9.1286373  48.4218674  58.0630760  48.9240150  74.0578308
  57.5693665  49.7026901  73.8006439  58.8655663  48.9666405  73.5378189
   0.6504610  52.8214226  53.1352310   0.1763665  52.0499153  53.4454613
   1.1863174  52.4980698  52.4109840  53.5153618  14.4342775   1.1284044
  52.8822365  15.0671263   0.7894564  53.2739525  14.3229961   2.0479531
  37.6119041   6.4090462  23.9271545  38.1779327   5.6528578  23.7721519
  36.7252579   6.0777974  23.7844563   6.8606124  62.0792656  16.5103245
   6.5421677  62.4487305  15.6867218   6.1070094  61.6115341  16.8702431
  49.0108070  44.9097862  23.9406509  49.7416191  45.4468918  24.2466946
  48.3509216  45.5424767  23.6569462  20.2970486  42.1854057  15.7056408
  20.1077156  43.0951385  15.9353580  20.4613171  41.7556343  16.5450115
   3.5296175  25.3181973  81.2521057   4.2971263  25.8845654  81.3320389
   3.0057745  25.7210236  80.5596085  84.7729568  31.2960548  31.3463993
  85.6082993  30.9231339  31.6281223  84.9723511  31.7312851  30.5175152
  57.5032806  28.4176426  36.1024780  58.1250114  27.7460899  36.3830185
  57.2104149  28.8278389  36.9162369  86.6985397  64.6931305  32.5091667
  86.8357162  64.2661209  31.6635475  86.8098373  63.9927216  33.1520271
  58.6923714  40.9382896  53.2552261  58.6767044  40.3705406  54.0257111
  59.3222885  41.6243515  53.4760246  -0.0785989  48.2215462  68.9995575
  -0.0458527  49.1780548  69.0154724   0.3353271  47.9814835  68.1705399
  29.6354408   3.9676216  84.5049057  30.1551933   4.6911769  84.8549881
  30.2273598   3.5170033  83.9025726  25.1090965  64.1660995  87.5605469
  25.7171497  63.6015663  87.0832520  25.0285130  63.7569542  88.4221420
  81.3458023  39.1825867  19.0515003  82.2815399  38.9893913  18.9940319
  81.2357407  39.5790787  19.9157391  55.3035011  27.4660358  75.9186249
  54.9169464  27.5403805  76.7911377  54.8656006  28.1440716  75.4040833
  57.8008308   1.7616353  61.0920830  58.1528664   0.9704989  60.6841545
  57.8437691   2.4254332  60.4037781  54.7684555  34.7091751  56.9644623
  54.7669029  35.6576576  56.8355827  54.7935829  34.5966187  57.9146881
   7.4930859  61.0569954  47.7799759   8.1762333  60.4895439  47.4228477
   7.5956163  60.9871178  48.7290993  81.1672211  71.1631088  53.5997162
  82.0150528  70.7479019  53.4415550  80.5393524  70.6104965  53.1342735
   0.9562075  62.0154800  53.1000748   0.4831679  61.7187614  52.3226280
   1.6584069  62.5680389  52.7568207  70.6841736  27.3579521  64.9019699
  70.1247864  26.9741535  65.5772705  70.0985260  27.5005112  64.1583786
  38.6535492  34.1633034  86.4488754  38.0069427  33.7816696  85.8551636
  38.8675499  33.4556274  87.0568466  19.5191288  12.2364979  83.0135422
  19.6404266  12.4863930  82.0975342  19.7567596  11.3097143  83.0424576
  83.3161469   0.1677328  47.2564507  83.2319641   1.0130099  46.8152580
  82.5182266  -0.3057607  47.0211754  26.4290981   6.5819030   7.1697273
  25.7506199   5.9074759   7.2020583  27.1452560   6.2266126   7.6961489
  22.5290871  70.2069168  10.8550587  23.3694096  70.6652679  10.8561258
  22.2242813  70.2676544   9.9497213  71.9220581  38.2374954  23.3567219
  71.3222122  37.9885674  24.0598907  72.1863480  39.1317711  23.5727158
  34.2266731  66.0297852  37.5064240  34.0605698  66.2537537  36.5907402
  34.3440971  65.0798187  37.5031357  58.1812134  56.6680527  22.0077934
  58.8924561  56.0305519  21.9449062  57.3961182  56.1753387  21.7688522
  40.5770950  58.1920166  32.9601631  40.2299423  58.6166458  32.1756859
  41.1709976  57.5199242  32.6257973  16.2036533  44.0831718  80.4326630
  15.6834078  43.3362007  80.1366730  16.0174980  44.7723961  79.7950592
   0.9624178  26.3371181  69.5476456   0.3050842  26.1655445  68.8733215
   1.7899336  26.0666504  69.1497803  56.6155891  32.0718536  76.7446136
  55.9115295  31.8917732  77.3675919  57.1428986  32.7490959  77.1683121
   7.8032289  67.3635559  57.6106834   6.9261212  67.6973877  57.7990189
   7.9270639  66.6494293  58.2359200  55.0084114  45.7966881  55.0658035
  55.2074509  44.8611908  55.1039505  55.7161789  46.2124214  55.5582085
  11.6215944  59.2246132  78.7125702  11.9600801  58.3345985  78.8101959
  11.5502615  59.5533714  79.6087036  55.2549591  47.9689636  40.1898193
  56.0174942  48.0974655  39.6256752  54.5047989  48.1496582  39.6233902
  79.8725586  46.3275223  67.2052155  79.8292694  47.2834778  67.1826630
  79.6206512  46.0973892  68.0995407  26.5507450  52.7441101  20.2161617
  26.3849888  52.1628113  20.9583530  27.4924908  52.6717224  20.0608921
  80.1294785  59.9224281  59.2552910  79.2921753  59.9578667  58.7928009
  79.9563828  59.3769569  60.0225792  25.4057350  40.5993538  22.2289753
  25.3466396  41.4973526  22.5550671  24.8053131  40.1026726  22.7848835
  65.9183578  35.2998276  76.0118484  66.6093140  35.2772293  76.6738968
  65.7182465  36.2298889  75.9061584  59.7063217  23.5905571  16.0109005
  59.7654877  23.4181652  16.9505882  58.7683868  23.6809158  15.8425579
  11.5216351  71.0020142  75.5184479  12.4709911  70.9505005  75.4075394
  11.1899729  71.2170792  74.6466751  57.2930145  37.5725517  75.2432098
  57.5435638  37.7724876  74.3412781  57.0237427  36.6543236  75.2190475
  20.8430862  19.9000511  28.7535000  21.5763340  20.2619495  28.2558975
  21.2070141  19.7214680  29.6206207  29.5937729  43.9925385  19.6487484
  29.9078808  44.8378677  19.9696636  28.7196541  44.1766777  19.3048897
  55.3971786  40.7701492  10.2740860  54.4748840  40.5847893  10.0973225
  55.6455841  41.4085579   9.6055346   0.3720551  62.4140244  17.8500156
  -0.2958434  62.7653542  18.4388351   0.6015695  63.1495781  17.2821140
  32.7964821  23.4771233   9.3441858  32.0396843  23.6992092   8.8018112
  33.1480103  24.3227692   9.6226473  45.2005806  69.8391113  81.0936890
  46.1355095  69.8907700  81.2923508  45.0295334  70.6049194  80.5455017
  20.5953960  14.5447693  73.5476761  20.9825115  14.5175476  72.6726685
  19.7796669  15.0324278  73.4336243  30.8552704  36.8593178  78.0017319
  31.5463238  36.4175301  77.5082703  30.0800629  36.7877197  77.4448166
  58.3216209  66.8151779  87.3585129  57.7788582  67.3426361  86.7724915
  57.8835373  66.8731003  88.2076035  12.9285107  15.8448248  66.9827728
  13.5948067  15.4454193  66.4235306  13.3407364  16.6426735  67.3140411
  64.2452240  26.8708515  66.3445511  63.2945137  26.9777775  66.3752823
  64.4264984  26.1613522  66.9609756  11.0857515  28.3581963  73.0507812
  11.7850695  27.7219505  72.9011917  10.6472082  28.4357204  72.2034912
  71.2916031  54.7833824  82.6848297  71.3282776  55.6194038  83.1495438
  71.6896210  54.9649429  81.8334503  53.0632629  41.8549232  79.6074066
  53.0486526  41.5177689  80.5031433  53.4851074  41.1630440  79.0979156
  41.8133850  23.2194214   9.6280537  42.5268440  23.6462059  10.1024599
  42.1280289  23.1588707   8.7260752  15.4482040  50.6759109  81.7808304
  15.7592115  50.6082077  82.6835632  16.1644783  50.3221130  81.2535629
  -0.0870634  41.1190643  82.0977936   0.2800224  41.9553871  82.3842239
   0.0584378  41.1050568  81.1518173  44.8092155   5.3875670  52.2249603
  45.3319969   6.1872077  52.2841721  44.0815163   5.6193409  51.6479263
  43.4178886   2.0294845   9.2262459  43.6351242   1.1592510   8.8919792
  42.8630753   2.4149132   8.5481157  62.3351173   5.9230022   5.4564543
  62.6865845   6.0859776   4.5811591  62.3718414   4.9717007   5.5559969
  55.4765244  12.4232178  53.6476707  56.0300369  11.6696167  53.8524666
  56.0941010  13.1275597  53.4508629  85.9880600   0.4875491  45.5469551
  86.0872040   1.4304166  45.6788712  85.6950302   0.1564331  46.3959084
  60.7225151   5.5891185  17.9285641  61.6263275   5.7645316  17.6666889
  60.6378365   4.6372247  17.8741589  43.4168205  16.8062954  88.5705719
  42.6236267  17.0913582  88.1169052  43.5746460  17.4852352  89.2265930
  37.9531326  70.5713730  65.3795853  37.4365959  71.1635132  65.9262161
  37.3241158  70.2142105  64.7526855  52.9125938  12.4324980  54.6384773
  52.3222733  13.0833721  54.2588539  53.7832375  12.6962500  54.3407326
  40.9399872  57.4861870  44.6402245  41.5282784  57.7733269  43.9418755
  40.3991852  56.8086586  44.2343674  54.3965073  70.4286270  42.6928749
  54.6138191  69.8787460  41.9401245  54.0411377  69.8193283  43.3399429
  44.5256996  52.9222336  35.1130409  43.6996803  52.6576538  34.7081680
  45.0614586  53.2329330  34.3832054   0.1696531  59.2982635  51.4689941
  -0.4183498  59.4999237  50.7411079   1.0475403  59.4333878  51.1122169
  36.5707054   5.3348689   3.9882731  36.7850456   6.2320094   3.7324824
  36.9831619   5.2250624   4.8450441  34.1189461  63.1297874  19.1800613
  33.1755981  63.1522560  19.0193653  34.3745689  64.0505905  19.2348766
   2.8956530  66.7112503  66.3524017   2.6567078  67.5377045  66.7720490
   3.6324227  66.9354935  65.7839661  10.0280771   6.8658133  71.4412766
   9.4259148   7.3888931  70.9121094  10.6057863   6.4470716  70.8031998
  18.9732838  57.2057915  62.5823326  18.3831005  57.2400589  63.3351555
  18.6375523  57.8734398  61.9842033  82.4957428  44.1119804  11.4359837
  82.5359192  43.1556625  11.4442081  83.3729782  44.3908272  11.6985493
  34.0547905  66.8473663  27.8878746  33.9631920  66.9755554  26.9437294
  33.1553764  66.7861328  28.2096443  64.3572464  27.5352669  74.5423737
  63.9411774  28.3330460  74.8689728  63.7233009  26.8420353  74.7261353
  13.9506588   3.7803359  69.3427811  14.6154671   4.0689621  69.9680481
  14.4413376   3.2990570  68.6765747  53.9689255  31.1109467  10.5135460
  54.3237877  31.0154476  11.3973904  54.2291260  30.3075638  10.0628786
  12.0424032  33.7368126  83.3259888  11.2306576  33.2735062  83.1194687
  12.0010185  33.8828888  84.2710724  14.5647917  53.0572166  65.3655701
  13.7107019  53.3139496  65.7132111  14.8263874  52.3086014  65.9016418
  53.4743958  24.0897369  14.3352051  53.0466805  23.4178333  14.8660879
  53.8668633  24.6854115  14.9734631   8.5665770  68.3903275   7.1393204
   8.0771942  67.6420212   7.4810491   8.1032476  68.6337128   6.3378716
  57.5044785  12.6298838  61.1385918  57.4303589  11.7472219  60.7757645
  57.5904007  13.1973114  60.3725128  69.7427368  21.6125221  61.3084564
  70.0241241  20.7006550  61.3829727  70.1209412  22.0432911  62.0750313
  82.5078354  66.7623291  44.0445480  81.6426544  67.0987244  43.8110313
  82.7393646  66.1761627  43.3241043  27.8032551  69.9053802  16.7375469
  27.9897423  70.8442154  16.7316151  27.5232830  69.7224579  17.6344242
  70.1812286  35.8624306  18.8106098  69.4436111  36.1566200  19.3450317
  70.4321365  36.6342278  18.3030643  61.6395988  43.8902016  56.5633392
  61.0276413  43.6018944  57.2405510  61.2359428  43.6114883  55.7413864
  81.0582047  11.2774458  69.4542465  81.9188766  11.2098684  69.8676529
  80.6294785  10.4458199  69.6563034  58.3142548  28.8058128  88.0306778
  58.5241737  28.0855350  88.6251221  59.1610947  29.2028122  87.8269958
  24.7508049  31.4335747  20.2000332  25.2564106  30.6389999  20.3710461
  24.6552029  31.8460388  21.0585022  77.4935608  20.6296215  43.8067284
  78.2037659  20.0780907  44.1348267  76.7236176  20.3476505  44.3006096
  21.4765873   4.2070184  30.5442886  21.6978798   3.6130509  31.2615509
  21.2761936   3.6291738  29.8079662  13.9392462  49.7523117  43.7225266
  14.0690899  49.7656212  42.7742653  12.9932175  49.8438263  43.8360405
  10.6821289  65.3443527  65.9158249  11.6371584  65.2803192  65.9229889
  10.4294481  65.0578690  65.0381470  41.8343277  31.5167923  86.0846786
  41.3060379  31.5231400  85.2864990  42.4756813  32.2150421  85.9529724
  36.2486649  47.8406601  43.9436874  36.1246605  47.8081551  42.9951134
  36.1585541  46.9312134  44.2283249  44.5234070  61.8209267  57.9803963
  44.1361771  62.5441132  57.4871597  45.1568909  62.2402649  58.5627098
  65.4391098  25.3489723  23.8139496  66.2373123  24.8788967  24.0550632
  64.7909393  25.0671787  24.4594707   8.8277178  37.0808067  77.8571777
   9.0620356  36.7152901  78.7102509   8.0226612  36.6237984  77.6137466
  22.0023727  66.5359421  39.9261856  21.7830849  66.8279648  39.0413895
  21.1552238  66.4083252  40.3531342  77.3342896   9.4978476  23.8145065
  77.8148270  10.0529118  24.4286861  77.9381332   8.7823305  23.6154156
  18.7508125  13.1407585  85.6797409  19.5654602  13.6159325  85.8434219
  18.9118156  12.6624193  84.8664093  62.5058174  15.5101976  60.2094879
  63.0718613  16.1479530  60.6443367  62.1361198  15.9859772  59.4657211
  13.3374290  61.8366394  24.2166348  14.0573454  62.4392433  24.4032421
  12.5658169  62.2622871  24.5903645  27.8862896  11.1337461  19.7322464
  27.1137829  11.3664007  20.2473545  28.3962402  11.9425125  19.6866570
  82.8921280  31.3014755  56.6371574  82.0146255  31.2655621  57.0178566
  82.7414780  31.3956890  55.6965942  10.5778856  33.8512802  78.6585007
  11.3157330  34.0792999  79.2240295  10.6991568  34.3909416  77.8772888
  51.8431702  66.0913696  75.5023499  51.6488533  66.8405609  74.9391632
  52.5736542  66.3843460  76.0471344   7.0451832   1.5718755  13.4575510
   6.1365194   1.3577353  13.2461138   7.5627799   0.9445362  12.9528027
  14.4297037   2.2734168  63.9460411  14.5455780   2.6634054  64.8124771
  15.3181019   2.0671306  63.6554756  26.7212677  45.8072128  65.3600616
  27.6403790  45.8258286  65.6267471  26.6685600  46.4337273  64.6383057
  59.6418381  61.6036301  44.4102745  59.7926712  62.3447266  43.8235397
  60.5176125  61.2693024  44.6038704  -0.1108756  47.2489777  63.0528603
   0.7864864  47.2247620  63.3851051  -0.6579418  47.1884956  63.8359909
  53.4815750  23.4489250  36.1126442  54.0274467  24.1109390  36.5369034
  53.8875999  23.3168526  35.2559433  55.2714806  20.8419781  31.7386169
  55.1389389  20.7992344  30.7916012  55.2417374  19.9294395  32.0260544
  45.6190872   8.0766754  80.7318649  45.8278351   7.1494279  80.8453064
  46.4708023   8.5054617  80.6484604  80.3011398  47.0175858  71.5297699
  81.2322083  46.8053093  71.5951385  80.2816925  47.8937416  71.1447983
   4.5907183  49.1952477  41.5934067   4.4992957  50.1475487  41.6249504
   4.5990467  48.9248924  42.5115967  67.1445084  59.6482735  30.5438919
  67.0895767  59.4114647  31.4697075  66.7789917  58.8939896  30.0816364
  78.0049286  64.5180359  38.8792381  77.2191238  64.2644806  38.3950386
  78.7272263  64.3253403  38.2814140  46.0554085  19.1064262   1.9857049
  45.9512901  18.4240532   2.6488478  46.0924339  19.9221439   2.4851713
  59.6283913  36.6882820  80.1728134  59.9662437  37.5808640  80.2462158
  60.2230721  36.2567902  79.5593033  49.3124542  34.9602890  83.2966843
  48.7540474  35.2450104  82.5732498  49.5426025  34.0567131  83.0803146
  69.0685654  66.0659180  45.8662643  69.6298981  66.0106049  46.6396179
  69.6726532  66.2359543  45.1434975  67.8481445  16.4468956  16.2964115
  67.7806549  17.3807144  16.0972576  68.1506195  16.0491333  15.4800014
   1.1682435  21.1153603  63.7424660   1.2705140  20.3015423  63.2490349
   1.5057073  21.7939720  63.1578026  57.0517616  13.3808479  32.3748245
  56.7261620  13.5442104  31.4896507  56.4654884  13.8817587  32.9419250
  54.5677528  28.8469925  22.4541512  54.8488846  28.0965939  22.9776955
  53.6127968  28.7834911  22.4380283  52.5347557   6.7308288  63.0395851
  52.4362488   7.6614137  62.8382378  53.1753311   6.7060742  63.7504196
  11.9018784  19.1868896  74.4896317  12.7163858  18.9671421  74.9418716
  12.0069275  20.1048470  74.2395325  65.0169144  68.7702560   5.0901318
  64.0598602  68.7866440   5.0880232  65.2541122  68.5181808   4.1977043
  15.9900131  48.6522942  11.1653824  16.4874249  49.3466606  10.7333307
  16.5841503  47.9018555  11.1739779  40.0588036  63.3500214  78.2080536
  40.5893555  62.6288643  78.5466919  39.7567825  63.8127556  78.9896469
  49.1747551  47.2249870  30.8395462  49.7981262  47.1120377  31.5570984
  49.6013870  46.8182297  30.0853806  75.3937149  31.5273151  67.0582581
  74.6687012  30.9275742  66.8824844  76.0491562  31.3116684  66.3948364
  73.6002655  63.6169357  58.6652145  73.8840179  62.8106155  59.0959816
  73.2747726  64.1672745  59.3775444  14.5268097   6.0362225  80.9583511
  14.1364317   6.3774781  81.7629471  13.7901115   5.9472799  80.3537064
   8.0906725  12.3827629  78.3626709   8.9680500  12.7260017  78.5318680
   8.2226696  11.7033758  77.7014313  26.5428658  55.7191582  71.6311798
  27.0535240  56.2331238  71.0056381  26.9533539  54.8544884  71.6223297
  79.4681473  45.5776749  87.8389816  80.2825089  45.2774582  88.2426147
  78.8028107  44.9695282  88.1610260  86.9353409  30.5240860  40.3434143
  86.3679123  31.2384701  40.0537415  86.4012451  30.0316830  40.9667244
   3.5465393  35.0264702  14.7233734   2.8204741  35.6502037  14.7193184
   3.7200150  34.8548279  13.7978048  55.9976463  60.7568207  36.3586884
  56.3349304  59.9596977  36.7674255  55.2527275  61.0090218  36.9043236
   3.4966226  66.5212708   7.8447313   3.0867932  65.6833267   7.6299672
   4.3120837  66.5244980   7.3434882  31.9137936   0.1717104  53.7061806
  31.1506901   0.3198111  53.1476364  32.6398125   0.5773748  53.2322960
   5.2529812  68.2103882  48.3105087   4.8676586  68.9012527  48.8494606
   4.8177090  67.4089813  48.6012268  67.1697845  47.7437363  88.7585526
  66.7999115  46.8644371  88.8376236  67.1558304  48.0905495  89.6506042
  31.6703854  69.2822266  58.7640915  31.0279007  69.8384094  59.2046661
  31.9808960  69.8109589  58.0290680  41.7704887  24.4255638  25.3095264
  41.1082954  24.0124111  24.7554169  41.8346901  25.3214321  24.9785748
  68.2474747  53.6574898  51.0894012  67.7947083  54.2910194  51.6460609
  67.6218948  53.4613342  50.3919716   1.7684758  54.3339615  15.4106121
   1.2691094  55.1469002  15.4880342   1.2589453  53.7967300  14.8039875
   7.6548095  68.1830215  51.6384583   8.0960474  67.4504776  51.2084351
   8.2673826  68.4665680  52.3171272  66.9234009  46.3931541  54.1922646
  67.4128647  47.1579475  54.4951553  66.6883926  46.6018639  53.2881355
  64.7904282  34.9273720  21.3459816  65.1236496  35.5310059  22.0099258
  63.8418617  34.9301147  21.4742546   1.4856476  65.5053558  38.6054077
   2.0356197  65.0528336  37.9658890   0.6387038  65.5989304  38.1693344
   0.2648494  70.9025040  35.7428627   0.9897854  70.2908096  35.8714447
  -0.2474044  70.8396683  36.5490150  68.8297729  50.0292511  62.0796547
  68.5486298  49.3853340  62.7297020  69.7621994  50.1555367  62.2553406
  64.6002121  22.3448162  23.0625496  65.1000900  22.3144016  23.8782864
  65.0682983  21.7539444  22.4726334  26.1248951  12.9875441   4.2246513
  25.9253311  13.3866320   3.3778129  25.7281055  12.1176586   4.1789341
  75.5089417  44.4717712  54.2530365  76.1302109  45.1999283  54.2461967
  75.2576752  44.3799362  55.1720924  77.1395493  70.3156128  35.2368050
  77.6238251  71.0345688  34.8308449  76.4432983  70.7459335  35.7330818
  64.5367584  71.4411087  44.1963577  63.6343040  71.3116226  43.9047318
  65.0607147  70.9094849  43.5971260  70.7565231  55.2510834  38.2956123
  70.6407394  54.5153999  38.8969383  70.9650421  55.9934540  38.8627434
   8.5705004  58.6646881  80.3187332   9.1738853  59.1988678  80.8352737
   9.1340399  58.1891136  79.7084198  27.3383141  37.6268082  88.7618942
  27.2950668  38.5829010  88.7461319  27.4857674  37.4088593  89.6822128
  34.2976189  24.3622055  14.6115055  33.5856743  24.7595520  14.1100235
  34.4569168  23.5237198  14.1781502  77.9792404  14.0106506  12.3462429
  77.8898239  14.9212189  12.0649900  77.3349609  13.9121313  13.0472593
  17.9124184   9.0419331  61.4915657  18.3319607   8.3316011  61.0061340
  18.5020714   9.2107401  62.2264442  57.1433945  11.2049675  67.7468033
  57.5632362  10.7647133  68.4858170  56.5350990  10.5550280  67.3949661
  69.7468262  63.5841827   2.1787829  68.9110260  63.8692932   2.5480921
  70.0491028  62.8969917   2.7726080  68.9625854  67.1601715  80.8596954
  68.1723404  67.2271652  80.3237381  68.6534958  66.8248672  81.7012787
  45.6031570   1.1738033   2.3981164  45.4039955   1.7185920   3.1595435
  46.0308723   1.7693479   1.7827958  18.3772659  19.7418480  63.6708794
  19.0852222  19.9477787  63.0604515  17.5765476  19.8893337  63.1675568
  43.7833443  55.0975876  51.2945328  44.2224159  54.3793488  50.8389206
  43.4893646  54.7131920  52.1203957  85.1223068  44.8145866  50.2550430
  84.3866882  44.7040138  50.8574333  84.8813400  45.5700264  49.7188721
   7.4017625  31.5905094   5.2315884   8.0608635  32.2750397   5.1165299
   7.4174352  31.1021519   4.4084888  21.8556404   1.6494734   8.3745861
  22.1435070   2.3374016   8.9746857  21.6297531   2.1138105   7.5686097
  66.2315979  69.5492249  42.8707771  66.9780045  70.1428680  42.7889328
  66.2543793  69.2601547  43.7830009  77.3171310  15.5089321  56.7231293
  77.2427597  14.6685238  57.1752510  77.6701736  16.1055641  57.3831482
  68.9643097  38.4491692  82.9246597  69.4941635  38.9826965  83.5169678
  69.5113144  38.3397751  82.1468124  76.5776749  42.6534615  69.3965302
  77.4289322  42.2178574  69.4395294  76.0149841  42.1371269  69.9736023
  58.4425468  51.3454094  88.6024094  57.9289970  50.9978256  87.8732452
  58.0757256  50.9204903  89.3777313  86.6039734  64.7435303  19.2473259
  86.6763840  65.2630920  18.4466743  85.9313049  65.1893234  19.7621231
  70.1595840  37.4177208  25.1977272  69.8767548  37.2275047  26.0921860
  69.4902191  37.0154610  24.6442184  76.0526199  65.3041611  76.9131775
  75.5437927  65.4689636  77.7070084  76.8300629  64.8373566  77.2196045
  84.3229752  56.9121513  87.9339828  83.8290863  57.7102737  88.1218872
  83.6632004  56.2187119  87.9251251  56.8991928  13.1222687  15.2025185
  57.3399391  13.8028994  14.6938772  56.0396652  13.4923658  15.4036932
  44.8708191  21.8150215  77.3304672  44.1773186  21.3057690  77.7499390
  45.5872612  21.1915054  77.2114258  80.6041031  33.0541191  51.2449799
  81.2232437  33.7601662  51.0595245  81.1441727  32.3501740  51.6041794
  20.0608006  16.8089409  12.6781206  19.6077614  17.3943043  13.2850285
  20.9552021  16.7596664  13.0155392  32.0369911   3.3689446  74.2493362
  31.7519302   2.5331504  74.6186905  31.6612434   3.3824019  73.3690720
  55.8320961  33.6769180  16.3705063  56.7203255  33.9986038  16.5247879
  55.4867973  33.4981651  17.2451763  46.7368011  48.9160500  75.8106995
  45.9100876  49.0392723  75.3442307  47.3054733  49.6102905  75.4777145
  60.5903320  27.5059948  46.0508118  59.9285698  27.1728230  46.6568604
  61.1322708  26.7441730  45.8454742  64.4582520  12.4519215  74.8159256
  63.9819336  11.9301825  74.1700592  63.9553604  12.3501387  75.6239929
  24.3653622  21.3006382   1.3031605  24.2606239  20.6117611   1.9594463
  24.7631435  20.8584595   0.5531752  19.9115658  15.6842937  56.3573952
  20.2714176  15.6066847  55.4738121  19.1382847  15.1201715  56.3514786
  28.2108479  55.3291855  54.1822662  29.1156235  55.3176727  53.8700485
  27.9610825  54.4062195  54.2268105  34.4186668  46.3843231  74.9254456
  33.6786385  46.0898399  74.3945236  34.1131935  46.3017883  75.8288269
  55.7951012   6.4916983  41.7935219  54.9002762   6.6350312  41.4853477
  56.0240822   7.3016801  42.2492943  55.7079926  44.6956520  16.4024582
  54.8539047  45.0504036  16.6492767  55.7251282  43.8207474  16.7903728
  23.7072945  15.0011797  84.9496536  24.6321983  14.9713202  85.1943817
  23.3059292  14.2854071  85.4424057  64.6495132  24.1694489  55.9793091
  65.3450089  24.4040051  55.3648987  64.2475204  25.0051537  56.2164459
   1.6731400  50.3076706   8.0886822   2.5974286  50.4775848   7.9068813
   1.3996121  51.0388870   8.6425152  69.4013214  50.4139786   2.7095335
  69.0954361  50.7444878   3.5541825  68.6059494  50.1213455   2.2645776
  27.3186569  49.3836937  39.1404190  26.5225372  48.8526001  39.1213226
  27.8409615  49.0069618  39.8485870  64.3632355   9.2109499  20.9800549
  63.8163681   9.1867847  20.1948261  63.7416534   9.1629610  21.7063923
  85.8154373  64.4293060  41.6655121  85.5771484  65.2982635  41.3424606
  85.1266937  63.8532715  41.3337708  50.0657730   6.8103571  78.5986099
  49.5598221   6.9959869  77.8075409  50.4462585   5.9460583  78.4422531
   1.5699662  25.7149887  63.8398209   1.9528714  25.9968014  63.0090370
   2.3166173  25.4146500  64.3580322   4.3264461  62.0065765  38.4437981
   4.6727800  61.5433159  37.6811218   4.2183652  62.9100151  38.1465569
  52.1706772  52.6128769   7.2168608  52.9027061  53.1422081   6.9003563
  52.1302528  51.8732033   6.6106606  71.9544525  30.2929840   6.1852417
  72.5180817  29.7968559   5.5916009  71.2293396  30.5894699   5.6352000
  19.6675682  29.9021397  81.4295197  19.7789211  29.9053955  80.4788284
  18.9529629  30.5186710  81.5890808  14.8672857  56.0552444  28.1468487
  14.6996193  56.4594879  28.9981461  14.2041245  56.4315948  27.5682201
  10.0183592  26.6964207  15.5252934   9.3228884  26.7102985  14.8677530
   9.6700039  26.1514492  16.2309055  38.4408989  61.1924171  23.9203949
  37.7405701  60.5937195  23.6609173  38.3263626  61.9550667  23.3533993
   7.7706351  63.9440308  55.3889503   7.6890268  63.9407730  56.3426628
   7.0220628  63.4320564  55.0827599  77.6241837  30.5926895   6.2595735
  77.4915390  29.9468651   5.5656352  77.8258896  30.0713482   7.0365868
  39.9867020  28.5013599  79.0562439  40.1698875  29.4314766  78.9237518
  40.7766914  28.0557156  78.7503891  27.7935295  32.6672134  20.0877705
  28.4189911  32.2419052  20.6744061  27.0560741  32.8998833  20.6519127
   5.6576056  47.0987396  51.9634094   6.1021714  46.4103470  51.4687347
   6.3656435  47.6520882  52.2931366  47.1077003  16.8772621  28.2346725
  47.2810783  17.2268505  27.3606243  46.3036766  16.3677692  28.1337032
  86.1759186  28.5128174  52.3076935  85.7124634  27.8347282  52.7992592
  86.3748169  29.1864223  52.9580269  71.9366608  42.6310616  55.9408836
  71.6091843  41.8235016  56.3369064  71.2122116  43.2507820  56.0266304
  79.1919022  54.4167175  88.6997833  78.4049683  54.1044540  88.2531662
  79.2174683  53.9182663  89.5165634  87.1532516  15.5212755  26.1297531
  87.0704880  16.1717472  25.4324226  86.3995819  14.9436369  26.0091496
  53.8561630  22.5970211  50.5277557  53.9443474  22.1664486  51.3780899
  54.7056770  22.4695358  50.1054916  38.2600403  54.5538406  61.7095871
  37.3233223  54.5852242  61.5151405  38.6850815  54.7094765  60.8661728
  25.6682014   4.9123735   4.3382006  25.1609764   4.1560674   4.0433192
  26.1502476   4.5945501   5.1016488  25.5329075  54.1844139  37.2368431
  25.4416676  53.8197174  36.3565559  26.3818092  54.6265450  37.2261238
   6.9928608  57.5218353  45.5332909   7.7107410  57.3229065  44.9322014
   6.2909203  57.8461037  44.9690552  19.0441971  45.6645355  72.9301834
  19.3139839  45.2994423  72.0874710  18.4447346  46.3751793  72.7024460
  53.3999176  26.6013565  31.8451366  53.6802750  27.4790192  32.1046410
  53.9603691  26.0118999  32.3497849  62.5489388  45.4472923  54.2400246
  62.0512199  45.7995720  54.9778633  62.9870872  44.6735077  54.5943031
  64.0196991  53.8089600   0.6582056  63.0694008  53.9216347   0.6365997
  64.2035294  53.4944191   1.5433620  79.1831665  38.9481430  88.3641586
  79.4551544  39.6965179  87.8329468  78.3109589  39.1834145  88.6805954
  16.0869713  57.4511986  76.1470261  16.0054359  58.2196083  75.5821075
  16.8053398  57.6663971  76.7418900  29.3347034  59.4139824  54.8882599
  29.3381786  58.9875717  55.7452278  30.0806351  59.0305824  54.4269333
  64.5716476  44.2248001  58.0525589  63.7754707  43.9279747  57.6118507
  64.9713516  43.4233627  58.3904495  62.7975845  62.3854713   2.0063815
  61.9738388  62.8560295   1.8789029  62.6286850  61.5089645   1.6607783
  22.5390472  33.4199524  71.8615036  21.7527695  33.5582237  71.3334122
  23.2445660  33.3281593  71.2211533  24.5362797  61.7029953  70.4855499
  24.8867798  61.1935616  71.2162094  24.7636127  61.1936989  69.7076263
  39.0139542  45.3140678  65.5172119  38.3480911  45.9394455  65.8031540
  38.5531044  44.7338600  64.9112396  20.2403679  62.6179657  36.5980339
  20.9294376  62.1668396  37.0857811  20.5780296  62.6755524  35.7042236
  30.5850639  59.2559547  16.8008957  30.1905766  58.4916306  17.2209187
  31.4832287  59.2739449  17.1313629   3.1162114  44.5119705  38.8319168
   3.5718100  44.5829086  39.6707420   3.8052294  44.6156273  38.1756058
  45.9482880  36.3473015  53.6682663  46.4017906  36.2120056  54.5002899
  46.6146927  36.7181168  53.0897903  84.4887543  40.4065056  42.2772598
  84.0093536  40.7028542  41.5035820  83.8161163  40.3014183  42.9501266
  40.2621880  23.1448040  52.8739204  41.0583153  22.6157284  52.8240204
  40.4886055  23.8631077  53.4646873  71.7421341  62.5809669  72.9604034
  72.5653992  62.7878036  72.5180359  71.2058563  63.3657570  72.8475571
  55.4879074  65.2562332  79.2769012  55.1792831  64.3982162  78.9857025
  55.1002808  65.3682709  80.1449051   3.0452378  27.8151760  50.9921722
   2.9822357  27.2495155  50.2225685   2.5772376  28.6120243  50.7426910
  40.7508240  50.5234146   7.3368964  40.4180450  50.6782303   6.4528580
  41.6870918  50.3651733   7.2160811  78.6687851  13.3022766  63.4069138
  79.1797180  13.4288731  64.2063828  78.1705399  12.5005131  63.5655289
  67.4752960   5.3765688  37.7846222  67.1514664   4.8017344  38.4781151
  67.1246643   6.2394123  38.0055199  66.1490097  18.8732986  69.2811203
  66.2974396  19.4104671  70.0593567  66.3893890  17.9873238  69.5522232
  15.3023939  46.1918373  79.0205536  14.7304153  45.8634644  78.3268356
  15.5070696  47.0891418  78.7575378  35.5800018  62.9004021  48.7823486
  35.6394386  63.0566788  47.8398666  36.1186523  62.1231766  48.9306946
  72.9794388  19.8062668  45.7020416  73.8474350  19.7514000  46.1017990
  72.3980484  20.0456676  46.4237747  45.9434662  54.0958061  61.7708855
  45.8121490  54.0242043  60.8254433  45.4688110  54.8890648  62.0192299
  14.7100210   1.8954867  36.2977219  14.0315800   2.2929997  36.8435555
  15.4497719   2.5000522  36.3568878  42.7674866  27.5080490  20.7971497
  43.3547974  28.1989155  21.1037483  41.9656525  27.9680634  20.5487957
  66.9787369  49.1741104  78.6365967  67.4075089  49.5438766  77.8648071
  66.3532257  48.5416336  78.2831192  79.2610855  18.2588558  56.9725418
  78.8036270  17.9581699  57.7577515  79.7702713  19.0142155  57.2664719
  14.9182634   2.3323119  82.2860489  15.4959087   1.7221985  81.8274460
  15.2372131   3.1990709  82.0345917  44.5826721  50.3943024  56.8147926
  43.7909393  49.8563957  56.8079376  44.7537804  50.5568390  57.7424431
  32.9744835  51.3369217  31.7868423  32.6413116  50.8386612  31.0405407
  33.5995102  50.7473068  32.2086563  43.7543030  45.7533073  24.5255737
  43.5271263  46.6388512  24.2419567  43.0350266  45.4943924  25.1016312
   3.8771818  48.0284271  71.0492249   4.6353841  47.8106308  70.5070724
   3.7424762  48.9654121  70.9073029  43.8269005  55.8320045  42.7690163
  43.2789116  56.2587166  42.1103363  44.3295670  56.5458870  43.1613579
  24.2501850  69.2743530  63.5112610  23.9266644  70.0237045  63.0112267
  25.2025108  69.3246078  63.4289093  41.9067841   8.0410700  84.6319275
  41.5742378   8.3887072  85.4594498  42.0896072   8.8171635  84.1023254
  51.1152458  68.8948822  80.5148087  51.4415512  68.5360794  79.6895676
  50.6740875  69.7068405  80.2651520  20.6386356  59.8481407  22.9570446
  20.4776344  59.3296356  22.1687183  20.7868443  59.1989059  23.6446190
  65.4463959  34.6403618  80.2877121  65.3520508  35.1359253  81.1011963
  65.7871857  35.2758789  79.6582565  10.1155262  34.7787514  42.6124229
   9.8820839  33.9635887  42.1683006   9.9025879  34.6199532  43.5320282
  53.1155396  56.4161491  72.3218079  53.0081482  55.8022995  71.5952530
  52.3127899  56.3229141  72.8347778  33.5129585   9.6222353  25.5850582
  33.4607353   9.8167648  24.6492882  33.6388206   8.6742277  25.6259575
  68.6489334  56.1534195   2.6846905  68.9048996  57.0756721   2.6717656
  67.7202606  56.1658211   2.9163022  46.7760162  50.0587959  20.1769352
  46.4583092  50.8200760  20.6624737  46.8959160  50.3781090  19.2825661
  79.1080322  57.0549545  79.2769012  78.3877640  57.6843796  79.2412262
  78.6999054  56.2123871  79.0775452  71.8845367  61.8529549  65.1092072
  72.6503601  62.2080917  64.6579590  71.4164963  61.3602104  64.4351349
  41.4084358  47.5232353  13.2488585  42.2222290  47.6678696  13.7316170
  41.6158638  47.7748451  12.3489151  40.2822037  47.5714455  18.0102463
  39.6404037  47.4975433  17.3039474  40.6756821  48.4352722  17.8869057
   5.7208114  43.8845444  57.2594223   5.6479063  44.1154747  58.1854820
   6.2142606  44.6067390  56.8706131   6.4048619   9.1099873  84.6952057
   6.0771546   8.2549782  84.4162750   6.5310688   9.5956659  83.8800812
   4.5090966  47.2814178  24.0935555   3.5682194  47.4383698  24.1732254
   4.6567316  46.4641571  24.5694981  17.7441044  41.3666954  79.4307327
  18.6803856  41.2759399  79.2536087  17.3885307  41.7700577  78.6388397
  77.4696808  28.3117714  32.5333176  76.5615845  28.5351143  32.3290901
  77.8628159  29.1387482  32.8122253  54.2811928  68.4576721  19.0805874
  53.6496201  69.0731964  19.4527054  54.6719398  68.0266266  19.8406849
  63.6050682  36.7638779  87.3370743  63.8246803  35.8535805  87.1386871
  62.7729111  36.7124901  87.8072891  20.0988369   3.8957868  83.4152298
  19.4381542   3.9563465  84.1052017  20.6086769   4.7014127  83.5004425
   7.8044257  54.9710274  39.6069908   7.9767847  55.4594498  38.8020248
   7.9099302  54.0529938  39.3573608  49.1410408  12.5009699  65.8988647
  49.1735916  11.6099806  66.2471619  48.2739754  12.8229570  66.1453476
  59.6956635   8.6792698  13.1489611  59.9104652   8.1332722  13.9052534
  60.4085007   8.5219774  12.5298071  32.0567284  60.4339828  79.5265121
  32.1076126  60.9464760  78.7196655  32.4208031  59.5804901  79.2914963
   9.0757484  49.6875572  54.4548569   9.6286507  49.2727699  55.1170387
   8.6647511  50.4215393  54.9115677  74.8456955  69.5426254  24.7541447
  74.7102280  69.9879608  25.5905418  75.7371902  69.1982498  24.8077908
  12.4646769   7.5984364  22.2467270  12.1543550   8.5035963  22.2715912
  12.5385933   7.3452196  23.1668625  38.0739632  57.9099007  69.4201355
  37.7374306  58.2628441  68.5964813  38.8884354  58.3895264  69.5712280
  85.5772476  38.2416840  87.0753479  85.1655960  37.6292610  86.4656677
  86.3568115  38.5511894  86.6141434  15.9784956  20.8546257  62.9160080
  16.4446239  21.6906414  62.9216919  15.6228247  20.7847252  62.0300941
  53.1250687  51.0495682  28.0813522  52.9029884  51.7685966  27.4898205
  54.0689545  51.1334648  28.2165394   2.8188381  24.3008041  14.2490606
   2.4614377  25.1849232  14.3316975   2.4811807  23.8335743  15.0132046
  65.1025925   7.9573059  64.7359619  65.1920013   7.7312665  63.8101425
  64.1912766   8.2353678  64.8276978  80.1480255  39.5886421  63.2842064
  80.9739761  39.9213257  63.6354294  79.4817276  40.1745300  63.6433945
  51.5224266  18.7381344  34.8927193  50.7292442  19.0354347  35.3384857
  52.0276794  19.5374680  34.7443352  50.4343834  51.6544647  85.6756973
  51.1763306  52.2580986  85.6386566  50.0397148  51.7063484  84.8051910
  62.9925499  69.2741165   1.9074382  63.5022316  68.4639053   1.9044563
  63.2687950  69.7337799   1.1145761  73.6011429  47.2556458  37.3978310
  74.0090179  47.0130234  36.5665627  72.8970108  46.6177864  37.5143089
  17.0612583   2.4322379  71.7290649  17.8432560   2.6896245  72.2173920
  17.3986263   1.9562583  70.9702072   9.8511543   6.1608887  22.5095806
  10.6855831   5.6923475  22.5303268   9.3035431   5.7031937  23.1474438
  27.8699856  38.1871376  57.6486893  27.9343204  37.7097588  58.4758568
  27.2084694  37.7100754  57.1476517  54.0994568  14.7695894  34.2862663
  54.6689720  14.3469620  34.9291267  53.6237755  15.4324589  34.7868271
  12.9002199  37.6099281  12.9273701  11.9713345  37.8398895  12.9501982
  12.9096584  36.6679649  12.7575226  81.3705673  65.8144531  35.0790977
  81.4669342  66.5583191  34.4844398  82.2217255  65.7411194  35.5108261
  25.8828068  36.8492546   3.8169544  25.1928577  36.1867905   3.8536170
  25.5188084  37.6003609   4.2855458   0.0843561  16.6160374  87.0419540
   0.4831356  16.2601795  86.2478714   0.5992415  17.3986530  87.2385178
  32.5330772   2.7450697  86.4555359  32.7465286   2.2973773  87.2742233
  32.8410988   3.6419673  86.5856552  62.1060486  22.9304314  24.0785961
  61.4972229  22.2294197  23.8459034  62.9586716  22.6171837  23.7767086
  18.0171452  49.3829803  13.6911850  17.5334301  48.7318344  13.1829882
  17.6366253  49.3333435  14.5680962  43.8313828  48.5817871  26.6690311
  44.2627144  49.2770195  26.1722012  43.0568810  49.0007439  27.0443363
  46.9051933  27.5382862   1.6502538  46.9651108  26.8057671   1.0370187
  47.2530861  28.2862263   1.1646720  79.5429001  58.9781418  42.6670876
  78.5954819  58.9956741  42.5317345  79.6486206  58.9576569  43.6182098
  82.2835159  38.1167641  39.8958549  82.9141617  37.4373207  40.1343269
  82.4624863  38.8338127  40.5041656  84.5033493  39.2389603   7.3943071
  83.9800034  38.9023438   6.6669641  84.1719360  40.1254311   7.5377092
  59.7489853  51.7389603  37.4724884  59.8408585  52.0833817  36.5841370
  60.6281586  51.8016586  37.8457909  49.5156097  42.5967636  47.5228462
  48.6103096  42.3683586  47.3119125  49.8220215  41.8768196  48.0742264
  44.6685677  15.5101423  25.3714008  44.5200577  16.4551525  25.3377285
  44.7390022  15.3118820  26.3051910   3.8596585  43.4990921  54.0621071
   3.4479635  44.3506203  53.9149895   4.1692920  43.5359116  54.9670944
  46.1642227  28.9284267  57.7819176  45.4811821  29.0276985  58.4451141
  46.6836281  29.7294540  57.8512726  23.3607998  20.3573017  52.2144890
  22.5822563  20.3794270  52.7709160  23.7202358  19.4791164  52.3403015
  64.6421967   6.4313397  59.0376091  64.9096909   7.0222230  58.3336678
  65.3740311   6.4468236  59.6543808   3.8327918  59.3897057   4.3493042
   4.2243352  59.1564293   5.1910329   4.5183797  59.2059441   3.7070949
  28.7865849  47.5652466   2.7278533  28.8752098  47.0071602   1.9552492
  29.5717373  47.3850136   3.2448456  32.8403015  15.7009411  76.0924454
  32.5982475  15.9214325  76.9919052  32.8370705  14.7439814  76.0712814
  83.5527344   9.5436983  17.8338947  84.3639603  10.0169611  18.0187149
  83.7715607   8.6244736  17.9867802  70.1052551  49.3479309  15.7867851
  70.8702545  48.8282051  16.0335464  70.4106293  50.2544899  15.8203783
  71.0315628  66.7930222  40.4182549  71.9423904  66.5269394  40.2924385
  71.0557785  67.7495728  40.3927994  40.6045952  51.2612495  69.8248444
  40.4843216  52.1434250  69.4733810  39.9314041  50.7368279  69.3912277
  71.5095749   4.4820690  53.5414429  72.2772751   4.3375435  54.0946007
  71.2365341   5.3777709  53.7399406  50.2476883  31.0947056  81.9815445
  49.8083038  31.5673466  81.2745895  50.4775772  30.2486744  81.5973358
  20.7238369  49.3017197  71.1332245  21.0001621  48.4074059  71.3334274
  21.2385445  49.5448341  70.3636780   1.9606441  38.6371002  66.3250351
   1.3657566  38.9983597  66.9821777   1.9148353  39.2546959  65.5951691
  19.6140747   3.2605476  32.7395630  20.0254250   3.9675698  33.2366943
  19.2674541   3.6884582  31.9566326   1.7265120  10.3678265  89.0383453
   1.7227958   9.4431667  88.7909164   0.8324608  10.6647339  88.8687897
  19.4264908  13.6355810  75.7742157  20.1181602  13.7149677  75.1173096
  19.2857952  12.6927767  75.8611374  55.5390167  10.6596041  45.0489426
  54.7109947  10.8624754  44.6136742  55.8904037  11.5124502  45.3046989
  39.0121384  44.3635254  76.9853668  38.7376022  44.8601303  77.7562408
  38.9782639  44.9964943  76.2681274  28.1799622   5.1224871  13.5483084
  27.8550587   5.7683983  14.1755781  28.5385704   4.4205461  14.0913658
  11.7505007  29.7869453  26.5345001  11.4541054  29.0179253  26.0476875
  12.0433140  29.4390202  27.3767834  42.5083351  20.8525620  53.5877533
  42.6490021  20.3798542  52.7673912  42.0045700  20.2459335  54.1303864
  50.3089714  70.0963745  15.0706758  50.6425591  70.2657928  15.9517260
  50.6087532  69.2103577  14.8673372  30.6398716  47.2739296  49.3490829
  29.8597469  47.3331261  48.7975998  30.3782082  47.6747932  50.1779785
  84.0504990   1.0392590  88.6989822  84.1098557   0.1335082  88.3951263
  83.6144943   0.9786658  89.5489578  33.6381264   2.7771978  42.0320702
  32.8934593   3.3628931  41.8954697  33.6221733   2.5841026  42.9694557
   6.1352310  66.8823929  29.2066822   6.8742080  67.4883118  29.1518879
   6.5372171  66.0136948  29.2058582  40.5437126  54.1717758  69.1574783
  40.7012901  54.2740936  68.2189026  39.7523193  54.6836128  69.3246689
  16.3695393   1.6079205  85.9059372  16.2229404   0.6761873  86.0690689
  16.7985516   1.9255917  86.7004547  11.5112162  67.4449387  62.1887779
  12.2830334  67.3522034  61.6302719  11.7160492  68.1857147  62.7593269
  14.7226257  46.8691216  66.3049316  14.4768124  46.3019714  67.0357895
  15.5213070  47.3067970  66.5995102  49.4265137  63.9612503  45.3544121
  49.6237068  63.7976608  46.2766838  49.5259247  63.1075058  44.9331398
  50.1514664   0.5347042  47.4633141  49.8924217  -0.2136782  48.0009499
  50.9493713   0.8627598  47.8779869  60.6961327  25.3953152  60.3991623
  61.1575928  25.5700531  61.2193794  59.9530907  24.8484344  60.6541939
  83.5397491  34.7562943  45.9845161  83.7911682  33.9332237  45.5654984
  83.0623322  34.4891357  46.7699661  65.6550293  49.5874214  23.5085526
  65.9499359  50.3524017  24.0025826  66.4352417  49.0387115  23.4283981
  64.1875992  58.4524879  19.6805534  63.5371399  58.6340523  19.0021954
  64.5641098  59.3080940  19.8864937  73.4314346   1.2092063  87.5463333
  73.6904221   0.4589024  87.0113525  74.1994247   1.3944944  88.0867920
  72.5687714  23.6331425  53.8879280  72.0159378  24.3367615  53.5480385
  71.9683762  22.8994770  54.0201950  28.6487446  49.7706413  81.1325836
  27.9140091  49.7779083  81.7460480  28.6858826  50.6647186  80.7927551
  75.6635742  23.9884205  72.6717682  75.2649994  23.3066463  72.1308899
  75.2770462  23.8630924  73.5384445   0.6861860  60.7556572  82.8655472
   0.0371727  61.3025703  82.4229431   0.9261459  61.2536354  83.6469955
  25.6096954  64.0237350  33.1736565  26.0855389  63.2471771  33.4682083
  25.4102840  63.8479805  32.2541046  53.4053993   8.3668871  71.6827316
  53.2184372   8.3609943  70.7439880  54.0811844   9.0365353  71.7881622
  45.9575157  55.0895576  21.2643814  45.6168518  55.4851036  22.0667057
  46.8843765  55.3284416  21.2544098   4.4100375  48.3680420  75.0723343
   4.5460477  49.2451553  75.4306717   5.1879234  47.8775368  75.3379135
  23.8923855   6.7519798  86.7302322  24.7691956   6.3716259  86.6776428
  23.3838921   6.1134105  87.2301331   3.5233483  66.4503021  62.3772888
   3.2501125  65.6061096  62.7363396   2.7590377  67.0159836  62.4871407
  78.3813019  10.1661348   4.9588408  79.0627670  10.7282648   4.5902610
  77.8167725   9.9550734   4.2152066  84.4333115  11.1099491  81.6533508
  84.7306519  11.9494867  82.0040665  85.2379837  10.6117668  81.5100021
  51.5073547  41.2767143  35.5976562  51.7220993  41.9093742  36.2831192
  50.5511665  41.2856102  35.5545425  55.1711006  60.5417557  79.3857117
  55.0190544  61.3355827  78.8729172  56.0902824  60.5977097  79.6468735
  47.1034698   3.6849504  70.3945465  46.6188812   3.2050564  69.7229004
  47.9045296   3.1765254  70.5211945   0.1420781  21.8537216   6.6356502
   0.6391514  22.5697975   7.0311050   0.1924714  21.1446018   7.2766190
  57.9157295  38.2292404  39.7743912  56.9833336  38.0692329  39.6285667
  57.9913139  38.3602371  40.7195663  33.8521576  21.1003723  11.0362320
  33.4536705  21.7793102  10.4917297  33.7668343  21.4300594  11.9308043
  15.8803377  16.7103233  18.6807766  16.0334377  17.3829346  19.3443909
  14.9468565  16.7794418  18.4806099  22.5239067  22.5785236  86.2090149
  23.2825909  23.1458683  86.0720825  22.6251888  22.2550468  87.1041870
  80.8330002   5.8363276  40.2246437  80.9483948   6.1351905  39.3226471
  79.8912735   5.6870675  40.3088837  60.5654945  12.9715881   2.5002015
  60.3133926  12.9483395   3.4233143  59.7694511  12.7269487   2.0282876
  11.5776892  55.8483238  61.2107735  11.3342314  56.1815262  60.3470955
  11.4446831  56.5907478  61.8001366  75.4902573  42.0443115  -0.1903233
  74.8026428  42.6117020  -0.5388696  75.4699936  42.1961212   0.7545446
  66.0276108  48.9007912  49.0579376  65.6842194  48.2279129  48.4701042
  66.2497940  49.6318321  48.4813576  63.4374428  55.7266693  84.2408218
  64.2300949  55.2060661  84.3708725  62.8797913  55.1797638  83.6875153
   3.3238728  13.6620111  59.1606941   4.1333284  14.0601959  58.8405991
   2.6370280  14.2785254  58.9069481  15.4460659  48.5875931  72.3380203
  16.3811226  48.4990005  72.5225525  15.1082811  49.1161804  73.0610199
  69.7293472  50.2968254  45.9693069  69.4289398  49.3923569  45.8803139
  70.1358261  50.3300896  46.8352737  62.2374153  46.0524178  11.0834208
  62.8905830  46.6648407  11.4218597  61.3986320  46.4863281  11.2396269
  22.4715157  63.4522858  77.7934418  22.6927376  64.1721039  78.3843384
  22.7728939  62.6666374  78.2496872  71.6224365  15.1171131  25.2167206
  71.6060944  14.2027435  24.9340687  71.8515778  15.0767317  26.1452103
  32.6074638  13.4993286  28.2967949  33.4857750  13.1344547  28.1887798
  32.3731956  13.2956839  29.2022667  48.1203308  70.3773651  12.3727016
  48.0122910  70.2956161  13.3202648  48.7353745  71.1026382  12.2634535
  42.5863609  41.2327003  41.0588417  43.5409393  41.2224121  40.9888115
  42.3038521  40.4428635  40.5977783  84.3677216  36.9534607  47.6363335
  84.1996384  36.1954918  47.0764618  85.3178177  36.9593620  47.7526016
  45.9859810  62.5701828  43.3843956  46.7114868  62.2940407  43.9444084
  45.6136436  63.3299408  43.8320198  32.2425270  68.0339661  83.6866684
  31.9997826  68.4933548  82.8827591  32.4217262  68.7320099  84.3166351
  81.7005615  40.9731445  80.4719315  82.2365341  40.3376274  80.9463577
  81.3122635  40.4713745  79.7552185  56.9360962  10.0197639  83.0349274
  56.7616844   9.0983772  82.8429413  56.0835037  10.4470682  82.9528885
  54.4356270  21.9700737  60.3861732  53.6865234  21.9539051  59.7905121
  54.0695114  22.2539825  61.2237816   9.7696571  63.6569939  64.0560074
   9.2974262  64.1492233  63.3844910   9.9210014  62.7981339  63.6614342
   2.6268826   1.7510113  10.9328775   1.7375078   1.4614840  10.7293625
   2.8076608   2.4382875  10.2916269  62.1975212  24.9763355  62.7835922
  62.9312782  24.4765472  62.4257545  61.8052788  24.3936214  63.4338379
  44.9695473   7.3510327  59.2501678  44.6110916   6.4639344  59.2219315
  45.7149620   7.2892551  59.8474731   7.3953800  63.0573883   3.7543113
   8.0607624  63.2728004   3.1007860   6.6727862  63.6565285   3.5668995
  44.8997993  25.2328587  23.7950306  44.9161682  25.4449062  24.7283039
  44.7914696  26.0781746  23.3592148  78.2159271  33.1419487  44.7186928
  77.7312012  33.0441933  45.5382767  77.6447296  32.7552834  44.0550232
  59.1046257  56.5453072  15.3289280  58.1577721  56.6116905  15.4526100
  59.4099197  56.0410919  16.0831146  81.1398468  51.9702873  21.2876625
  81.1874008  51.1923370  20.7319984  81.2539139  52.7036896  20.6832256
  84.6322632  12.6725111  31.5918427  85.3391190  12.6812382  30.9464722
  85.0768814  12.7577629  32.4352150  11.4610777   5.1850152  69.8057022
  12.1409569   5.7212062  69.3976593  10.7305765   5.2134924  69.1878052
   7.7024808   4.7239408  44.1527176   8.0418606   4.6252046  43.2631645
   6.8452492   5.1340585  44.0378761   4.9833536  36.3065300  45.6195374
   5.4648213  35.9615822  44.8675842   5.5837183  36.9350281  46.0205193
  80.8426285   1.9621906  61.4931946  80.4826889   2.4816852  62.2120819
  80.0779266   1.7011440  60.9800453  27.9101944  42.8952484  63.5449409
  27.0289726  43.2514420  63.6581078  28.4832325  43.5350876  63.9673882
  36.7745705   9.4118214  15.1764374  36.3261414   8.5671797  15.2179308
  37.6171989   9.2568569  15.6032848  72.9638443  17.8067875  69.0801926
  73.2575912  18.6014595  68.6347275  73.7715683  17.3407955  69.2961960
  77.9664612  29.3592358  62.2031059  78.2219543  28.9785957  61.3628273
  78.2797699  28.7324200  62.8551559   2.5536463  54.2341423  11.9950743
   2.1372764  53.4237480  11.7015886   3.4335954  54.2008324  11.6198244
  56.1457596  43.9019585  25.7889843  56.9507904  44.2209167  26.1969299
  56.3057938  43.9819374  24.8486519  35.8340569  44.4970322  69.0303421
  35.8418427  44.5952530  69.9824600  35.5578232  43.5921288  68.8851624
  34.2831230  12.5339928  78.4429703  35.0620651  12.8642931  78.8906097
  33.7056961  12.2443562  79.1493149  66.0775681  27.9792271  43.5809631
  65.2794495  28.1911755  43.0969009  66.0043564  28.4789333  44.3940849
  43.4010239  23.3558865  50.7181969  43.0280685  23.3866444  49.8371811
  43.6040878  22.4313126  50.8601837  14.9190598  55.0309639  74.6744385
  15.4220543  55.6725616  75.1760178  14.8464947  54.2750130  75.2571106
  26.9494572  40.3145294  88.8061981  26.7647648  41.0091629  88.1740570
  26.3682308  40.5009422  89.5435257  47.2156143  10.7796183  46.2097893
  47.1220207  10.0440617  46.8151207  46.3694229  10.8334255  45.7656059
  32.7500801   3.1123686   0.3634124  32.5635719   2.2063293   0.6094605
  33.6081314   3.2930176   0.7472703  12.1776018  22.9331684   1.3068873
  11.2821178  23.1727753   1.5454836  12.5288038  22.5091782   2.0899081
  52.3453026  12.7058706  34.3395767  52.6761780  12.1655960  35.0571098
  52.8742332  13.5028162  34.3762245  57.5503349   5.4973574  88.5329056
  57.7265205   5.2617531  89.4437714  56.5989532   5.5936456  88.4901352
  22.0295658  64.7049026  85.2789612  21.9522457  65.4231644  84.6509933
  21.2174740  64.2086792  85.1764603  72.1280289  58.8846588  79.7651062
  73.0149994  58.5366554  79.6734467  72.2544861  59.7992783  80.0175247
   4.2200584  20.0581112  22.3453331   4.5721207  19.4417667  21.7031460
   3.9381289  19.5077515  23.0759850  63.1819916  50.1173897  14.9474192
  62.6296310  50.5883255  14.3234377  64.0711136  50.2264214  14.6100588
  23.4084892  59.5180397  41.3733101  23.0482216  59.0986595  42.1546936
  22.6799221  60.0262756  41.0167732   8.2371721  15.0824690  74.8186035
   7.8716288  15.0593462  75.7029572   8.3152037  16.0147190  74.6159897
  19.3207893  45.9772453  48.1613274  19.8132305  45.1653137  48.0409088
  19.7582550  46.4167976  48.8904686  36.5093117  25.4500732  76.1642456
  35.6146660  25.3796711  75.8312454  36.7737770  26.3454075  75.9529037
  47.3031006  22.3137741  10.5946531  47.1169510  22.4504261   9.6657248
  47.5906143  21.4024391  10.6497746  55.0478134  15.6305485  85.2850876
  55.4088287  14.7582674  85.4432831  55.8059998  16.1639023  85.0465012
  11.3980951  40.3219070  60.3190346  10.5093718  40.0446091  60.5415382
  11.4972801  40.0899010  59.3956871  66.2166138  22.3112583  80.8270950
  67.0860596  22.5295639  81.1627197  66.2041245  21.3545628  80.7986450
  74.9970551  15.2625961  61.1729851  75.2851105  15.1658134  60.2653046
  75.7845001  15.5300274  61.6469498  54.5071678   1.7446483  72.6546173
  55.2355919   1.1380407  72.7874908  54.8890381   2.6114242  72.7928314
  67.7376404  36.2322845  19.5809765  67.2428665  35.4313126  19.7538147
  67.2038803  36.7114563  18.9471569  44.7691422  41.1690483  38.5989990
  43.8292503  41.2904587  38.4644890  45.1265259  41.0697746  37.7165871
  17.4551334  21.8274975   0.7988151  17.7847729  22.4051723   1.4871923
  16.5029697  21.8670483   0.8885365  36.5174065  20.4787388   5.9675832
  35.8176575  20.9585590   6.4107037  36.4614754  20.7621403   5.0550113
  73.4967804  46.9083252  55.0480003  73.5745621  46.4486504  55.8839912
  72.6904221  46.5671539  54.6611938  41.4907036  41.6865387  82.7382050
  40.9836884  40.8817596  82.6309814  42.0020561  41.5431519  83.5345688
  71.0585251  29.8217564  48.0526161  71.9247437  29.5194836  48.3256149
  70.5882111  29.9729099  48.8724861  19.6287422  45.7506905  15.8123379
  18.7096901  46.0094337  15.8803349  19.7674694  45.6032486  14.8767910
  47.5958862  50.3504906  69.6397552  48.4148216  50.3210945  69.1450729
  47.6956139  49.6729965  70.3085556  46.1808090  41.1940651  25.2081032
  45.9199524  42.0863571  25.4361401  46.7128563  41.2944031  24.4187450
  28.5474720  28.9859123  79.5840302  29.0584164  29.7853699  79.4573975
  28.3500042  28.9736862  80.5205536  13.5207033  66.0033951  78.8687820
  13.6307182  66.2644806  79.7830887  13.9707918  65.1610718  78.8044052
  20.5515385  59.2121239  76.9301605  20.4759712  58.3789673  77.3953171
  21.4417210  59.2101097  76.5783005  48.5041771  32.6991234   3.7041509
  48.7714119  31.8015518   3.9020996  49.2989998  33.1185074   3.3745947
  14.3951464  11.8957148   1.5403239  13.7699852  12.1415701   2.2222044
  13.9387884  11.2300119   1.0257294  16.6671371  50.1743584  86.9381256
  16.8504143  50.5859833  86.0936050  15.9392767  49.5784264  86.7611694
  10.3768349  54.8866310  38.0799866  11.2282400  54.6478806  37.7134628
   9.7563505  54.7253761  37.3691940  40.5872078  68.5090179  85.9784775
  40.5108147  68.7108841  86.9110260  40.9067116  69.3201447  85.5832291
  50.7928467   9.2036314  88.2362061  50.2029572   9.6996880  88.8038254
  51.1736374   8.5383396  88.8094559  41.5600510  15.9447947  15.2265425
  41.8891754  15.1037788  15.5437164  40.9665108  15.7154369  14.5114651
  29.3816433  14.7296944  79.7166519  29.4174328  15.3592176  80.4368286
  28.9698086  15.2103634  78.9986115  21.4248009  16.5145836  82.8844070
  21.4377460  17.3859138  82.4883728  22.3055038  16.1705780  82.7352371
  12.5867863  52.9791260  88.1452484  12.1223907  52.6587486  88.9185028
  12.4421625  52.3040733  87.4822083  57.4820595  61.5184937  83.8003235
  56.5866737  61.1909561  83.7152557  57.4275131  62.1912842  84.4790039
  44.6871262  39.4537201  12.9412823  45.2570000  38.8765106  13.4495230
  44.9358978  40.3368187  13.2141905  21.8562298  57.3626251  24.1548634
  22.6331081  57.0225677  23.7109585  21.3514328  56.5826988  24.3853512
  41.7616844  55.3129311  36.4549484  42.2574615  55.2159882  35.6419067
  41.2630196  56.1213379  36.3364601  47.8281059  45.1719513  68.2545319
  46.9884644  45.4190445  68.6420593  47.5991096  44.5521469  67.5619736
  73.7321167   5.9666729  35.4183197  73.2380829   6.5801969  35.9621468
  74.4088745   6.5034881  35.0059319  26.7612362  38.3093109   7.0267596
  25.8041306  38.3207283   7.0197768  26.9925785  37.4333305   6.7179456
  44.5129166  69.0624619  68.8107376  43.9037018  69.7685928  69.0262833
  45.0380936  69.4108047  68.0902634  54.8342667  12.4742651   8.0625820
  54.1622505  12.3493032   8.7326651  55.1384010  11.5894613   7.8604503
  24.8789005   3.6266146  35.9788437  24.7639904   4.5337901  36.2617912
  25.8008060   3.4364920  36.1525497  82.0050201  42.8741493  76.1624527
  81.6319885  43.6188889  76.6340866  82.8854828  42.7775154  76.5253220
  48.3044357  38.5063972  44.7202911  49.0001297  38.3150711  44.0912933
  48.2130699  37.7006187  45.2288208  52.2265320   2.4444561  83.0785370
  51.7481689   2.2445600  83.8831711  52.5922928   1.6041335  82.8022995
  67.8653793  22.1318321  71.5719681  68.0122147  21.1984215  71.4189606
  67.4929733  22.1744862  72.4527283  18.9309464  27.4964771  88.7093048
  18.4138489  26.7021980  88.8433304  18.7747955  27.7324772  87.7948914
  84.4195633  21.5118370   5.4704838  84.2287598  20.7227936   5.9776678
  85.3304977  21.7172909   5.6807885  58.7507324   8.8297987  54.0890732
  59.2298546   8.1104355  54.5004005  59.4167442   9.3117304  53.5987663
   5.5090089  14.6269379  57.9661636   5.8918023  15.4571972  57.6826668
   6.0871105  13.9586296  57.5982018  79.2852783  -0.1364263  78.6487732
  79.2275314   0.7901468  78.4156189  80.2226410  -0.2987955  78.7546616
  49.1099014  63.2695808  19.2408733  49.9377708  62.8359909  19.4479103
  48.4500847  62.5821838  19.3323269  51.3374214  10.1400509  77.5552979
  50.7736206  10.7951050  77.1438828  52.1781845  10.5837841  77.6668854
  56.4660187  19.7282467  71.5452652  55.8757858  18.9915390  71.7037506
  57.0438843  19.4257660  70.8446884   6.0119681  44.8675385  74.4779358
   5.3615780  44.8133888  73.7777252   6.1162815  43.9646873  74.7782822
  61.2365990  40.3862686   2.3550329  60.6168137  39.7552414   2.7209649
  61.0565834  40.3812180   1.4149257  13.7958736  45.4857674  62.7408638
  14.1727991  45.1228218  61.9393463  14.1364555  44.9275093  63.4398499
  81.4035568  46.8161964   1.1391572  80.7881088  47.4999275   0.8746490
  82.2671127  47.1919632   0.9679464  29.8043365  17.7272701  10.2093563
  30.0862274  18.2686577   9.4720173  30.0184727  18.2472572  10.9839487
  62.1569405  33.1702652  86.6039505  61.3778381  33.0285263  86.0662308
  62.2154007  32.3876076  87.1519165  73.6094284  18.2855606  58.6040955
  74.1696472  17.5112362  58.6571503  74.1368942  18.9310093  58.1335487
  51.7927704  46.9160652  70.2822418  52.6388283  46.7066002  70.6779022
  51.5047455  46.0947380  69.8838806   5.9964199  27.9119606   2.1454537
   6.3317499  27.3671207   1.4334599   5.2213154  27.4459743   2.4589856
  62.6218452  66.8941879  29.4770050  62.9082794  66.0207443  29.7439957
  63.1572914  67.0978546  28.7101593  46.2931175  65.8440704  35.3912659
  45.4779510  65.4493942  35.7010498  46.9436836  65.1469345  35.4749222
  22.0782032  54.9160347  20.9877720  21.8687153  55.2633171  20.1207390
  22.8406029  54.3555374  20.8434830  65.3200607  62.5310364   4.8668165
  64.8735962  63.0177307   5.5596557  66.1596375  62.9787560   4.7624388
  68.9778824   7.8997688  70.5832901  69.2645569   7.2507915  69.9407272
  69.3490067   7.5965686  71.4118805  42.8159142  57.1812401  24.1731815
  42.2535172  57.4098320  24.9132404  42.3582115  57.5294571  23.4080124
  49.2809334  24.1995182  89.2608719  49.9829178  23.8410950  89.8039932
  49.1921196  23.5746841  88.5411987  70.7653427  42.3716164  24.6771374
  70.3143311  42.0330086  25.4505501  70.0643463  42.5512886  24.0505962
  75.1023865  62.1136436  23.5709553  75.0727768  61.6325226  22.7439861
  75.5922241  62.9103508  23.3671303   8.7068024  47.6077919  48.1366844
   8.8778486  48.4002838  47.6278305   7.7798686  47.6670952  48.3680038
  62.8629417  43.4205818  12.0353527  62.4520607  42.8337173  12.6701727
  62.1469231  43.9727325  11.7212143   9.6677656  40.5302391  85.4599533
  10.2721701  39.7908020  85.5244751   8.9626570  40.3172798  86.0712662
   9.0379057  45.6824112   9.8460779   8.6355639  46.4908218   9.5285482
   8.4106903  45.3359375  10.4807329  72.3794479  25.2122574  71.9266968
  72.7584229  25.1822834  72.8051682  72.1483765  24.3034897  71.7343979
  83.0162659  46.3956299  18.8678951  82.7428665  47.2246170  18.4751263
  82.2902603  45.7968140  18.6930847  24.3132706   3.8310337  65.4475784
  23.8590889   4.5725131  65.8477783  24.8415890   3.4631336  66.1559296
  36.1173477  21.3702946  74.6011353  35.7859917  21.0450153  73.7640991
  35.7090797  20.8045635  75.2565002   8.4851446   7.6612797  27.7071648
   8.1367025   6.7776146  27.5890274   7.8348479   8.1042738  28.2522354
  74.3542709  40.2002907  76.6823120  73.6144485  40.1830444  76.0751953
  74.3074951  41.0639305  77.0923996  55.3602409   6.5874443  33.4518356
  54.8139191   7.2803278  33.8228836  55.7867622   6.1871295  34.2095032
  45.2708664  40.5157051  78.6080399  44.7430573  39.7771149  78.3045120
  44.9055328  40.7349358  79.4651871  16.4707146  20.9086132  76.4098816
  15.8844042  20.9413681  77.1657944  16.3223076  21.7379417  75.9555435
  68.6793594  66.1781998  58.0031319  69.4761429  65.6479416  58.0174103
  68.1065979  65.7330780  57.3786011  54.0407639  59.4931374  24.6891060
  53.3145676  59.7195358  24.1080589  54.6532707  59.0136185  24.1313190
  25.2250824   4.1130424   8.7325678  24.9432850   3.2526591   8.4218235
  25.7989922   3.9234612   9.4748068  59.1084709  39.3059578  37.6561737
  58.7273903  38.8966217  38.4329948  59.0822792  38.6215134  36.9875336
  22.4775276  47.9383507  59.4060059  22.2193565  48.7445564  58.9592323
  23.0173588  48.2332649  60.1393814  11.2214642  46.7848015  76.1794205
  10.9257641  45.9249573  76.4785309  10.5099478  47.3790550  76.4178314
  32.8925056  71.0646057  51.2541733  33.1768303  70.5577621  50.4935837
  32.0640755  70.6617966  51.5143394  37.3725853   3.1505823  42.9602280
  37.3854713   2.6871588  42.1227913  38.2465172   3.5337512  43.0354042
  67.0663452  30.1047287  31.6773243  66.5303497  30.0013046  30.8910408
  67.9284058  29.7741489  31.4247284  30.7061710  52.4218292  57.4219818
  31.1811848  53.2402802  57.5659561  30.0053196  52.6555367  56.8133583
  30.4885788   3.6813600  17.3824749  30.0205765   4.1822000  18.0505810
  30.6901989   2.8469884  17.8060379  19.6668015  22.9051914  52.5113182
  20.1413269  22.3871880  51.8611412  19.6347942  23.7862663  52.1386070
  25.8571625  35.6907845  74.6997757  25.1732788  35.1652565  74.2846146
  25.8991241  35.3628082  75.5980530  44.7750359  71.3832169  85.3377151
  44.1654739  71.6942520  84.6684418  44.6722183  70.4315720  85.3316498
  75.1444092   5.4920325  61.3644180  75.9548111   5.7502694  61.8034935
  75.4184418   5.2468858  60.4806557  49.8149033  65.1284866  15.0818777
  49.3743744  65.9026489  14.7313938  50.2693634  64.7501755  14.3291626
  55.2032356   6.6137428  27.4807014  55.8346214   6.7966323  28.1765003
  54.5085373   6.1164150  27.9123173  79.7326736  52.6157341  86.3455658
  78.9311295  52.6629028  86.8666534  80.1768112  51.8282852  86.6600494
  49.6725578   6.8819609   9.1173754  49.3739853   6.6345959   9.9925318
  49.9652290   7.7884479   9.2114792  40.0549469  61.1063614  55.5292397
  39.8858147  60.1944847  55.2923698  39.5236511  61.2530365  56.3118286
  11.7046833  63.2930679  26.1097260  11.2727337  64.1021881  25.8359051
  12.0248842  63.4793510  26.9923363  51.2405853  31.4729748  18.1647701
  50.8379021  32.3282166  18.3152390  51.8500099  31.6191463  17.4412613
  58.6985931  18.5434971  45.9627266  58.8372612  19.4033661  46.3597488
  59.5604477  18.2906990  45.6317673  84.3842163  19.3379669  56.7214241
  84.9751282  18.6610756  56.3914680  83.8155060  18.8788910  57.3395233
   6.7875118  65.4423141  77.8699722   6.8912148  64.8820190  77.1008530
   6.2907534  66.1961670  77.5519028  42.6449318  52.0466652   9.6411600
  43.0716820  51.3991165   9.0800962  42.8872299  52.8906212   9.2600260
  85.7238312   2.7791209  52.4625626  85.8776245   1.8966244  52.7998734
  85.1534653   3.1882527  53.1133537  14.0834322   3.1805978  18.4858208
  13.2058458   3.5518868  18.5764790  14.0609350   2.7139404  17.6503830
   8.7482271  42.4325714  69.8049393   8.2208261  42.7059059  69.0543594
   9.5131941  43.0074997  69.7822418  20.7336063   2.1509421  28.8936806
  21.6635628   2.1529379  28.6669483  20.6935692   1.6992313  29.7366428
  65.2112350  37.9535484  14.0007191  64.9610901  38.1532173  13.0986137
  64.5712204  37.3024178  14.2882023  40.6925049  43.7741127   8.5326624
  40.6668739  43.0436440   9.1507177  40.7875786  44.5509377   9.0837812
  63.1310120  53.6252632  52.3201180  63.0499458  52.9865417  51.6118126
  63.4976997  54.4033508  51.9001770  36.9438972  30.6376801  10.2047625
  37.0351715  30.9898281  11.0901394  36.9401436  31.4098415   9.6390905
  17.2507324  64.8551254  39.8058891  16.5662003  65.4141312  39.4382477
  17.4319706  64.2145767  39.1180763  61.7405624  30.8239441  66.8693314
  61.5914154  30.4125080  67.7206345  61.9495735  31.7347107  67.0768204
  65.4580002  65.2166672  66.1618271  65.1738281  64.6007767  65.4864349
  66.3584290  65.4360428  65.9223785  68.6850739  54.5911331  82.0039520
  69.6111298  54.5275917  82.2376404  68.5698471  53.9478111  81.3046036
  80.1444092  20.9654484  50.5166779  80.2922440  20.9199142  51.4612961
  80.9334183  21.3825035  50.1705971  57.1517982  60.6631088  45.1407623
  57.8383942  61.3139496  44.9950790  56.3740768  61.0389824  44.7283249
  86.1261902   9.1719160  74.5229340  85.8760681   9.1808128  73.5990372
  86.8014755   9.8465004  74.5947571  84.8800507  66.9472809  40.7034454
  85.1177139  66.8595352  39.7803764  84.2060471  67.6268692  40.7136803
  67.4084854  58.1279335   5.4424052  67.2224731  58.2131500   4.5073285
  68.3543320  58.2577820   5.5112600  60.5958252  64.5424271  45.6627274
  61.0783272  63.7180557  45.7246628  59.6943741  64.3096161  45.8850327
  29.9320908  62.0807343  87.9792099  30.2108879  61.4704437  88.6618881
  30.3009624  61.7220230  87.1720581  82.6134109   4.0326943  28.8554096
  82.4841385   3.3630414  29.5270386  83.0961151   3.5849881  28.1605797
  55.3341980  36.6389771  72.5399933  55.1225281  36.4023018  73.4429932
  55.6297646  35.8206787  72.1409149   4.2487059  56.0049667  51.6726074
   4.2407298  55.1413231  52.0852699   4.3064203  55.8218231  50.7348671
  83.6708755  59.3936577  68.3972855  84.1062546  58.9002304  67.7021561
  83.4373093  58.7332268  69.0495987  61.4918022   0.4093521  60.4993248
  61.3959122  -0.2325557  59.7957687  61.2358589   1.2412745  60.1010437
   4.6349030  65.2868118  34.8201485   5.5280533  65.5934601  34.6636887
   4.4083557  64.7959824  34.0302162  32.3742523  61.2059212  33.1312065
  32.9037399  61.5982056  33.8254585  32.7062187  60.3115273  33.0531731
  38.4049530   8.5192280   1.0852648  38.1731720   7.6182485   1.3105270
  38.2935066   8.5649414   0.1356749  58.9345512   0.6706817  63.6229591
  58.4913330   0.7629053  62.7795830  58.2242470   0.6217489  64.2627258
  60.9362297  61.8401833  18.8195057  60.0159874  61.9943657  18.6059303
  61.3906860  62.6182213  18.4964657  54.9171982  12.8882141  50.6929398
  54.1312866  13.2892675  51.0640602  55.4937668  12.7508936  51.4445724
  18.1438522  62.9252434  76.6242828  18.1536331  63.3466301  77.4836807
  19.0585155  62.9350815  76.3422775  50.0166283  43.2661018   4.1224599
  49.1485481  43.4197197   4.4953866  50.4044724  44.1383057   4.0512304
  60.9340401  48.2525864  13.4812918  61.0818520  49.0852470  13.9296856
  61.8102837  47.8867340  13.3605318  18.5477009  51.3751564  60.7151184
  18.0747013  51.7793808  61.4425163  19.0836887  52.0820656  60.3556366
  14.6091881  30.2641582   5.9373093  14.7281942  29.5027714   5.3695421
  13.6774673  30.4720001   5.8670888  59.1853905  43.8255119  15.9233074
  59.1313744  43.1621323  15.2353840  59.1905708  44.6589088  15.4525023
  43.5149307  41.4422874  55.6849976  44.1933060  40.7671013  55.6977997
  43.9514961  42.2267609  56.0170288  85.3651657   3.1858919  31.3799324
  86.0398026   2.9365165  32.0115280  85.8453827   3.6226239  30.6764469
  43.4392700  50.0521545   2.1366940  43.7375946  49.5334854   1.3895552
  42.6837730  50.5373955   1.8050271  51.5962906   8.7051325   2.5855761
  52.0409737   8.1886454   1.9134663  50.8306656   8.1817007   2.8223617
  73.0431213  35.8220863   4.3913846  73.4127502  35.6631317   3.5228579
  72.2277679  36.2940331   4.2219748  55.6006050  57.2564812  24.3764935
  56.2378349  57.5959892  25.0049095  56.0537186  56.5333710  23.9428654
  76.0489655  48.3131256  77.7830276  76.8010712  47.8538589  78.1567230
  75.6117706  47.6558571  77.2416534  48.5497971  14.4070206  17.0041332
  48.8983917  15.2206354  17.3684750  49.2934113  14.0095205  16.5510731
  27.9919605  14.3704691  83.3761215  27.8474865  15.2429848  83.0099564
  28.8639870  14.4166174  83.7681351  42.8092117  52.8296852  39.8969994
  43.5250664  52.7381859  40.5258217  42.7008553  53.7750664  39.7933311
  69.6418610  30.8248520  43.8674278  69.5227585  30.9477863  42.9256554
  69.6812744  29.8753433  43.9819336  29.3182201  29.7807007  86.1685944
  29.9822445  29.1361771  86.4133224  29.5763206  30.5779629  86.6311874
  81.3265533  34.9566689  67.0950546  81.3611679  34.0348549  67.3505707
  80.4417191  35.0765648  66.7501984   1.2573216  53.5960541  22.7675571
   1.4117064  54.2244148  23.4729347   1.3621500  52.7397957  23.1823635
  79.0423126  66.5198898  25.4292793  79.4774017  65.6822739  25.2701283
  78.8812866  66.5306854  26.3727760   1.0988981  19.0314045  14.7902393
   0.6035351  19.7661610  15.1521482   0.4321635  18.3873100  14.5518284
  83.0307541  49.3641777  80.0126190  82.2467422  49.8890877  79.8512726
  83.0764084  48.7662849  79.2665100  14.7706585  60.0697479  61.9591370
  13.9134045  60.4932594  62.0037117  15.3849287  60.7878418  61.8066788
  29.9013348  54.6696243  73.0420609  29.5272369  54.2790298  72.2523041
  30.0222969  55.5924873  72.8186264  58.3613701  27.2903156  65.6766434
  58.5588531  27.3648300  66.6102753  57.4971428  26.8799000  65.6466370
  12.3126335  11.3185005  17.4743938  11.4986696  10.9905291  17.8566647
  12.7182617  11.8282585  18.1757088  54.2942734  46.8507881   5.4946785
  54.0698090  46.4675255   6.3425937  54.4837570  47.7686310   5.6893263
  72.0448456  23.2798061  66.7379456  71.2811356  23.8444729  66.8567810
  72.7854614  23.8846416  66.6944122  57.7458191  23.8634968  82.6762314
  58.6295052  24.2191887  82.7701111  57.2655106  24.5387058  82.1970367
  10.5258722  58.1277275  72.3456802   9.9796782  57.4234810  72.6948853
  10.6852446  58.7013283  73.0952225  73.5428619  12.8237581  78.9494095
  73.1555557  13.2463961  79.7159653  73.1428146  11.9544373  78.9275055
  59.4457588  45.2509155  69.9114304  59.2824402  45.9967690  69.3341446
  60.2977219  45.4359398  70.3065948   8.9925394  34.8347206  74.3785477
   9.0665817  34.2881584  73.5962372   8.4305534  34.3329353  74.9689865
  82.7246628  54.4780273  87.6466980  83.2680054  54.1660194  86.9230499
  81.8258133  54.3597870  87.3395844  48.4906464  35.4379120  72.1458664
  48.5894318  35.5195274  71.1972809  49.3794327  35.5329857  72.4882965
  36.5548019  51.9751472  46.5956306  35.6819229  52.2967186  46.8212585
  37.1368866  52.7120094  46.7812195  61.4051971  69.7034607  33.1377831
  61.0407982  70.1754379  33.8865700  60.6402969  69.3617859  32.6747322
  56.2679787  63.8081970   2.7154198  55.4075661  63.7714729   2.2976019
  56.0808334  64.0130920   3.6315119   5.2524610  52.9202728  77.5252838
   4.5259037  53.5176125  77.7028503   5.9991674  53.4948769  77.3564987
   0.8749930  10.8784542   5.1620317   1.7536386  11.0497150   4.8230872
   0.9263930   9.9941816   5.5248694  23.1221256  56.1723557  79.3176956
  23.3916607  55.8095055  80.1614532  23.5974121  57.0004807  79.2502823
  73.3561783  48.6794395  22.5757046  73.7789383  49.2765236  23.1929588
  73.8592606  48.7752686  21.7670288  57.7616425  62.3777351  40.5926132
  57.9776688  62.1940994  39.6783676  58.4646912  62.9532166  40.8939095
  12.0294056  17.5385895  77.5938568  12.3748264  16.8948154  78.2123032
  12.2908258  18.3844795  77.9576797  79.1962280  22.6760750  80.2308197
  79.5692062  22.1368637  80.9282227  78.4267502  23.0834236  80.6285629
  13.1847897  40.6191750  85.5483017  13.1592674  39.6758423  85.7086258
  12.7762041  40.7273026  84.6894684  53.5842743  46.2392311  16.7219048
  54.1278954  47.0256233  16.6740227  52.7303696  46.5178452  16.3910732
  28.8710766  61.7165184  12.1792164  29.1406937  61.5524254  13.0828819
  29.6332531  61.4729156  11.6538792  45.3391075  20.0931950   6.0748982
  44.4781113  19.6749706   6.0761018  45.9263725  19.4313183   5.7098308
  50.2599716  12.1483431  49.3661575  49.9655838  11.5741510  48.6591415
  50.6757240  12.8853683  48.9187469   4.8399820  32.3804626  38.9679031
   5.5721641  31.9199924  39.3779106   5.2507834  33.0835419  38.4647522
   8.6934137  46.5013504  36.3741875   8.4771786  46.3130875  37.2874413
   8.5935240  45.6613083  35.9263268  48.7830009  60.5697403  22.4986248
  47.9295044  60.5963287  22.0661182  48.9747200  61.4841957  22.7065811
  77.4732361  21.0366287  50.2495003  77.3917847  21.6056194  51.0149040
  78.4154587  20.9842968  50.0891418  18.4621735  27.7568226  83.3061295
  18.9840260  28.3960190  82.8210220  17.5795116  27.8459930  82.9467010
  71.9328003  52.0204620  20.7695217  71.5451508  52.1874046  19.9104023
  72.6193237  51.3750305  20.6011829  10.0660963  38.3400879  13.0811071
   9.2828579  38.7631645  12.7292910   9.9577007  38.3874016  14.0309725
  48.9440765   0.2743657  34.4395485  49.1403694   0.2976351  35.3761139
  49.4292870   1.0144131  34.0746765  77.2222061  24.7356834  38.1918755
  77.5048294  25.5257568  37.7312851  77.9911423  24.4619560  38.6919136
  24.5705814  70.9143600  44.4035873  25.3332138  70.7029266  43.8651466
  24.1042919  71.5856018  43.9053535  64.1697845  32.8549538  28.0585823
  63.9111061  31.9465485  28.2138748  63.8261719  33.0563850  27.1881886
  13.0034008  30.4059658  29.9055977  13.9453621  30.2371941  29.8842354
  12.6349545  29.6500912  30.3629074  70.1369400  51.5026169   8.7638798
  70.9379959  50.9800644   8.8023252  70.1141052  51.8404655   7.8685756
   9.0908766  60.1896591  71.1146011   9.2098818  59.2758408  71.3734589
   9.2244654  60.1894417  70.1667709   5.8609395   3.1446292  51.9255104
   5.0328259   2.8206465  51.5712585   6.4639931   3.1232891  51.1824760
  15.2845421  18.2929020  25.1163692  14.8706455  19.0641785  25.5037346
  14.6402702  17.9650249  24.4889584  58.1018486  37.7434959  67.3212357
  58.7616806  37.0877647  67.0956955  57.5231590  37.7728729  66.5593414
   7.5623026  56.5044518  33.5632896   8.2512398  56.9546738  34.0520592
   8.0111303  56.1328773  32.8038712  65.4874420  46.3779106  25.1167431
  65.0519943  46.6620560  25.9204082  66.4138336  46.5664215  25.2667637
  61.9840279  39.6971436  51.5817146  61.9591942  40.4300575  52.1968956
  61.2840958  39.8854027  50.9565048  55.2696648   7.1293087  57.3189240
  54.6511230   6.7948213  56.6694984  55.1346588   8.0769176  57.3124657
  71.4679184  33.8402596  76.0543900  71.9961929  33.2706604  76.6135864
  71.2457581  34.5851250  76.6130066  22.7236404   0.1664720  85.3039169
  23.2620659  -0.0857091  84.5537643  21.9461746   0.5684527  84.9163742
  68.4069595  14.0571432  25.0395889  68.2388153  13.9079590  24.1091576
  68.1555252  13.2363482  25.4630356  20.5550499  63.4853897   6.3347850
  19.9839153  64.1913681   6.6374855  20.3538742  63.3973694   5.4031129
  36.2963867  52.6707191   2.3307023  36.5521774  53.1408119   1.5370917
  36.9515038  52.9242516   2.9809153  20.6908550  63.0256310  32.7861137
  21.4717102  62.9245453  33.3304253  20.4021111  62.1296387  32.6127472
  78.5878296  17.2181931  51.0366402  78.0075226  17.5153942  50.3358231
  79.2841873  16.7414246  50.5849724  79.1842346   9.3348398  44.3506088
  78.3380737   9.5365696  44.7500534  79.4547348  10.1540604  43.9359589
   4.7905746  10.9832811  21.8363552   5.6192689  11.3296719  21.5054321
   4.1807971  11.7182608  21.7714825  51.9117355   1.8950200   2.6137016
  51.2700462   1.1912137   2.7092214  52.0022583   2.2578177   3.4948459
  10.9276247   7.2183032  39.0170097  11.1214933   8.1507158  39.1132050
  11.7800922   6.7882152  39.0844917  64.2750778  16.9513474  64.0764847
  64.3034363  16.0310974  64.3383408  63.3497963  17.1890221  64.1364517
   5.6389251  55.7041206   8.9290895   6.2007561  55.2412415   8.3075409
   6.0489192  56.5633125   9.0286894  49.8005791  64.6884232   9.2745800
  50.5754280  65.0615158   9.6948729  49.3528366  64.2144012   9.9753370
  73.7741547  41.7876129  68.7979736  73.4629593  42.4332581  69.4324188
  74.6576385  42.0793533  68.5730820  58.1230164  36.8735123  84.0017090
  57.9335365  36.9848137  83.0700760  57.5359039  37.4889679  84.4407272
  84.0128250  34.3832817  79.2960434  83.4027863  33.9041252  78.7352448
  84.2072067  35.1841393  78.8091431  53.5768356   3.6749208  88.3726730
  54.0995178   3.6590652  87.5709305  52.9196930   2.9909809  88.2437363
  63.9647331  63.8771706  76.1370926  64.7499542  63.9109612  76.6834641
  63.5299187  64.7160034  76.2904968  31.0236320   6.4479361  85.4293823
  31.4702148   6.7507343  86.2200241  30.4029179   7.1465950  85.2224503
  55.2711258  50.5679016  37.5996323  54.6681442  49.8956108  37.9169273
  54.9395905  50.7964211  36.7312431  46.6109924  11.7455177  79.8534698
  46.0312119  12.3911667  79.4494705  46.2206154  11.5764246  80.7109375
  47.4985771  42.8283539  85.4525299  47.8389282  43.3379250  86.1878738
  48.1180000  42.9912415  84.7411804  71.6003036  13.1770611  42.2632141
  71.9881821  14.0380716  42.1068764  71.9448395  12.9103317  43.1154938
  78.8104477  18.9653454   9.3986158  78.9033432  19.6881695   8.7780266
  79.6719666  18.8896732   9.8088531  32.1399612   0.2731085  60.8895187
  31.6836872   0.8105470  60.2420540  31.8363571   0.6061369  61.7339973
  66.0325241  56.6713753  74.3261566  65.9103546  56.2874756  75.1944504
  65.9748764  57.6157150  74.4715347  79.5641327  17.8227749  63.0153885
  79.9906464  17.4556866  62.2410736  80.2523727  17.8444653  63.6802864
  69.2506638  47.9844017  57.9242821  68.5861893  47.4501419  57.4892235
  69.2746735  47.6527405  58.8218651  85.9100876  45.7217674  54.6367912
  85.6868744  46.0230713  53.7560959  85.0719833  45.6879425  55.0979538
  67.0499496  13.8726826  33.8593025  66.4775238  14.5733290  33.5468063
  66.5600281  13.4632883  34.5724716  25.0539112  52.4549179  57.1706429
  24.6715565  52.9460754  56.4434547  25.3670616  53.1274605  57.7755051
  37.2835350  60.9065437  18.0299835  37.4392090  60.0217743  18.3604012
  37.4200096  61.4732208  18.7892494  62.4599419  28.2292709  51.5382881
  62.0461273  28.5837574  52.3252640  61.8000298  28.3338451  50.8528633
  65.8485870  69.0069809  50.9568787  66.5682907  69.6235580  51.0913696
  65.2037277  69.2423706  51.6239433  50.3605385  55.7254066  16.6667538
  50.8646469  55.1914597  17.2807636  50.9510574  56.4407921  16.4306526
  69.5497437  55.0016518  76.0191040  69.5694046  55.8160362  75.5164871
  68.9479141  54.4360466  75.5352478  17.2964325  69.0356445  12.4241066
  17.7303085  69.5804977  11.7675095  17.7923470  68.2169266  12.4215870
  13.3825216  66.8651810  21.3046494  13.1437063  66.5147095  22.1627712
  14.3351660  66.9522324  21.3381577  49.9072762  40.3333321  24.9283867
  50.0158463  40.8389740  25.7338486  49.3653374  40.8888359  24.3680744
  41.1485519  55.2945251   2.2116568  41.3281631  54.4213219   2.5602047
  41.5199966  55.8924103   2.8603458  73.9503937  21.4931297  30.9856110
  74.2489243  20.5911274  31.1018009  74.1583862  21.9229965  31.8151817
  34.2966499  67.4668427  34.1195145  34.2722511  66.6689377  33.5913200
  35.2151222  67.5582428  34.3730621  39.8344383  46.6510506  35.3699493
  38.8808708  46.5830307  35.3218803  40.1104546  46.7920914  34.4643250
  69.9439163  49.6472511  75.8386154  70.8812714  49.7315445  75.6640015
  69.5987930  50.5330048  75.7265091  63.1622086  40.6285477   7.1717858
  63.7932701  41.2160873   6.7560992  63.5700417  39.7640915   7.1206074
   9.8386145  16.5390263  30.5599518  10.5715761  16.9634991  31.0058460
  10.0390062  15.6041870  30.6063137  56.2533493  35.2521553  30.5965118
  56.4607048  36.1609383  30.3789101  56.0103607  35.2769318  31.5220261
  23.1330643  28.0871906  79.8954010  22.5795097  27.7727852  79.1805878
  24.0256596  28.0119419  79.5579987  83.2332993  12.0177937  22.7370377
  83.3306198  11.4444790  21.9767284  83.6344452  11.5309925  23.4569950
  40.2723389  41.2762718  10.3610840  39.6623611  41.3777695  11.0917406
  39.9470787  40.5143356   9.8816147  52.1549988  11.6091719  14.7942276
  51.7629509  11.7810621  13.9380817  51.9171638  10.7026606  14.9889164
  33.8571167  66.0642624  18.5939751  34.8000908  66.0042801  18.7470684
  33.6562386  66.9943314  18.6981258  69.8038483  29.5583172  27.0274258
  69.0137634  30.0653133  27.2144012  69.5332642  28.6460762  27.1315212
  52.2545395  54.6358795  10.2131662  53.1115913  55.0028725   9.9963579
  51.6467018  55.0825539   9.6238880  33.7350273   3.7785487  82.5715485
  32.8767204   3.4919581  82.2594528  33.6556396   4.7290859  82.6516037
  78.0086517  35.4950066  73.7912445  78.3839874  35.3418732  74.6583633
  77.2004013  34.9822273  73.7861557  55.1910667  70.1017380  22.6676483
  54.5671730  70.8276672  22.6711578  54.6854668  69.3498917  22.9763966
   3.9778459  24.5525665  88.4701385   3.6889710  24.2328014  87.6154251
   3.2155139  24.4403229  89.0380173  86.6695175  32.7431755  45.2878075
  85.7332153  32.6297684  45.4511986  86.7198486  33.0402985  44.3792839
   6.3560843  16.9107475  88.7660599   6.1417475  16.2621460  88.0955353
   6.2430501  16.4449921  89.5946274  53.9222412  59.2757492  64.1775742
  54.3557053  59.3339310  63.3261337  54.5986938  59.5229073  64.8080978
  83.1771698  45.7189636  71.1188889  82.9528656  46.4644585  70.5619736
  82.9676743  44.9511414  70.5871048   0.4268655  19.7870598  45.1639137
  -0.2929437  19.2067337  45.4115601   1.0296100  19.7514534  45.9066544
  42.7287331  14.3268394  68.0200958  42.9931641  15.2159500  68.2562943
  42.2349701  14.0144215  68.7782669  85.4943924  20.2653179  13.3142834
  85.1433334  20.3958759  14.1951618  85.0987854  19.4456501  13.0178452
  58.4310303   0.1411952  58.9047699  57.7053375  -0.2679900  58.4334183
  58.8783417   0.6696029  58.2437668   6.5228095  42.2976952  75.0547104
   6.1863437  41.4080124  75.1618958   7.2959981  42.3308372  75.6180191
   9.4832249  62.0312881  73.1575165   9.2732439  61.4105225  72.4598083
   9.9687624  61.5140762  73.8001556  86.1528473  49.5821877   6.8914242
  86.0894089  50.0577164   6.0631261  86.8093567  50.0639725   7.3945231
  41.1419487  10.1033096  22.4359493  40.8385010   9.3229427  21.9720783
  42.0858803  10.1236839  22.2784176  24.0994568   0.0718824  27.5385990
  23.9308529  -0.6181477  28.1802101  24.0524254   0.8842753  28.0426216
   5.3932509   7.8658185   6.7404222   5.9842443   8.0228910   6.0040212
   5.5656109   8.5883141   7.3441811   9.5705576  45.3676872  41.6749725
   9.9347258  44.4846611  41.6127090   9.5299873  45.6744576  40.7691727
  25.9139404  45.4779778  14.2021999  25.7748852  44.7957153  13.5453787
  26.4388123  46.1400871  13.7523670  56.8636894  51.8671532  60.9113312
  56.8344078  50.9125443  60.9753265  55.9608536  52.1453400  61.0653801
  -0.1044759  26.9233418  60.2290230   0.6105711  26.3448505  59.9639015
  -0.4867582  26.4958897  60.9954262  62.1323776  12.6780386  32.3652611
  62.0075760  11.9535761  31.7522278  61.3364563  13.2030334  32.2808533
  63.8961067  12.4575491  43.0250053  63.5457878  12.9500360  43.7672729
  64.7329407  12.1146374  43.3386078  67.3805008  10.9278126  59.8312187
  67.2645340  10.4662571  59.0007057  66.6088791  11.4897022  59.9027405
   4.9450450  29.6725483  46.1645203   4.4168491  29.0567513  45.6565514
   5.6731882  29.1469574  46.4958725  24.6899204   6.1949100  36.7323456
  24.0865116   6.8077555  36.3121681  24.6574268   6.4253979  37.6608162
  85.0038605  15.5894871  10.6152992  85.5137405  14.7879076  10.4981337
  84.0997467  15.2875977  10.7028742  23.0476036  64.1731567  26.6833019
  23.8901386  63.7397842  26.5470982  22.5727940  63.5922585  27.2777290
  10.1393461   7.8785148   4.9561653  10.0884895   6.9780688   4.6354747
  10.3975286   7.7917309   5.8737936  70.6114731  70.3368301  79.0845337
  69.6865005  70.2765579  79.3233337  71.0122375  70.8289871  79.8010559
  65.0998993  18.3479824  49.6595306  64.7227478  17.4946117  49.8734093
  64.4005051  18.8098717  49.1972160  47.3140984  52.9623680  81.0522842
  48.2609520  52.8955612  81.1757126  47.1356506  52.4311943  80.2762451
  33.6426125  46.8458519  38.6243820  34.4000130  46.3766212  38.2745285
  33.2192268  46.2160683  39.2077751  78.2927551   5.0543518  40.0228157
  78.4762421   4.1631408  39.7256508  77.6056976   5.3664932  39.4339600
  27.0885735  60.0104713  50.4090080  26.1680031  60.2239342  50.5613708
  27.0650711  59.2192192  49.8708649  69.2063370  54.2992172  32.9337196
  69.1494904  53.3732529  32.6979408  69.8685074  54.6567802  32.3421860
  83.9242477   7.2112980  79.6452255  83.4117126   6.5447936  80.1027222
  83.9359131   6.9203916  78.7333755  59.4543076  16.7385311  84.4218063
  59.9029655  17.1656036  85.1515656  60.1546555  16.3169727  83.9237747
  54.4465065  14.5934019  12.0283947  54.7224236  13.8305674  11.5202751
  54.2188034  14.2390432  12.8879366  37.0788994  25.3988762  10.4913492
  37.7621117  24.8430519  10.1164989  37.5456505  25.9801483  11.0917645
  44.7384567  60.1242065  55.9358749  44.8727684  60.7747879  55.2467194
  44.5690804  60.6411095  56.7235031  70.5033722  16.6386719  88.3660660
  70.8189774  15.8162823  88.7406311  69.9317780  17.0053387  89.0406494
   3.5961251   9.7184658  13.0790014   3.3295636   9.3244228  13.9096079
   4.5493989   9.7812233  13.1386862  10.6611490  65.8219223  53.3755798
   9.9522009  66.1914444  53.9019623  10.9865570  65.0864334  53.8946228
  84.4992981  65.1541214  62.0160027  84.1617508  65.1619339  62.9116783
  83.7873001  64.7829208  61.4949493   6.8126578  17.3540592  18.0959702
   7.1776466  17.9437199  18.7557545   6.0219288  16.9996662  18.5026455
  31.8599453   4.5504465  29.3376045  31.5261574   3.8136058  29.8493500
  32.7732315   4.3249860  29.1606712  64.1601639  27.1863575  31.7669277
  64.2048187  26.9396610  32.6907120  63.2410507  27.0623913  31.5300770
  11.7005348  44.4399300  54.5982170  12.5164394  44.8791084  54.8383293
  11.2675562  45.0492096  54.0002708  56.7840843  64.6012573  52.7643013
  56.9224014  63.6978760  53.0489159  57.2588196  64.6666641  51.9356995
  53.4120483  44.0088196  18.3528347  53.3059998  44.7693596  17.7813740
  52.5883560  43.9568100  18.8376579  72.6464920   6.3707786  24.6010704
  73.4640961   6.7620435  24.9087372  72.9151611   5.5537353  24.1809673
  50.7862396  68.2575760   2.1400883  50.3233147  67.7733078   2.8237717
  50.1055794  68.4899597   1.5084808  45.3529739   1.3232809   5.8590713
  45.4240417   2.2234728   5.5415254  44.4781418   1.0428468   5.5902634
  13.7283659  65.7826614  14.7005339  14.4622097  65.7573242  15.3145895
  14.0420437  66.3219147  13.9745588  15.5814295  66.6051407  73.7460861
  15.3490629  65.8069687  73.2715759  16.3489513  66.9432068  73.2847214
  15.5529375  25.0256844  78.8392258  14.9281588  24.3880234  78.4938660
  15.1849899  25.8759842  78.5987320  50.7717438  60.2223740  59.1846046
  51.4983177  59.8701439  58.6705437  51.1447449  60.3757477  60.0526924
   1.1909696  38.3765793  53.9299393   1.6782336  38.7301788  53.1857796
   1.7958206  37.7586098  54.3404274  80.8752213  29.5147648  52.2426262
  80.8473969  30.0536480  53.0332336  81.6628189  28.9804211  52.3445740
  70.7138901  61.6691475  16.2424450  69.9071426  61.6417999  15.7280045
  70.4252090  61.8842201  17.1293716  62.2986221  44.8132515  17.3087406
  62.2266350  44.5056305  16.4051819  61.4115257  44.7351761  17.6597309
  75.0939026  51.8002930  36.7251244  74.6584015  51.2520676  36.0724258
  75.1861649  51.2334671  37.4909134   9.4358358   7.1427531  66.5441437
  10.1952372   7.7086740  66.4053040   8.6874475   7.6763120  66.2768173
  50.5088120  27.1839390  12.9511089  50.5345879  26.2654438  12.6829042
  51.3603668  27.5339222  12.6891909  21.6398773  45.5599442  64.4548340
  20.7732944  45.1560249  64.5008163  21.7574100  45.7698975  63.5283661
  43.2276649  38.1102600  53.5561676  44.1305504  37.8161736  53.4355507
  43.1906586  38.9579353  53.1131020  53.6052742  50.1906281  41.6210213
  53.5289230  50.8475456  40.9290237  53.9187279  50.6795654  42.3818893
  67.3725052  23.4851513  78.5451660  67.0605927  22.9242458  79.2553253
  66.5866852  23.6886005  78.0378876  38.1418266  60.0311661  61.4988976
  38.7416954  59.3006554  61.3480911  38.1630173  60.1668434  62.4461937
  55.3506660  58.7004585  45.8937187  56.0246315  59.3341751  45.6479416
  54.6166763  59.2360535  46.1947708  36.5201836  39.4258919  78.9612350
  37.0615578  40.1943779  79.1417236  36.5055618  39.3621559  78.0062714
  24.7051277  53.9847260  68.1775742  24.4664555  54.5109406  68.9406967
  24.0870132  53.2539291  68.1877518  51.5512047  38.0240746  88.1905823
  50.6091995  38.1870766  88.2384338  51.9348602  38.6564217  88.7981873
  32.7538261   9.5561447  78.1683350  32.7892990   8.6048660  78.2685394
  33.3856277   9.7476959  77.4752426  20.6284828  18.1591949  23.9805889
  20.6485519  17.5521278  24.7203846  20.4742661  19.0161819  24.3781071
   4.5806036  44.8400459  11.4280081   3.9752841  45.3635750  11.9531155
   5.4428000  45.2112732  11.6152020  22.5081596  15.6434422  24.0112209
  22.2528019  16.2585468  24.6987324  22.3117237  16.1021633  23.1943874
   2.6202290  49.3701515  63.1766014   3.2226789  50.0958176  63.3399887
   1.8461422  49.5791550  63.6994209  75.6002426  31.9999809  22.6528492
  74.8621063  31.7645741  23.2149620  75.3576279  31.6693668  21.7879429
  56.3103561  19.2194576  80.0045013  56.6469803  18.3935871  79.6568604
  56.8657227  19.4046497  80.7617950   6.3438601  59.5419197  22.0148983
   5.6179686  59.4745941  21.3945923   6.6211729  60.4564629  21.9607162
  59.9147911   2.9752240  66.5725098  60.5837936   3.6389177  66.7403641
  59.7877045   2.9977725  65.6240463  40.8744545  51.3510094  74.6103745
  40.6607170  50.6968689  73.9450607  41.3044395  52.0549278  74.1247406
  64.6424179  13.7141685  12.2640247  64.7446289  13.6956425  11.3124771
  63.7330971  13.4546146  12.4123392  80.2199860  31.1235123  47.1897240
  79.8179703  31.9617462  47.4177094  80.1230469  31.0619812  46.2394333
  70.1864929  13.2745905  61.7241859  69.9453583  13.5974102  60.8559265
  69.6582489  12.4849968  61.8413658  44.9822235  43.3967400  56.7894783
  45.8466034  42.9928780  56.8667908  45.1541786  44.2607918  56.4152069
  32.1817398  42.4557266   9.3427067  32.5034485  43.3565216   9.3788910
  32.5249252  42.0467415  10.1371784  82.3704300  35.9100151  16.3945522
  83.3264847  35.9419632  16.4289589  82.1087799  35.6220436  17.2691059
  54.9401817   3.2315557  46.9637260  55.3391495   2.8439798  47.7427254
  54.2075119   3.7469380  47.3010826  16.9222832  54.0291405  29.4596329
  16.5152054  54.5308952  28.7534046  16.2270222  53.4515533  29.7746544
   8.2173214  44.5060692  63.5388527   8.0411806  44.5373077  62.5985146
   8.0539703  43.5950584  63.7829933  32.8417130  62.1174088  57.0850067
  33.3253593  61.5874290  56.4514122  32.6401253  62.9269867  56.6157799
  31.1246014  31.2820053  27.1764965  30.6440296  30.9996471  26.3983212
  30.9923134  32.2294617  27.2090244  51.5541191  62.4134140  86.5047607
  52.3288841  62.3340263  87.0612411  51.3408432  61.5126190  86.2612152
  26.9358120  69.6914825  58.9178200  27.3499603  68.8492889  59.1060410
  26.0095730  69.4815521  58.7984734  14.4392729   6.4398437  42.2890701
  15.0209799   7.1947255  42.3785248  14.0528717   6.5370302  41.4187393
  12.9115343  46.1151390   7.4178948  12.4420271  45.4195404   6.9575315
  12.5401726  46.9257774   7.0697742  25.2926655  59.0357056  25.8606491
  25.2739182  58.7556953  26.7757874  25.8080730  58.3634186  25.4149837
  47.6386642  27.4943523  27.3063450  47.3375587  27.4412937  28.2134018
  47.8831978  26.5964565  27.0822468   9.7325687  62.8275414  66.9333878
   9.9702692  63.3750496  66.1850815   9.7576876  63.4223404  67.6829300
  64.2562103  63.8519783  16.8462429  64.4453812  64.1092834  17.7485943
  63.3045540  63.9226952  16.7715149  36.2519531  31.6451931  18.1468945
  36.0706367  30.7226028  17.9674969  36.1242905  31.7351456  19.0912704
   3.7412074  55.4907036  18.3761101   4.2568898  56.0035210  18.9984608
   4.2757449  55.4694099  17.5823536  33.7949791  38.6230659  63.4512901
  33.0070839  38.2020645  63.7951050  33.9764099  38.1601219  62.6333656
  59.4500923  65.5808258  78.2131729  58.9742279  65.7483673  77.3997192
  59.5498352  66.4441071  78.6144638  25.4738903  63.0363655  26.6107826
  26.0907345  63.5271530  27.1537952  25.3624611  62.2030296  27.0683517
  17.2118015  25.5697956  12.3913565  17.0459652  26.5123520  12.3734865
  17.6362820  25.3853626  11.5534840  86.3566742  28.4573746  15.4000320
  86.7428894  28.6626053  16.2514725  85.6709290  29.1149197  15.2833309
  28.3078480  18.0457954   3.4481161  28.0953350  17.1580601   3.7362034
  28.8498173  18.4026604   4.1517849  68.5211029   3.6627111  15.9969482
  67.6723633   3.5042388  16.4101772  68.9187546   2.7949073  15.9260931
   0.3543073  42.9131737  72.7979965   0.1613799  41.9816818  72.9044647
  -0.3284163  43.2333069  72.2083893  76.8328400  49.1412773  35.4888039
  77.3128815  48.3665466  35.7813416  77.0811539  49.8257027  36.1101990
  46.8853989  71.9173050  50.1092529  47.2905693  71.1501389  49.7048759
  46.7287636  71.6552353  51.0164528  19.4958534   5.9996271  62.1791115
  19.9320526   6.0216570  63.0308609  20.1783161   6.2442856  61.5541153
   7.3639498  37.9827690  16.3321705   8.2043123  38.2442589  16.7085285
   6.7784386  38.7161179  16.5208664  47.9518623  26.0822868  22.6400566
  48.5375252  25.6732006  22.0029678  47.2031136  26.3775921  22.1219807
  48.9227791  66.6516037  46.2240829  48.6645432  66.4263382  47.1178398
  49.1579208  65.8142090  45.8244476  33.3026886  45.0291443  32.1719704
  33.9030724  45.5060959  31.5990047  33.8697777  44.6193237  32.8251839
  60.8600426  68.0479736  63.7830086  60.2430611  67.9026184  63.0657654
  60.9395142  67.1936874  64.2074051  29.9371605   8.2374859   8.7774153
  29.1486645   8.4243832   8.2679300  30.6386509   8.6878233   8.3069487
  38.3537674  39.9572906   0.7752936  37.4855614  40.3380470   0.9074956
  38.3487320  39.1598663   1.3047470  37.4148369  49.2504768  18.6280956
  37.0963097  48.3481979  18.6538715  37.2975578  49.5199432  17.7171268
  51.3660431  14.1654577  80.6742554  51.4319611  13.2196026  80.5429306
  50.6071739  14.4273329  80.1529388  23.5837994  56.0737038  37.5757523
  24.2557487  55.3964996  37.4975967  23.9972973  56.7624664  38.0961952
  32.6143532  55.0174370  81.2631073  32.7520142  55.8451347  80.8024597
  32.0638809  54.5032845  80.6724625  48.9510536  23.7250309   6.2700143
  49.3116989  24.5646038   6.5551181  48.7942924  23.8376713   5.3324804
  71.9591522  16.9863262  51.7284813  71.4653931  16.5865040  51.0125389
  71.3487091  16.9934311  52.4657326  10.7583857  35.5942192   7.2028289
  11.1141043  35.5736694   8.0912399   9.8751774  35.9483452   7.3065977
  19.9031315  47.6231804  50.1754265  20.1216660  47.5195465  51.1015663
  19.0342579  48.0247841  50.1778412  17.1340408  10.8932819  27.7460594
  17.4161034  10.1973343  27.1524868  16.1789169  10.8892384  27.6831703
   6.6118293  42.8293762  82.2335129   7.2233887  43.5230408  81.9864120
   6.1125693  43.1985359  82.9619980   1.8484250  43.8367386  87.3304062
   2.6724782  43.3577690  87.4184723   1.3589506  43.6191254  88.1236877
  49.6875458  53.9266052   8.2960424  48.9983025  53.3509750   7.9646440
  50.4686012  53.6727180   7.8043871  41.9971504  32.5196114  11.8354034
  42.0581131  33.3802338  11.4208574  42.6155243  31.9748726  11.3484697
  59.5643272   8.1888790  19.4911060  59.1862755   8.9499264  19.0505199
  59.3699722   8.3277016  20.4180279  63.7199402   0.4079360  86.4264755
  64.4884872   0.9526734  86.5962677  63.2354393   0.8814107  85.7502289
  58.4027824  65.6033325  70.0564651  57.5516968  65.9466705  69.7844315
  58.5427551  64.8393326  69.4970551  65.8054047  10.5886431  65.5183029
  65.7624359   9.7069836  65.1480865  66.5721359  10.5708046  66.0910492
  85.1718369   3.8738549  24.7973003  85.2843018   3.9856815  23.8533306
  84.8042984   4.7060437  25.0949669  38.6880798  60.1682510  72.1669846
  38.5255928  61.1091957  72.2337265  37.8473320  59.7985420  71.8973770
  37.4567757  13.3860769  12.4627399  36.7405052  13.5786076  13.0678177
  37.2863770  13.9447165  11.7043753  67.5310669  64.4554901   4.5694766
  67.2907791  65.1985855   4.0160317  68.1366882  64.8224640   5.2135124
  44.3792267  52.5051575  68.2241211  44.8906593  52.7088509  67.4410629
  43.5913086  52.0759621  67.8906479  64.5943680  19.5624733  32.9175262
  64.0801163  18.9950562  32.3432274  63.9987221  19.7809181  33.6342697
  61.4360580  65.3911057  64.3688202  62.0725136  64.8643646  63.8853912
  61.5959396  65.1761398  65.2877655  45.4436378  47.7941628  19.7241516
  45.9078140  47.5653839  18.9188995  45.9551353  48.5105476  20.1001720
  68.5471039  26.3395138  43.4538460  67.7806396  26.9106770  43.5041847
  69.2847290  26.9086094  43.6735535  15.6313772  19.9929199  18.0361118
  15.5282173  20.0213318  17.0849113  16.5544357  19.7782021  18.1706142
  67.1166840  65.5323029  18.1096191  67.3378220  66.4387970  18.3231678
  67.4872742  65.3943405  17.2379208  85.4850082  67.9122009  81.7800980
  84.6355820  68.3425598  81.8775940  85.3119431  66.9924240  81.9808426
  11.6473894  35.0394058  68.1112518  10.9668455  34.7890091  67.4864349
  12.4376516  35.1340485  67.5794983  75.4162521  43.5631294  12.3661966
  76.0748901  43.1149292  12.8968048  75.5167389  43.1870499  11.4917250
  74.6629410  25.5181561  58.1438141  75.3011169  24.8105907  58.0526428
  74.0727081  25.4058304  57.3986664   2.0958204  57.2489471  81.2819824
   2.2079339  56.3206406  81.4866867   1.1932782  57.4427376  81.5351486
  46.5138245  17.7401886  73.5826874  45.8512573  17.2366543  73.1097260
  46.1815529  17.7908783  74.4789352  59.9546738  62.5740929  14.5830641
  59.1096420  62.7489166  14.1688318  60.0417900  61.6212311  14.5566587
  18.7228489  44.3519783  83.8455734  18.4715366  45.2514572  84.0553589
  19.6229534  44.2747993  84.1619415  14.6720457  10.6905622  80.7579803
  14.5132713   9.8028164  81.0788040  14.9989481  11.1662979  81.5215530
  75.8506317  57.8640900  45.0797462  74.9886703  57.6594849  45.4422264
  75.8788071  58.8205338  45.0541420  73.4317017  14.6138668  53.0959091
  73.9133606  15.0065136  53.8239670  72.5305099  14.5493422  53.4120140
  43.4667702  13.8326569  15.3292990  43.8397636  14.3573980  14.6209507
  44.2213631  13.5727701  15.8577709  34.3337326  26.2865829   7.1580915
  34.1568985  26.4425468   6.2303858  34.9000549  25.5149498   7.1675444
  64.1234436  57.0054398  69.9565582  64.7740555  56.8572235  69.2702866
  64.4036789  56.4421463  70.6779480   8.9675264  19.7095413  79.3555222
   9.1013355  19.0922012  78.6363449   8.6667891  19.1667175  80.0843048
  43.0292931  13.2421322  81.5096588  42.4229851  13.4960785  80.8138657
  43.0782623  12.2881565  81.4483109  14.8886175  44.7391548  34.2766151
  14.1416321  44.3363152  34.7192955  15.3438616  45.2220840  34.9663734
  35.5307961  56.8660583   5.7455912  36.1027489  56.5448532   6.4426770
  34.6445694  56.7129364   6.0732923  50.0270271  40.2746391  27.8619633
  49.3798904  39.6808205  27.4814034  49.5063210  40.9377594  28.3151321
  50.3044052  15.8511047  25.9884491  49.6801643  15.1882296  25.6932335
  50.9752617  15.8691778  25.3059101  70.1541901  16.0293636  46.5643272
  69.5953903  16.3227520  47.2839813  70.5776672  15.2380896  46.8971672
  55.0502319  39.9086266  12.7836676  55.2201653  39.9534264  11.8427382
  55.8907471  40.1213875  13.1892490   4.1687326  22.3697453  46.5067902
   4.1026855  22.4053955  45.5525360   3.7390890  23.1707993  46.8067055
  26.4181271  70.0626907  12.2022381  27.1016407  70.7110291  12.3716297
  26.3280563  69.5881271  13.0286217  31.7501163  12.8612728  17.7431488
  31.6254311  11.9366274  17.5293350  32.4083214  12.8597546  18.4381275
  21.0614643   4.9644208  18.0609322  20.3845119   4.5883441  17.4983215
  21.8505497   4.4638333  17.8535900  70.8294525  69.6636658  39.6160355
  70.1101532  70.0451584  40.1193161  70.4974365  69.6196365  38.7193413
   7.5840468  58.6298943   6.9248796   7.2687540  58.4758034   7.8154287
   7.3577943  59.5424576   6.7452407  38.4903259  57.6366119  79.8975677
  38.6392136  57.7901077  78.9645615  38.4726448  56.6834526  79.9836578
  81.3801193   9.1146421  34.0340385  80.8995895   9.6624317  33.4133492
  82.1778870   9.6090336  34.2221107  33.8065872  55.7991066  33.9104500
  34.6904640  56.1069756  33.7099190  33.2319641  56.3774643  33.4089088
  65.3056259  65.2982407  82.2632523  64.5028000  64.8529663  81.9922638
  65.0784454  66.2280502  82.2545242  32.8420792  55.7695808  48.3231277
  33.5442467  55.1325645  48.4550743  32.1028595  55.4173279  48.8188171
  13.6209755  43.9402313  78.4584427  12.8207693  43.4267464  78.3478317
  13.6904411  44.4520454  77.6525497   3.4065063  50.4639626  70.4844971
   3.8619668  51.3034248  70.5484238   2.4814215  50.6984100  70.4104538
  76.2372589   0.8042042  41.1022530  77.0671768   0.4903847  40.7431068
  75.6152191   0.7162433  40.3800545  73.4889908   0.9617413   3.6683235
  73.1610794   0.5230035   2.8833299  73.6574478   0.2511730   4.2871513
  48.4797325  39.7142105  85.3111954  48.9570084  40.3105431  84.7342834
  47.7545586  40.2386589  85.6507645  17.0674267  12.4092035  87.6948318
  17.8507290  12.5994558  87.1786194  17.0934162  11.4618425  87.8292313
  30.2973385  59.7454262  75.8215485  31.1505642  59.4296837  76.1191177
  29.6663685  59.1565247  76.2354431  49.9607811  59.3550491  83.6913910
  49.3312454  60.0390205  83.4631348  49.5562820  58.5444260  83.3823624
  62.6893578  16.3123322  13.8495140  62.6562271  16.5701485  12.9282846
  62.2225533  15.4772854  13.8814688  81.6696777  66.0550308  51.4300652
  81.9345856  66.9350739  51.6976318  81.7708130  66.0534821  50.4782219
  77.6917267  63.2861595  54.8926773  77.0857086  63.0222702  55.5850182
  78.4355240  63.6684875  55.3583221  55.4761429  32.9257431  86.6354828
  56.1599388  32.3958549  87.0452118  55.4133987  33.7047615  87.1881409
  53.6391907  21.5439739  75.9445038  54.3644905  21.2597103  76.5007095
  54.0390396  21.6947937  75.0879898  57.4523163  35.0826683  39.0046959
  56.7429314  35.7218513  39.0713692  57.8662338  35.0933456  39.8677063
  85.1224136  27.8494778  19.3164806  84.3785019  27.3660851  19.6758595
  85.2195740  27.5121746  18.4259644  23.5332775  41.7101707   1.8766947
  23.9654274  42.3830795   1.3506984  23.9657650  41.7581596   2.7292695
  35.5202293  69.3582916  88.4747009  35.8570175  69.1389771  89.3434448
  34.6625633  68.9349976  88.4364395  49.4310799  34.1796417  18.5377026
  48.6802406  34.7455025  18.7173347  50.1925125  34.7479019  18.6540203
  84.9961243  67.8689499  57.5556831  84.2152557  67.7291565  58.0913429
  85.7254868  67.6359634  58.1301231  61.7940903  59.9063225  79.4101715
  62.4186859  60.6288300  79.3461914  61.1349373  60.0998077  78.7436066
  14.3762684  65.4671860  37.6898232  13.7639093  65.9583664  38.2375374
  15.2018080  65.9457932  37.7650185  23.4419804  22.2943268  49.9738579
  23.7499256  21.7597771  50.7057419  23.6830330  21.7943535  49.1940193
  80.6786041  30.4463730  82.0612564  80.0569077  31.1059227  82.3690338
  80.8324280  29.8880997  82.8234253  76.6044159  46.0599442  62.9381256
  76.8940125  46.3899002  63.7887077  77.3970032  45.7033005  62.5370865
  34.6055527  38.3926010  20.4419785  34.8174934  39.2665138  20.1139736
  34.1717110  38.5502129  21.2805328  36.3995667  43.0908890   2.8639886
  37.1969566  43.4459915   3.2568026  35.7244797  43.2254333   3.5291104
  79.9656372  57.3504944  35.6756973  80.5537262  57.0545006  36.3705139
  79.9471741  56.6245308  35.0521049  57.9559326  37.6638260  52.7935371
  57.3211555  37.3048744  52.1735039  57.5117989  38.4177895  53.1815033
  38.1777496   8.0822201  11.1081038  37.7491951   8.3617525  10.2991323
  38.3646545   8.8971777  11.5740900  66.4941025  60.6394157  23.1641159
  65.8189163  61.0673981  23.6905994  67.3053894  60.7849121  23.6508179
  48.1740761  62.5214043   7.2258668  47.8209152  63.2832298   7.6853614
  47.9929466  62.6937904   6.3019042  29.6414490  21.9450893  21.7629509
  30.1000042  22.3816357  21.0450478  30.1886749  21.1879101  21.9714069
  10.6345434  69.1953506  77.3585358  10.7896042  68.3479385  76.9412994
  11.3171587  69.7652283  77.0042648  71.0674133  -0.1122199  33.1947975
  70.6769485   0.7411036  33.0060921  71.8424683  -0.1501739  32.6343689
  82.2313766  13.7099714   9.5825720  81.6844406  12.9244709   9.5737238
  82.9550018  13.5046501   8.9905872  81.3640747  61.5175743  51.6361351
  80.6765442  61.6790047  52.2822571  81.0411148  61.9295006  50.8347359
  82.9444199  34.3207207  38.7526436  83.8138428  33.9219894  38.7893982
  83.0108414  35.0923691  39.3151169  18.0012989   3.0944662  21.8263874
  17.1555748   2.8515983  21.4495621  17.8296299   3.1813984  22.7640457
  33.5690308  59.9273109  67.7356415  33.9824600  60.7541656  67.9838715
  33.0454445  60.1434822  66.9640427   9.4481964  10.1835556  63.7197075
   9.0806913   9.3679934  63.3790741   9.1414394  10.8566370  63.1121750
   4.9606061  55.7675591  70.5094528   5.2428937  56.6205673  70.8394928
   5.6654472  55.1694412  70.7578125  67.5043945  65.7163696  60.4808769
  67.8336563  65.7932816  59.5853844  67.1685257  66.5883865  60.6882858
  29.6263046  67.8127441  37.8324089  30.5590878  68.0271912  37.8448677
  29.5510750  67.1082993  37.1887245   1.2432355  41.2267609  26.7494068
   0.6978575  40.7102699  27.3427296   1.0310593  42.1361694  26.9596176
  72.8300781   5.0510063  20.8165894  73.3469925   5.8125515  21.0794182
  72.6585770   5.1879253  19.8848858  81.9921799  48.8582077  41.8916969
  82.8801727  48.5640182  42.0945740  82.0710220  49.2882767  41.0401955
  81.9981613  46.7997475  75.7282715  81.5237045  47.4286766  75.1846008
  82.2905121  46.1255531  75.1148987  77.2995224  60.0331230  38.5056229
  76.3601761  59.9526787  38.6710930  77.5742340  59.1521606  38.2513046
  82.4172821  58.9683456  27.3331833  82.6959305  58.0531006  27.3632793
  82.0973663  59.0920525  26.4395485   0.9578083   2.7269919  27.1126747
   1.7102761   2.1682217  26.9182529   1.3210202   3.6115780  27.1552906
  10.8902512  69.0275497  43.7301941  10.3157330  69.4675293  43.1036339
  11.2124262  69.7305374  44.2943306  55.0494499  17.7041798  31.8135414
  55.9317207  17.5342236  31.4834709  54.7335815  16.8486671  32.1043243
  45.4966927  71.5498352  54.9722366  45.8255081  71.9031372  55.7988472
  44.7052956  71.0692673  55.2150955  66.4392853   2.9653492  50.3762550
  65.8807755   3.6687851  50.0453835  66.1827545   2.8670402  51.2931824
  27.3617916  41.6036453  84.8758240  27.0538101  42.1444855  84.1485901
  27.3907032  42.2010765  85.6231308  67.1461945   4.9690313  73.4926376
  66.2739182   5.3625259  73.5156174  67.0284576   4.1026621  73.8822250
  21.5741482  29.4218121   8.1856384  20.9140301  29.4921398   7.4960518
  21.7586594  28.4844971   8.2458801  86.0323410  60.4618759  63.2687531
  86.0551300  59.7134285  62.6724815  86.6902008  60.2585144  63.9336548
  62.9290924  61.7374840  49.7201309  63.7528763  61.8526268  49.2464714
  63.1943130  61.4751129  50.6016388   7.5080547   6.7138262  40.2299843
   6.7219772   6.7569180  40.7744598   7.6763997   5.7772918  40.1260834
  51.1309853   2.2150676   5.4604278  50.3347816   2.1757314   5.9902797
  51.3557243   3.1451495   5.4345016  50.8883858  58.3714409  69.1547852
  51.5498161  57.9128647  68.6366653  51.3749504  59.0583916  69.6104050
  33.0022583   5.6582408  75.4308777  32.9167442   6.2231169  74.6628647
  32.5805855   4.8384194  75.1733551   3.1356640  24.0260181  69.6563187
   3.4966974  24.1465473  70.5345917   2.2360504  23.7348061  69.8050537
  34.2161980  40.6927681  22.1348991  34.7647667  41.0529366  22.8317356
  33.4683838  41.2883301  22.0867767  85.1257782  51.7812996   8.4821033
  85.0946045  50.8784637   8.1656351  84.5444565  52.2618904   7.8927574
   0.4187827  41.4129601  39.2882957   0.7814416  41.6100464  40.1519318
   1.0888551  41.7114182  38.6733513  37.3259506  69.5296555  61.5785484
  37.4620132  69.1697769  62.4550209  36.8455582  68.8463898  61.1109962
   1.0346252  10.3777514  69.9147491   1.5903287  11.0773287  70.2582855
   0.8801149  10.6210098  69.0019608  74.4309769  19.1320305  43.2169189
  73.8509827  18.9910336  43.9652214  73.8944550  19.6104164  42.5848389
  14.3934536  27.9912701   4.6587658  14.9128036  27.1982403   4.7914662
  13.6310530  27.6976185   4.1600213  12.3547049  15.0514898   2.0034330
  11.4626389  14.7241564   2.1187694  12.7736769  14.9091454   2.8522162
  57.8775177  54.3782959  34.7118454  57.9493980  54.7382088  33.8278046
  56.9465332  54.1813202  34.8152885   1.0955260   5.6544147  86.1997070
   0.9489254   5.1965699  85.3719940   0.8816566   5.0077567  86.8722610
  59.4545135  30.0021954   2.2448568  60.1834068  30.5791798   2.4729731
  59.1788826  30.2963028   1.3766637   4.7810850   1.2536259  74.9249954
   4.4091220   0.4002201  75.1476440   4.3578839   1.4914933  74.1000366
  64.7359009  64.2957535   2.6729097  63.9519196  63.7589226   2.5571089
  65.3544769  63.7219543   3.1249604  23.6956768  57.5319099  83.3197250
  24.6373825  57.3759613  83.3911362  23.6260433  58.3887939  82.8988495
  79.6477127  30.3446274  68.9382782  78.7983704  30.1321373  68.5513687
  79.4348297  30.7137814  69.7953873  72.2236633  30.7505474  25.9606476
  72.8029022  30.7060127  26.7213860  71.3841095  30.4189491  26.2791233
  45.2196655   1.9703459  45.6235657  44.9597893   2.5309725  46.3545914
  44.9248390   1.0954074  45.8761368  62.2048035  34.0427895   1.2629013
  62.2322273  33.7994804   2.1882563  62.9680977  34.6073647   1.1409725
  38.1628075  27.8532524  76.0275345  38.8619652  28.1945705  75.4699402
  37.6030006  28.6102562  76.2001495  48.9968948   4.1336298  56.9057693
  48.4645615   4.6789479  57.4849777  49.7459030   4.6849298  56.6793022
  83.0436020  69.0060043  27.8301506  83.3507919  68.7528381  26.9596519
  83.7974548  69.4352646  28.2347069  17.9763203  37.7126312  81.6962738
  17.5159531  37.9218750  82.5089874  18.8578014  38.0635185  81.8231506
  82.4763641  11.4982891  38.4761238  81.7112579  11.2209444  38.9800301
  82.1512070  12.2022152  37.9148827  80.5419617  61.7788162  36.4965706
  80.0950165  61.3925056  37.2497177  80.5850067  61.0703697  35.8543243
  57.0202179  21.3039627  38.0800591  57.1001358  20.4513950  38.5078125
  57.2223625  21.1305332  37.1606636  70.5687256   1.1222324  40.5016479
  70.3290100   2.0292962  40.6913948  70.7897415   1.1227186  39.5703125
  28.0632610  64.4401932  84.0520859  27.7694035  63.8054237  83.3986816
  28.0081673  63.9703255  84.8842087  61.3750153   7.0409641  49.3891678
  61.2225456   6.1546593  49.0613747  62.2164078   7.2950940  49.0100746
  52.6565857  59.3710976  78.6486282  51.8388214  59.7416954  78.3167343
  53.2944870  60.0789986  78.5581055  25.8963928  38.2040901  73.5571747
  26.8442039  38.3376122  73.5646667  25.7845230  37.2709808  73.7388840
  38.7319260  41.1112061  80.0809937  39.4288445  40.6691170  79.5961227
  39.1411400  41.9100266  80.4136581  81.2388687  50.8022995  67.6809692
  81.0602951  51.6056862  68.1697617  80.3920441  50.5544968  67.3098602
  13.7126131  35.5091782  66.7225113  13.9581261  36.1611328  67.3789520
  14.3838825  35.5872879  66.0446320  65.0411301  37.6245461  28.0302277
  65.5630798  38.3303642  28.4118309  65.4050980  36.8250313  28.4104080
  59.8358803  12.9628515  25.6134834  59.5561409  12.3023214  24.9797020
  60.7360344  12.7203627  25.8306255  51.0290756  69.3863373  17.8445988
  50.5781441  68.5427780  17.8807297  51.3830643  69.5066299  18.7257652
  54.7935104  51.6148071  84.2106094  54.5381432  52.3166924  83.6119690
  54.4033890  51.8614616  85.0491791  21.3958073  53.5487938  53.3890839
  20.6843758  53.0446320  53.7839432  21.1300621  53.6639900  52.4767570
  67.5139008  28.7017250  61.0571098  68.1472549  28.2484550  61.6135635
  67.5785599  29.6199856  61.3195000  53.9861984  20.6660156  47.6921196
  54.7020569  21.1445103  48.1102371  53.3558464  21.3435879  47.4476089
  82.8543472  60.9159584  15.7805719  82.4743881  60.7338142  14.9211035
  82.6154556  60.1576653  16.3136330  53.2252922  50.2974739  46.7970428
  53.0547523  50.8142738  46.0096016  53.6946449  50.8952980  47.3788948
  54.2489166  56.0262108  46.9402122  53.8109894  56.1745720  47.7783279
  54.5999489  56.8832550  46.6983757  36.3176193  30.4958534  79.3569794
  35.5873604  30.9244270  78.9105759  35.9301300  29.7173653  79.7570343
  79.4690552  20.0518036  26.4666367  78.8715134  20.7145309  26.1202679
  78.9233856  19.5135422  27.0400066  18.6708622  19.4573555  21.2381821
  17.8836899  19.9816017  21.0906811  18.5000305  18.9942818  22.0583096
  40.8960495  63.9208603  72.4686203  41.5364990  64.0446854  71.7680969
  40.9289932  64.7355652  72.9700165  82.5067673  46.5129662  39.2122459
  82.1747208  45.6640511  38.9201546  83.3515701  46.3137398  39.6158028
  48.5822983   4.5930171  32.8512993  48.4595451   5.4962568  32.5592003
  48.2538910   4.5853157  33.7503662  21.6676598  35.1466103  84.9835968
  20.8712273  35.6121559  84.7282715  22.2084084  35.1460648  84.1937714
  61.9546700  28.2616196  79.1158600  62.3694077  28.0947037  78.2694778
  62.4302368  29.0122356  79.4717331   3.5235353  34.3861313  11.9148970
   3.2751627  33.9308815  11.1103525   3.1062219  35.2445641  11.8429432
  58.9135895  65.5960922  34.4726486  58.7414780  66.3544998  35.0307007
  58.5974197  65.8582458  33.6080399  65.6903076   7.3653183  44.9863892
  65.5392609   7.9219375  44.2224579  65.6293945   7.9613967  45.7328568
  74.6062241  32.8052368   6.4525833  74.3529205  32.3212051   5.6665897
  74.8451843  33.6748276   6.1317434  29.5910721  40.1152420  71.7354965
  28.7469788  39.7471657  71.4742279  29.3732796  40.9638100  72.1211472
  26.4135704  66.5072098  74.8739777  25.9688091  67.1591187  75.4156647
  25.7719269  66.2757797  74.2024384   3.9690053  38.3841286  83.6823883
   3.3922999  39.1454277  83.7461548   4.0088964  38.1916695  82.7455902
  40.9876938  48.8778191  67.3073120  41.0846558  48.5104828  68.1858902
  41.3372650  48.2028275  66.7255707   1.7865324  12.6377201  83.7246017
   2.2717197  13.1857052  83.1077271   2.4389184  12.3706770  84.3721466
  52.4008484  35.5809021  88.8791428  52.3468895  36.4625931  88.5104370
  51.5032997  35.2503662  88.8418884   1.3973396  30.2877827  70.4101181
   2.1772845  30.5372047  70.9058075   0.7572924  30.0423431  71.0782013
  31.3308144  24.8970566   6.0379362  31.1052570  23.9672947   6.0079966
  32.2397804  24.9327164   5.7400389  67.2841034  51.7727242  83.5421371
  66.3893204  52.1121750  83.5229568  67.4451370  51.4713020  82.6480255
   4.5757971  28.6707973  76.3930054   4.8698478  28.9879074  77.2469406
   3.7233930  29.0866146  76.2636414  17.5773010  56.1717567  34.9570236
  17.4384499  56.3084602  35.8941803  16.7495308  56.4305611  34.5519943
  50.2386742  28.3091202  80.8039246  50.6910133  27.7421360  81.4285431
  50.6991272  28.1692753  79.9764862   6.0099597  50.8394127  49.1156273
   6.0327706  49.8877296  49.2156868   6.2747521  50.9912758  48.2084045
  80.1061478  20.3169003  35.8398552  80.4331360  19.8111744  36.5838661
  80.1112595  21.2238293  36.1459351  38.9929771   4.8655734  58.8029175
  38.5996284   5.6639209  58.4505653  38.9956131   4.9980927  59.7508965
  53.3927002  52.1566200  20.3321705  54.2279854  52.4808960  20.6688824
  53.4795227  51.2036095  20.3537178   5.7057428  48.1081238  48.9900551
   5.6093597  47.2103958  49.3078957   5.0624795  48.1830063  48.2851868
  55.8203049  43.4146690  62.3059502  55.6875038  44.0083694  61.5669518
  56.1922188  43.9673157  62.9933319  76.4875717  60.8126144  44.6507301
  75.5811615  60.7729607  44.9558258  76.6781158  61.7484932  44.5870132
  63.7080650  67.9658432  37.9540482  64.2400894  67.5525360  37.2740822
  64.3441086  68.3813934  38.5362854   9.4251957  58.7695198  34.4533043
   8.9222069  59.0194321  33.6782074   9.7505064  59.5981369  34.8051529
  80.6397552  29.8882542   1.9759958  81.3847351  29.7041092   1.4038664
  80.5110016  29.0783863   2.4697227  41.6619453  23.6042786  27.9818325
  41.8272324  24.1115131  27.1870842  40.8931084  23.0740910  27.7720222
  83.6624146   2.6771963  26.6339321  84.1257095   1.9361314  27.0243320
  84.2641525   3.0126829  25.9694138  66.7148590  20.2757587  67.0292282
  66.3103790  19.7527733  66.3370438  66.5212173  19.7971287  67.8352356
  28.4815254  26.6209888  73.9921265  28.6922054  25.7678490  74.3715973
  29.0997925  26.7203846  73.2681808  83.3063049  34.1006622  53.4809341
  83.6383743  33.7222977  52.6668091  84.0880661  34.4140549  53.9357567
  49.3391037  22.2034588  21.9148445  49.1279106  23.1330204  21.8279877
  49.8298454  21.9940643  21.1201363  53.2694931   4.4483948  61.4595909
  52.8088074   4.9767265  62.1114082  53.8414536   5.0694966  61.0086784
  41.7934914  40.3658447  13.3612671  42.7215538  40.1439285  13.2858467
  41.6269264  40.3820572  14.3037243  18.3214836  12.8259993   6.5614052
  17.9650116  12.5128155   7.3927150  17.8932743  12.2847891   5.8981104
  84.0166931  56.8393326  71.6416550  84.2894440  57.4567223  72.3203735
  83.4512100  56.2162132  72.0979309  13.3513155  41.7269363  62.1633873
  12.7308722  41.2259140  61.6339912  13.2272854  41.3975601  63.0535355
  85.0857773  50.4589653  22.0536346  84.6051254  51.2626686  21.8554688
  85.5570908  50.6552162  22.8633156  86.8631134  51.0736580  61.9311104
  87.4648285  51.6746788  62.3703651  86.2733231  50.7763443  62.6239204
  59.9101448  56.9675102  64.4895630  60.1207352  57.6510124  65.1257248
  59.5240898  56.2646141  65.0121765  55.8615837  27.9249058  46.9246559
  56.7005806  27.4686012  46.8606377  56.0250587  28.7828712  46.5329933
  60.8849525  55.4402122  51.3364716  61.4614334  54.6760788  51.3364525
  60.0008888  55.0732765  51.3413086  82.1140671  18.2696152  18.6280136
  82.3206482  18.5717945  19.5124607  82.1331024  17.3146553  18.6906261
  78.7284470  35.8049088  81.5146790  78.0421982  35.2919197  81.0878983
  79.5133896  35.6350670  80.9938583   5.0295143  29.7728767  63.6795120
   4.4092264  29.4586449  64.3373337   4.4872980  30.2359581  63.0409279
  54.5482483  16.5454311  88.0816727  53.6075668  16.6759090  87.9619904
  54.8977013  16.4918289  87.1921539  70.1037140  14.4801474  78.1128311
  69.2633286  14.2490959  78.5085526  70.6693573  14.6884985  78.8563843
  51.0120621  47.8761177  28.7183514  51.4054413  48.2164001  27.9148026
  51.7578506  47.6091728  29.2557220  72.9754486   3.4030745  59.5704346
  72.2566605   2.8095458  59.7879295  72.9177933   4.0990438  60.2250633
   1.7575439  38.6319847  38.3223801   1.7456377  39.2729073  37.6115303
   1.5327147  39.1368828  39.1038895  11.8025455  70.4625015  38.7835197
  12.1433315  70.3705597  37.8937759  10.9726429  70.9270325  38.6753197
  23.4325256  27.8343506  19.3503838  23.4027405  27.6076450  18.4208946
  22.9011230  28.6273861  19.4206409  46.1115189  52.9866295  25.6329746
  45.6737633  53.5857391  25.0282707  45.7910995  53.2427597  26.4978218
  24.6951694  57.3977203  32.1594009  23.8628693  57.8368454  31.9842434
  24.5644207  56.9642067  33.0027275  18.6081638  40.0305557  70.3844147
  19.4775009  40.1331100  70.7716751  18.0376072  39.8299675  71.1263428
  68.3075714  34.7882195  85.4651718  68.8099289  34.8937950  86.2730865
  68.0090027  33.8790092  85.4858704  48.0841942  41.8675346  29.3717537
  47.8035812  41.0011215  29.6663952  47.3568306  42.4458275  29.6014328
  24.3473873  15.8923597  69.3234558  23.5851250  15.5331354  68.8694229
  24.1748867  16.8325214  69.3741608  19.3738594  65.8429413  41.6860657
  19.4211254  64.9921265  42.1220818  19.0155487  65.6486588  40.8199844
  80.6413422  37.0031738   2.7364333  80.1933441  36.3801041   3.3085487
  80.3055038  37.8585625   3.0043032  12.7180042  52.7701187  72.6072235
  12.0076542  53.4000816  72.7287979  12.5518389  52.0923767  73.2624283
   2.1431940  68.3028641  21.8157291   2.4194360  67.5256882  21.3300152
   2.4627895  68.1551666  22.7058277  23.0925903  70.7827301  78.0096359
  23.5935745  70.1892395  78.5691147  22.2455444  70.3506241  77.8999710
  60.2490311  24.9987640  52.0498352  60.4083977  24.8113670  51.1247864
  59.4768181  24.4778290  52.2701683  60.4749985  43.3458672  73.9996414
  60.6756325  43.0230026  73.1211548  59.5192871  43.3265762  74.0494308
  19.4669533  58.1605682  34.7676544  18.9412651  57.3616829  34.7268448
  19.1690464  58.6029701  35.5624886  27.4624176  45.7746582   5.2824311
  27.3295040  44.9766388   5.7940273  26.7166214  46.3307037   5.5078959
  52.7496605  11.1458788  47.0947990  52.4044418  10.7027149  46.3197746
  52.2616539  11.9682131  47.1377640  63.9796829  27.5109024   8.7080078
  64.9072571  27.2794762   8.6602640  63.9711456  28.3884983   9.0900860
  16.5121212  42.4697227  40.5486832  15.5722141  42.3227348  40.4428368
  16.5785503  43.3644409  40.8822937  26.0411892  17.7543430  16.7900467
  25.7975330  18.3763142  17.4756241  26.6951294  17.1889248  17.2010136
   4.2406697   9.1743336  34.9419708   3.9387345   9.4277020  34.0696907
   5.1953835   9.2146530  34.8860435  18.4102898   8.9606562  29.8236465
  17.8163261   9.6821604  30.0306988  18.6659946   8.6087227  30.6762848
  73.7717972  40.5070114  12.3375387  73.7033005  39.5814667  12.5718708
  72.8645630  40.8022842  12.2602339   2.0455537  51.4687691  15.4725208
   2.4665322  52.2475510  15.8365393   1.2512543  51.7997284  15.0532513
  41.2920570  38.4605255  19.2184391  40.4184227  38.7546768  19.4762630
  41.7940407  39.2681313  19.1087971  85.0556717  24.9466953  81.8596191
  84.9235535  24.0005226  81.8001709  86.0040894  25.0604420  81.7979507
  84.8819351  33.4466782  81.7712250  84.0941162  32.9159126  81.8889389
  84.8426971  33.7346001  80.8591995  31.1427956  17.2494888  23.5674553
  30.5077343  16.6924095  24.0175552  31.5877266  16.6610317  22.9575481
  76.4432831  33.9976387  16.9794559  77.2621918  33.6538353  17.3364143
  76.5288544  34.9479179  17.0561466  17.8304310  60.2923698  75.8406372
  18.4936466  59.7047768  76.2027283  17.9412975  61.1083641  76.3285828
   0.7312107  15.0389547  84.5262680   0.3014844  15.1759615  83.6819992
   0.7730790  14.0874853  84.6221008   8.6686525  22.8273563  36.4205933
   9.2573261  23.5190868  36.7225952   8.8796692  22.7213326  35.4929848
  48.4383774  60.8160591  61.7647629  47.9775887  60.6639709  60.9396706
  49.3276520  60.5004044  61.6041756  57.5925293  70.5295029  42.1678314
  57.0782928  71.2791748  41.8682022  57.0848427  69.7658005  41.8935127
  50.6486778  41.3791122  17.4990177  49.8035965  41.3746834  17.0495148
  51.0466080  42.2141037  17.2526970  61.4480362  30.1944561  21.5781746
  61.8295326  29.3209763  21.6660767  60.6063499  30.0459461  21.1471977
  39.1370163  41.0874977  13.5611668  38.7075310  40.2699471  13.8129435
  40.0089951  40.8203201  13.2704782  64.8249512  68.9532166  40.8013992
  65.5448990  68.6557083  40.2451706  65.2454147  69.2028503  41.6242752
  37.8856468  49.2771301  74.7514954  37.6959229  49.3181572  73.8141785
  37.7760353  50.1773872  75.0576782  48.0071716   4.8582511  41.2745018
  48.1833763   4.3924813  40.4570427  47.3731117   4.3065858  41.7326088
   7.1956086  54.8562508  63.5270500   6.7062559  55.2361870  62.7973824
   8.0204620  55.3416977  63.5408325  79.8066559  59.7259293   0.9662052
  79.3738785  58.9365730   1.2915573  79.3569489  60.4455032   1.4091600
  23.9974251  61.3046341  31.5780354  24.1818657  61.3138695  32.5172539
  23.4247112  60.5477943  31.4538460  19.5278816  16.1200104   9.8939657
  19.4919453  16.1668301  10.8493443  20.4620495  16.1512661   9.6876049
  41.1159325  51.1576576  84.7616348  41.6833153  51.0303993  85.5219727
  41.5584984  50.6921387  84.0519409  51.0021439  36.3475113  54.4419823
  50.5147018  35.6333961  54.8526802  50.5457916  37.1410103  54.7218590
  12.5477085  45.6987419  19.0168743  12.1794701  46.0657845  19.8205624
  12.5760927  46.4365196  18.4076824  82.0546036  31.4595146  32.2118568
  82.9140854  31.2022362  31.8781853  81.9457321  32.3647766  31.9205093
  77.3212891  22.9677734  82.8293762  77.6570740  23.8641071  82.8374176
  76.3929596  23.0616856  82.6157761  58.8645630  13.3800783  69.5310440
  59.0736084  13.6870756  68.6488419  58.6544609  12.4530249  69.4185333
  73.4281387  54.1487770  18.0562038  73.4216080  54.5384865  17.1819515
  73.2090759  53.2285461  17.9098701   3.1830814  69.4809875  45.5762672
   4.0527730  69.8137970  45.3546715   2.7007334  69.5022583  44.7497559
  20.3163662  64.5810623  72.3089981  19.8912563  63.9004898  72.8308563
  20.6783028  64.1142807  71.5557709  86.5991211   4.7651725  65.7262802
  85.9815216   4.7537599  66.4574966  87.4136200   5.0949450  66.1058426
  70.1083221   8.3797798  80.1284637  69.5582275   9.0660467  80.5061798
  69.8355637   8.3313627  79.2122269  81.8366470   6.4075770   9.5704556
  81.8279724   7.0945601   8.9039650  81.0053787   6.5124125  10.0333109
  66.0186310   0.2393345  14.4077902  66.2929993  -0.1496601  13.5773478
  66.7652283   0.1077458  14.9921722  67.6495895   1.2720938  57.4080696
  67.5367889   0.3483946  57.6323204  68.4961777   1.3088317  56.9629021
  69.2794647  59.4401245   0.3803766  68.4952164  59.5857048  -0.1487709
  69.9079590  60.0871849   0.0601692  24.0456772  45.6488152  42.5263023
  23.8561649  45.9201622  43.4244614  24.8444672  46.1233940  42.2962151
  26.4157715  60.9531174  86.7359314  25.5072613  60.8048592  86.9983368
  26.4511929  61.8826065  86.5100403  76.9453812   6.1579566  85.0165482
  76.9289932   5.2139149  84.8592300  77.3803253   6.5217652  84.2453766
  77.3997269  68.4947968  24.6164303  77.4535828  68.3571548  23.6707096
  77.9686584  67.8213348  24.9892616  54.1710663  39.2935600  78.5582047
  54.1514549  39.0112686  77.6437836  53.4705544  38.7943230  78.9780579
   3.1369812   1.6580771  87.8753281   2.8489592   0.8186131  88.2339020
   3.0213187   1.5668706  86.9295349  45.7656136   6.4365106  78.0054016
  45.4791565   6.2243390  78.8937454  45.0263824   6.1891937  77.4498825
  41.8093338  54.4774055  18.2071571  41.7220230  54.9968605  17.4079227
  42.5912666  53.9446449  18.0623226  20.9346924  60.8669586   9.2813644
  20.6315327  60.0261726   9.6240101  21.1675987  60.6846581   8.3710060
  72.0845490   8.1510429   1.2574576  71.7517853   8.5195255   0.4390954
  72.2484741   8.9125090   1.8138136  45.8953514   3.4161298  48.2221832
  45.4439850   2.8003697  48.7995377  46.8237038   3.2096732  48.3306732
  72.6761551  44.6564255  33.3629608  72.5256271  45.4643478  33.8537102
  73.6284103  44.5608253  33.3452721  62.2952194  59.2711906   4.9996219
  63.2244835  59.4427643   5.1521378  61.8407249  59.9312401   5.5230732
  63.5885696   7.2244363  82.5407257  63.9240799   8.0838184  82.7959213
  62.8086510   7.4167333  82.0201645  73.1938934  63.4343338  85.0140610
  73.4087143  63.1436615  84.1277237  72.4120178  62.9338570  85.2473450
  74.6089630  66.3779068  10.6660051  74.8484573  65.5972366  11.1654320
  73.8419266  66.7267609  11.1200848  79.0009613  69.3916321  15.3661671
  79.7010574  69.1704788  14.7520084  78.2067337  69.3976212  14.8319387
  62.1530342  70.9873123  22.8492908  61.9530220  70.2367554  23.4086533
  63.0764122  70.8774872  22.6222458  51.0317078  68.7395172  11.8819437
  51.2384834  67.9331818  12.3544827  50.1042213  68.8920288  12.0628748
  15.1652479  67.6502151  31.8853531  15.5618935  66.9754486  32.4363441
  14.2272520  67.4615173  31.9134121  79.0473785  63.7542572  74.0882874
  79.0814972  63.2587509  73.2700272  78.2563248  64.2878342  74.0123672
  52.0177956  66.0239716  40.7668800  51.9160538  66.9750061  40.8046265
  51.4342918  65.6933746  41.4498596  23.1394596  15.1653996  16.5501919
  22.2506485  15.5192509  16.5180035  23.5688858  15.5255556  15.7742338
  16.0130119  17.9866295  69.5259933  15.6826954  18.4692154  68.7682114
  16.8893280  18.3424950  69.6731796   1.8366812  64.6158676   6.5531006
   1.0865247  65.1242599   6.2448215   1.8418251  63.8359871   5.9981356
  77.8583450   9.8777905  27.8531208  78.1173477  10.0659962  26.9510517
  76.9069138   9.7805243  27.8138008   0.6357282  54.4681473  39.3489189
   0.7895429  55.1905327  39.9577942  -0.3051548  54.4973869  39.1753807
  29.0045261   1.2285848  21.5437984  29.6300411   1.6431247  22.1380367
  28.2932281   0.9337132  22.1124287  84.4509811   2.2545459  11.1334829
  83.5557022   1.9181777  11.0940838  84.3700485   3.1790228  10.8989124
  77.2144470  29.8541241  88.6510544  77.3528595  30.5460548  89.2978210
  78.0903320  29.5086021  88.4787903  48.8586426  42.8705521  50.4124489
  48.8038101  43.8230743  50.4894295  49.4602318  42.6081810  51.1092186
  75.0330276  64.5192490  47.1021729  75.5153275  64.1849976  46.3459396
  75.5532532  64.2461548  47.8578262  46.9315567  34.9059334  76.7974014
  47.3869095  35.7214127  76.5879288  47.6234169  34.2449265  76.8225250
   0.4135528  40.9531097  43.5497742   0.2385297  41.4068413  44.3742294
  -0.4350598  40.9232864  43.1079597   7.8362412  63.9154320  25.9367085
   8.3072329  63.7985229  26.7617722   8.1730442  63.2227249  25.3684177
  75.4958801  11.3595057  86.9464798  74.9274521  10.6447763  87.2333374
  76.2225952  10.9236536  86.5013351  64.4772491  53.3384552  68.7194901
  64.9554214  54.1676369  68.7127151  63.7175789  53.5046082  69.2776260
  63.9941940  23.8658104   2.5398438  64.8672333  24.2400246   2.6581233
  63.7074471  23.6422749   3.4253042  21.9360790  33.9311104  88.7042542
  22.6745796  34.5088272  88.8968430  22.3030739  33.2550240  88.1346436
   5.0524445  42.8340302  44.0726051   4.8865013  43.7070312  44.4283600
   5.2215204  42.9826775  43.1422539  70.8267517  38.7950516  39.0557747
  70.7150116  38.9477539  38.1174660  70.7029724  37.8517799  39.1613426
  86.6029129  23.3127823  19.1903515  87.2064362  22.5708523  19.1512051
  85.7409439  22.9291363  19.0289402  40.7907562   8.7743130  87.0462112
  40.5716629   9.6103630  87.4576111  39.9437141   8.3645992  86.8704681
  25.7622108  39.1481819  76.4477539  25.4921570  38.8221703  75.5892563
  26.6705303  39.4238129  76.3244095  59.9302330  43.9653130  85.9507751
  60.7656708  43.6090355  86.2529984  60.1291695  44.8697052  85.7084274
  45.1171913  55.2297058   2.0605512  45.1116486  55.0186195   2.9941700
  45.9887695  54.9705009   1.7615582  80.6889648  16.1525459  22.3998775
  80.7788010  15.5135422  21.6928883  80.6151428  16.9956627  21.9527340
  16.6184711  15.6115723  85.1936798  16.8513107  15.1573544  84.3839188
  17.0982628  16.4387302  85.1507797  20.7816849  58.5667229   4.2073231
  19.8969173  58.8169365   4.4734321  20.7199154  57.6297913   4.0213833
   1.7247179  47.2326927  23.7672672   1.3305149  47.7811127  23.0889835
   0.9975401  47.0116119  24.3491325  26.1648502  12.7095718  37.4921761
  26.2223873  13.4825144  36.9305000  25.4016628  12.8725481  38.0464439
  69.2059937  47.1955833  74.6801147  69.4508514  46.4616508  75.2436905
  69.4830170  47.9728699  75.1651993  54.0745811  20.9191589  37.1016960
  55.0084991  21.0108547  36.9129562  53.7383690  21.8152657  37.0881004
  59.7501717  42.2677574  42.6632996  59.8397903  41.6320152  41.9533501
  60.3247719  41.9378967  43.3541412  85.8153534  71.0511627   4.5652971
  85.6848145  71.8868256   4.1171269  85.5592041  70.3912506   3.9209847
  18.8358307  28.1605816  15.9065418  18.6249866  27.4497032  16.5118752
  19.7204285  28.4306488  16.1530800  18.4598522  46.4076996   6.3046718
  18.9715862  46.4404678   7.1129327  17.5510292  46.3468285   6.5988965
  82.8456879  18.7110252  42.0364761  82.9302216  17.8893356  41.5528336
  83.7368240  18.9144897  42.3205757  22.4317493  18.7814636   6.4095817
  21.6782589  18.2346840   6.1870561  23.0844021  18.1657047   6.7429237
  34.6553230  52.9711075  12.5698643  34.8070412  53.8685951  12.2736702
  33.7705383  52.9856682  12.9347935  12.3363094   5.8942752  79.4518433
  11.8468351   6.4731793  80.0362396  12.1181049   6.2018719  78.5720673
  37.9622612  66.4188690  27.4884243  37.8201828  67.0909576  26.8218365
  38.4916344  66.8531036  28.1573353  74.2315521   1.2506876  51.4207649
  74.1268921   0.8050523  50.5801163  73.3979568   1.7004474  51.5588455
  46.0378685  26.9210796  82.5153732  45.2181358  26.7306271  82.0593033
  46.6623611  26.2888851  82.1596069  20.1853123  27.3162174  79.2973785
  19.2816334  27.3087349  79.6128769  20.3681850  28.2381897  79.1163864
  58.0183525  63.5195541  56.4331360  57.5355530  63.5184708  57.2596550
  58.3963928  64.3971939  56.3777313  83.3413620  61.9727478  47.9016762
  82.4418716  62.2373466  48.0943985  83.6845856  62.6752586  47.3494949
  81.4577255  38.3362999  66.3811111  81.4583893  37.4214134  66.0996552
  80.6252365  38.4448357  66.8409042  80.4780884  37.2930489  83.2010117
  80.0000534  36.5634384  82.8068161  80.4273987  37.1314926  84.1431122
  53.4267159  40.2217178  82.1386337  53.4453812  39.2664146  82.1958694
  52.9171562  40.4974060  82.9005890  26.0072651  68.7653732  39.1216049
  25.4150047  68.6673431  39.8671608  26.2325535  67.8683090  38.8751183
  33.7824821  70.9883575  80.2732239  33.6044846  71.1909409  81.1916504
  33.5554657  71.7904053  79.8026886  74.0008392  31.0690327  60.6607475
  74.6928558  30.6267815  60.1690521  73.6979294  31.7636414  60.0759430
  53.9063911  18.1233921  60.5892105  54.5498619  18.4984970  61.1904411
  53.1577034  18.7177677  60.6383514  19.3121662  18.9531345  76.6082993
  19.3351212  19.4653206  75.7999878  19.1534081  19.5990124  77.2966843
  17.1615429  53.5077667  23.3274994  16.3602962  53.5251160  22.8041115
  17.7299156  52.8847008  22.8747635  80.5820923  54.5258980  62.4556007
  80.8287811  55.2996407  62.9622612  80.8587723  54.7268219  61.5615616
  12.6826048   2.8334436  37.7346153  12.4720926   3.4350200  38.4487762
  11.8313303   2.5627294  37.3907013  69.5837860  28.8648663  31.4428234
  69.9357681  27.9764652  31.3872414  70.3456650  29.4321651  31.3247280
  17.0110989  25.8209457  85.9067612  17.4572601  25.8534069  86.7530060
  17.3848572  25.0566692  85.4681091  54.2640152  21.3381348  71.5075760
  53.5958519  20.6932583  71.2753601  55.0938911  20.9082451  71.3008575
  67.6508713  25.1156197  71.9091721  66.7414169  25.3270168  72.1199722
  67.7773666  24.2316303  72.2538376  29.3148365  63.8758812  32.4541931
  29.8579254  63.7097168  31.6836891  28.5561523  64.3505554  32.1146126
  35.1709366   1.7365929  23.6276970  35.8206062   2.0753729  24.2436428
  34.5925560   2.4798796  23.4567146  68.7202148  35.7065926  82.7660065
  68.8814926  35.4826012  83.6825562  69.2904510  36.4570236  82.5989304
  20.6617489  61.6821938  51.8997498  20.9124146  60.7605515  51.8367119
  21.4934235  62.1552429  51.9275436  28.3537216  24.6484966  12.7825289
  29.1190109  25.1136837  12.4446449  28.4619656  23.7503605  12.4696894
  59.5110970  66.3972778   9.8305321  58.9676781  67.1260986  10.1301079
  60.1941490  66.3182831  10.4964399  36.8717575  44.1961861   5.3433795
  36.5529175  43.5500984   5.9735746  37.6578941  44.5601730   5.7504888
  30.8178997   8.1416912  43.4761581  30.6718960   8.3686590  44.3945236
  31.4568901   8.7848644  43.1691513  26.6147995  57.0646248  23.7929745
  25.7676544  56.6771393  23.5728931  26.9633503  56.5016556  24.4842148
  42.4114723  61.9762497  84.0540695  42.3643570  62.0618553  85.0062714
  41.6179390  62.4063301  83.7353668   4.7192154  62.1538887  19.3486156
   4.3040409  62.0393982  20.2034569   4.4162011  63.0106544  19.0480080
  30.2898369  44.3573494  64.6535797  29.9569836  45.2250137  64.8829193
  31.1961784  44.5112801  64.3869705  70.0374680  40.6369553  57.1447792
  69.6854782  40.0397034  56.4847527  69.2677841  41.0806084  57.5011368
  12.6320105  49.0505104  53.3207092  13.1652069  49.7378044  53.7201538
  12.9859314  48.2354889  53.6766777  86.2842255  46.7643318   6.8556323
  86.6092224  47.5767593   6.4676037  85.4786835  47.0192413   7.3054824
  28.1160870  17.5540810  84.2148590  28.4500904  17.1879520  85.0337753
  27.1961460  17.2905807  84.1923065  55.2709312  71.5765305  15.4181995
  54.8775063  72.1251526  16.0967751  54.5285034  71.1310196  15.0100956
  85.6005096  34.0618324  19.2661304  85.8039246  34.2356529  18.3470898
  86.3495026  33.5590973  19.5862865  61.4697723  37.7433510  66.4186630
  62.0146027  37.3615570  65.7304535  62.0322914  38.3965645  66.8347321
  41.0235138  54.4972153  24.3898869  40.2637253  55.0399246  24.6006489
  40.9527893  53.7466888  24.9797497  54.5308914  39.2070198  62.7831917
  55.0445023  38.4491081  62.5039062  53.6226845  38.9562950  62.6142731
  66.4833450  54.7805672   5.5026641  66.6590500  54.0905228   6.1423526
  66.9897308  54.5265121   4.7311301  52.9509315  54.7939301  52.2839127
  53.2411690  55.6839905  52.4833832  52.9963951  54.7353973  51.3295860
  37.3802872  23.9369602  19.0138226  36.8842049  23.9273205  18.1952591
  38.1732941  23.4374714  18.8191891  86.0989914  42.5157776  86.2283173
  86.9557037  42.9110985  86.0670929  86.0217514  42.4922066  87.1821060
  31.1143761  69.9140091  82.0865555  31.6563549  70.6356125  82.4055862
  30.3444958  69.9231033  82.6552658  47.6384583   6.0065432  58.2739296
  47.6058846   6.2866640  59.1886444  46.7807198   6.2423835  57.9205284
  80.7160416  63.0486031  16.3883228  81.3536758  62.3892822  16.1145554
  80.3130722  62.6801643  17.1745167  70.4218826  14.5021877  31.0181179
  70.4814682  13.6657352  30.5565662  70.2025223  14.2636576  31.9187946
  69.2609787  59.7766953  32.9560471  68.7643814  60.5392799  32.6592484
  69.6821518  60.0654335  33.7656631  60.1731186  36.5842361   3.6765447
  59.5599289  37.3189774   3.6569965  59.9483528  36.0640984   2.9050739
   4.0650892  39.6782265  60.8066750   3.5444825  39.2243080  60.1439857
   4.5249295  38.9785614  61.2706261  37.0661697  66.9100723  49.3488693
  37.7214317  67.1598053  50.0004005  36.2278214  67.0233078  49.7967339
  12.7865343   7.7417021  60.8246689  13.6252327   7.8289843  61.2776604
  12.9684563   8.0220814  59.9277191  82.0524826  32.9665527  82.6371231
  82.4004517  32.7361298  83.4985504  81.7747574  32.1318130  82.2598877
   0.9194120  34.3595886   5.8511314   1.2095073  35.2657509   5.9557562
   0.0394384  34.4309998   5.4812956   0.9046913  61.8700790  50.0539284
   0.4834671  62.6140900  49.6235161   1.8280870  62.1162529  50.1084328
  20.4766350   4.8186283  46.0344582  20.0023823   5.6460938  46.1158028
  19.8401642   4.1515074  46.2915344  43.2998772  62.1536789  40.6198883
  42.7994652  62.5539360  41.3309555  43.9734726  62.7998352  40.4077950
  48.6814423  46.2674522  42.3263931  49.6225510  46.4420586  42.3190613
  48.5739861  45.5603256  42.9625206  48.6803970  20.5662556   3.6001337
  47.7558289  20.7756557   3.4676147  48.8164940  19.7587109   3.1045730
  37.0395164  55.3438797  21.5119438  36.1015434  55.4777565  21.3758793
  37.2539978  55.8973312  22.2628918  74.9981537   2.0774562  71.0563965
  74.8012619   1.7686973  71.9407806  75.6895447   2.7281208  71.1782532
  10.2908173  70.0676804  41.1492043   9.5419760  69.6016159  40.7773781
  10.8637762  70.2358398  40.4010925   6.0581608  22.0936012  22.5277176
   5.2942610  21.5173588  22.5025120   5.7611737  22.9033222  22.1125278
   2.5893490  38.9236641  41.2513123   2.5061271  39.8728905  41.3422813
   2.0745313  38.5676041  41.9754753  46.2891922  47.0214806   5.4465485
  46.0220871  46.1790657   5.0788221  46.7260017  47.4709358   4.7230701
  86.2006454  51.0462074  47.1972809  86.7429733  51.7874680  47.4668159
  85.3049011  51.3826065  47.2238731  72.7816925  33.3505173  50.8683968
  73.2241898  34.1645393  50.6279869  73.1022415  32.7077637  50.2356682
  84.0148315  18.0108051  12.5996962  84.6385040  18.1121082  11.8806658
  83.1572418  18.1294212  12.1914005  58.1921463  53.3785439  15.5020256
  59.1265907  53.4997063  15.6704350  58.1497421  53.0727272  14.5959845
  50.0969772   4.3479881  46.9549141  49.2267380   3.9778206  47.1028671
  50.3209648   4.0840559  46.0625000  78.2337112  38.4071388  79.7897797
  78.2267609  38.6215439  80.7226257  77.5991516  39.0091133  79.4009323
  48.8983154  57.3772392  67.5775681  49.5554619  57.9834328  67.9195023
  49.0014648  57.4233742  66.6270599  82.1766357  67.8689651  17.3775730
  82.6645660  68.3530579  16.7113857  81.4876404  68.4724579  17.6556110
  41.5723572  65.9940491  51.2665558  42.3788948  66.0041504  51.7819443
  41.1589584  65.1588211  51.4850349  22.7210999  65.2659988  65.7353821
  22.0950336  65.9780045  65.6037521  22.4841118  64.6137390  65.0761261
  33.9569778  58.5269928  44.4063911  33.4995461  57.7185974  44.6376610
  33.6504478  58.7312927  43.5229149  82.3598022  59.1259995  37.7158623
  82.6339798  59.2924461  38.6177254  82.2712479  58.1743050  37.6642227
  30.5058022  35.7152863   9.6166506  29.7234745  36.2586327   9.7113581
  30.2103291  34.9553032   9.1152983   4.6651387  43.4401817  30.3368721
   3.8303938  43.4976158  29.8719711   4.4236064  43.4353065  31.2630863
  55.1337051  38.8798447   3.7034354  56.0160179  38.8155098   4.0689735
  55.2098083  39.5325470   3.0074332  75.9383621  17.4712029  39.0490112
  74.9863739  17.4161835  39.1321564  76.2013474  18.1014061  39.7197685
  32.7659340  33.4475784  74.2949066  33.6799965  33.1858330  74.1844025
  32.2820854  32.6221313  74.3224792   1.0634625  57.6665611  65.1663132
   0.7828406  57.1966972  65.9516220   1.2039542  56.9803047  64.5139771
   4.2513509  60.4900208  61.2107239   4.6327538  61.0193520  60.5103149
   3.3313253  60.7529945  61.2357979  37.7729950  25.3056507  84.4372864
  38.3655167  24.5556202  84.3862915  37.5985947  25.5355968  83.5246353
  29.6771126  69.9814072  23.3364067  29.5897141  70.2396317  24.2539654
  28.7813873  69.7986679  23.0526581  61.5253410  62.8971519  29.3168583
  61.7528381  62.0157852  29.0207634  61.1713486  62.7701874  30.1970863
  50.1072083  28.9858894  14.8578262  50.1842918  28.5051651  14.0336943
  49.6485596  29.7924595  14.6226292  32.8014259  53.3062439   0.1083865
  33.4592133  52.7440453  -0.3008583  33.2450638  54.1459351   0.2281340
  45.2642250   9.2599974  65.9795685  44.4214668   9.1174889  66.4104767
  45.1423569  10.0643597  65.4752045  54.7370949  50.8939590  54.9261818
  53.7928696  50.9727554  55.0620728  54.9307213  51.5152550  54.2242317
  42.2448578   1.6131003  86.4352264  41.4614449   2.1499596  86.3157272
  42.9577408   2.1489334  86.0875015  76.3020248  29.9400291  71.4889603
  75.5488586  29.4400158  71.1743851  76.4425507  29.6250973  72.3818741
  23.3933315  27.0888042  16.8045788  22.9839954  26.2235489  16.8013630
  24.3291988  26.9113770  16.7102108  66.9079895  41.0924377  54.6387482
  67.4185181  40.4033279  55.0638618  67.5188751  41.8242531  54.5521164
  50.4360924  34.8493385  69.5028458  51.1598549  35.2022591  70.0203781
  50.5406265  33.8996620  69.5612793  21.9150677   9.9421577  20.1797810
  22.3193798  10.5857000  19.5978737  22.3337498  10.0896864  21.0278206
   2.6273272  36.7088470   1.7217175   2.7856455  35.9334526   1.1832657
   3.3242910  36.6913681   2.3775895  14.9492245  15.6822395  73.6057434
  14.5225163  16.4746475  73.9316864  15.8039494  15.6759548  74.0365982
  58.5845795  65.8689957   4.6015410  58.0703773  65.2101822   5.0682244
  58.9412689  65.4029465   3.8453670  63.3562317  22.5214310  41.7285004
  62.5240021  22.1949329  42.0705910  63.1398239  22.8684750  40.8630753
  11.7965908  51.7414131   8.1591330  12.2076788  51.1904526   8.8252258
  11.9217634  52.6354904   8.4772339  18.7862186  61.8710403  59.7482643
  18.9541435  62.1455879  60.6497383  18.6339989  60.9280052  59.8095093
  38.5852699  18.5570011   6.1543713  38.9661560  18.9540138   5.3710842
  37.8728752  19.1473122   6.3998494  86.1114197  16.5312405  75.1062317
  85.1910172  16.2699337  75.0777740  86.1065598  17.4535866  74.8503342
  80.1168976  62.7609329  28.6402245  80.3260422  63.6888542  28.5332050
  79.5360718  62.5601387  27.9063606  79.3758469   5.3737717  59.8270683
  79.1279602   6.1074495  59.2644806  80.2138519   5.6364074  60.2078514
  45.3368149  68.4306641  12.7424383  44.6652527  67.7629242  12.8815718
  46.0924911  67.9450836  12.4116907  48.3836670  24.2114849   3.6391459
  49.2813187  24.2270622   3.3071723  47.8385887  24.1649551   2.8536789
   7.4598975  13.4960032  65.8006134   7.8798375  12.6724911  66.0490341
   7.1354470  13.3413343  64.9134598  58.2478294  11.5861101   1.4597441
  57.4223900  12.0486622   1.6044035  58.2470551  10.8852091   2.1116405
  22.8948593  52.6979904  70.6736908  21.9688530  52.6075287  70.8985519
  23.1499176  53.5428391  71.0443802  17.9248714   9.1606970  54.1397438
  18.2922497   8.6219244  54.8404503  18.6319466   9.2347956  53.4988174
   6.4660983   3.6094098  33.5339088   5.8188581   4.2724028  33.7742271
   6.0023751   2.7772131  33.6268654  41.5720520  35.0344315  23.2210732
  42.4284668  35.2636299  23.5819836  41.6117363  35.3221016  22.3089867
  59.8508034  33.5221634  72.0694427  59.8984299  34.4236298  72.3877563
  60.5030060  33.4803391  71.3700790  57.7087402   3.3971508  69.6132660
  58.0344658   4.0843577  69.0319977  57.8762016   3.7299635  70.4949875
  26.7135506  66.4047241  12.1671762  26.2145252  66.2395477  12.9671278
  27.5476933  66.7598724  12.4742689  48.5753288   0.5507829  15.0797939
  48.2880669   0.9719752  14.2696638  49.3123093   0.0002399  14.8152313
  15.2306776  12.3567581  82.7956085  15.9170361  13.0239344  82.8001251
  14.8279791  12.4215441  83.6615601  62.3879051  44.3999748  68.1928253
  62.3267479  43.9093666  69.0124588  62.3508186  43.7305527  67.5096512
   7.1443934  22.4601746   5.8167996   7.6214924  21.8170738   6.3412328
   7.7091641  23.2329960   5.8135400   7.4061327  53.1314888  82.5183334
   7.6332207  53.7806053  83.1841507   8.0790739  53.2332611  81.8452606
  73.4962463  11.0200853  10.0983238  73.6689835  10.2422352  10.6287413
  73.4083481  11.7294378  10.7349758  44.4865685  68.2776413  75.2233276
  45.3127556  67.8793945  75.4972763  43.8119316  67.7285538  75.6228180
  24.0518608  65.5825806  43.3628845  23.6522541  66.3459396  43.7798195
  23.9616661  64.8821335  44.0090027  29.9734192  29.5563107  24.9385605
  30.3289776  30.1459751  24.2736511  30.0064774  28.6900101  24.5327721
  59.8691292  21.1823139  23.4603233  59.5411758  20.3193760  23.7133389
  59.1030426  21.6361504  23.1090813  54.6714058  41.3020592  47.9064331
  54.1421242  40.5045166  47.9018364  54.4757729  41.7241669  47.0699005
  64.6486511  26.1167603  19.2900105  65.4137726  26.3109016  19.8314285
  64.3258667  25.2793999  19.6229801   1.7038481  44.6495018   2.8721788
   1.0967734  44.8050461   3.5957108   2.4208751  45.2650261   3.0246089
  76.1643677   9.1757946  52.2290382  76.1157532   8.2490435  52.4635620
  75.4985123   9.2863512  51.5503311  77.8218689   1.2808156  54.0694351
  77.6441422   1.7082286  53.2316055  78.0615616   0.3842891  53.8348732
  85.6052780  14.6411133  37.8421898  85.5950928  15.0688791  38.6984291
  85.4598999  13.7149572  38.0354042  84.8822479  63.9957848  38.4144135
  84.4731598  63.2200165  38.7978935  84.1695709  64.6304626  38.3402100
   3.1450613  31.9023743  13.0867662   2.2474060  31.7280235  12.8038368
   3.4221544  32.6500435  12.5571995   4.4119420  58.8999443  86.7428207
   4.5972819  58.8087807  85.8081665   4.2089276  58.0111694  87.0345383
  22.0161591  54.3377838   5.0397778  22.1508808  54.4318619   5.9827690
  22.8612309  54.0366936   4.7059631   2.5090933   5.3638945  54.5004997
   1.7036185   4.9570003  54.8196869   3.0830820   4.6269994  54.2913246
  39.1589012  30.7214832   6.7937331  40.0847206  30.4858131   6.8533058
  39.1441460  31.6695175   6.9250517  18.8753948  16.5478115   3.5128028
  19.4846325  16.6579590   4.2428222  18.8952808  17.3883820   3.0553322
  60.8219757   6.7463312  89.0027390  60.7036819   6.7863455  88.0537186
  60.4994240   7.5898261  89.3200836   6.2714453  43.7792969  61.2716064
   5.6771307  44.5193100  61.1474800   5.7098851  43.0715141  61.5877151
  48.3137436  37.5568352  57.0059319  49.0794296  37.2949028  57.5171547
  47.9784203  36.7382431  56.6402893  48.9300613  53.3888702  40.2366142
  48.4582253  52.5991402  39.9721794  48.3049202  54.0998878  40.0956039
  52.3582382  65.4363785  53.9214249  53.1244011  65.6409683  53.3853569
  52.7118645  64.9604187  54.6728554  66.6058655  61.6600914  72.2488403
  66.7226334  62.3277512  72.9247208  67.2255630  61.9042625  71.5613861
  47.3770180  48.2813377  64.4670334  47.0890007  47.8535957  63.6606140
  46.7711983  49.0139046  64.5791321  73.1398849  19.7128677  75.9412537
  72.6509247  20.1945877  75.2741013  73.9506989  19.4536819  75.5034943
  68.2997284   1.5629075  38.1809616  67.7312927   2.2263961  38.5719719
  69.1875534   1.8655434  38.3717957  35.8411293   7.3340020  50.0667343
  35.2569809   6.8342738  49.4964027  35.6849937   6.9773116  50.9411621
  71.3927231  15.3078327  80.3027420  70.8722076  16.1034107  80.4138641
  71.7752304  15.1493807  81.1657715  45.9161034  33.0682983   2.6668015
  46.5441132  32.8055496   1.9938973  46.4426613  33.1683350   3.4598720
  65.6719131   3.2461300  82.7770309  64.8261642   3.6860173  82.6907349
  65.5184479   2.3636694  82.4394760  55.8076897  10.2015295  14.0046902
  56.5443954  10.8096695  13.9441862  55.7525902   9.9838629  14.9351835
  36.9838943  33.3606834   9.6128235  37.6316109  33.8936348  10.0739727
  36.3621483  33.9949455   9.2559319  46.0357399  64.9179382  16.0193462
  45.9397354  65.8675461  15.9467793  45.2417755  64.6306992  16.4702854
   7.3943048  71.0420837  40.1912842   7.2734127  70.5336151  40.9932060
   6.5670123  70.9456863  39.7195587  13.7534637   9.4123440   5.5572124
  14.1946297  10.2617569   5.5470753  12.8972540   9.5917721   5.9457245
  83.0837479   4.4113874  56.6853943  82.2891541   4.1930561  57.1724167
  83.7991867   4.1324406  57.2568550  32.0303345  18.7705059  85.2325821
  31.9303627  19.3606243  84.4855881  31.3264179  19.0204296  85.8311386
  63.5753746  36.1761017   8.0584431  63.5580826  35.4571571   8.6901455
  63.3224602  35.7718277   7.2284865  76.2213593  61.7248688  62.7934952
  76.3235168  61.3947563  63.6861420  75.8700333  60.9822578  62.3022385
  77.0614243  21.1122513  55.4072723  77.7393951  21.5480881  55.9236336
  77.0920410  20.1993885  55.6935844  75.1061401  11.7841482  57.3637772
  74.8099442  12.0913973  56.5069771  74.8933487  10.8509216  57.3702583
   4.9960322   8.6066332  23.2017517   4.3794913   7.9644537  22.8500214
   5.1830568   9.1878462  22.4645653  10.3024406  30.3321533   3.9975429
  10.6758833  30.5867004   3.1537547   9.3644676  30.2448597   3.8277864
  50.4864235  41.7415619  10.2419033  50.4278221  42.2873917   9.4577675
  49.5876083  41.6927109  10.5674448  58.3512115  65.8722610  43.0268440
  58.3740959  65.5604324  43.9315376  57.7745361  66.6358566  43.0512161
  86.2193146  22.5464802  25.7949390  86.1855774  23.5002575  25.8684292
  87.1495056  22.3332844  25.8692322  81.0423508  51.6923370  73.1444397
  80.1473846  51.6734695  73.4834137  81.0020905  51.1852989  72.3335648
  49.0732994  49.7406006  28.8694859  48.7438736  49.4985809  29.7350140
  49.7202148  49.0662231  28.6622562  75.5141678  11.9698095  25.9122276
  76.3676529  11.9813957  25.4790230  75.6799774  12.3426847  26.7780819
   6.3246298  30.1644020  59.6482239   6.2678928  30.3134785  58.7044067
   5.7174315  30.7995014  60.0279465  72.6458054  59.4572144  35.8941689
  73.3676300  59.5750580  36.5116653  71.9005051  59.8889809  36.3117104
  35.5248604   2.0988438  47.7358780  34.5864716   2.2870944  47.7210732
  35.9291954   2.8644047  47.3276367  81.3721008   9.8172512  15.9864073
  80.5886230  10.0611992  16.4792385  82.0843353   9.8790379  16.6229076
  78.2392349   8.4271917  61.7068710  77.3015060   8.5166779  61.5368881
  78.6538696   8.6075897  60.8632088  42.3754883  50.1329231  82.6359406
  41.6236725  50.0004234  82.0584869  43.0834160  50.4004974  82.0498657
  57.7386894  54.0026207  73.4978180  57.7765656  54.5079346  74.3098907
  56.8741913  54.1962357  73.1353455  61.4806099  70.0295029  70.4903870
  60.9944496  69.2268143  70.6789703  61.5256500  70.0633469  69.5348434
  12.6695280  55.9105644  24.2789230  13.1238928  56.6836052  23.9439697
  12.5861044  56.0703583  25.2189960   6.5272727  67.0988235  54.2521400
   6.6979852  67.1497040  53.3116608   7.3903790  67.1838226  54.6571770
  71.6602325   6.7811809  82.0119934  71.2598419   6.0056787  82.4050827
  70.9605026   7.1732874  81.4896240  58.8391037  11.4330406   4.6998444
  58.1631546  12.0982513   4.8295360  58.4786263  10.6434345   5.1033435
  41.2245522   5.7448812  19.5137501  41.8520012   5.0586958  19.2864017
  40.3777046   5.2990193  19.5306778  33.0832596  33.2418404  20.0063457
  33.5074348  34.0703278  20.2297554  32.2588310  33.4986038  19.5932770
  46.5182419  47.3853455  39.3457947  46.0692024  46.9022255  40.0394707
  45.9568100  48.1424866  39.1791801  19.5645008  13.1543045  23.9186134
  19.7545166  12.5553789  24.6407032  19.4532814  14.0074959  24.3380489
   1.4020182   1.6839104  73.7294083   0.6934490   1.2146950  73.2889557
   2.1776309   1.4980699  73.2001419  62.2250443  24.5510464  69.5238647
  62.8123207  23.8712025  69.8542404  62.0529175  24.2987385  68.6166992
  18.9696674  44.6933937  67.3573380  18.6294498  44.1660156  66.6345978
  19.3925686  45.4390221  66.9313965  44.6345482  14.9352703  12.3960161
  44.9393349  14.1780539  11.8960571  45.0484848  14.8384047  13.2536316
   8.6280050  66.4722900  69.6308289   7.7235870  66.3667374  69.3356705
   8.5562496  66.9526367  70.4556580  77.2224426  29.1092739   4.0556655
  77.3401489  29.3651066   3.1408286  78.0813293  28.7844486   4.3259368
  47.1937675  18.9547958  79.9837646  46.7673073  18.1045437  80.0906982
  47.6827469  19.0814323  80.7968369  43.1516762  39.6207390  75.0993729
  42.7903938  40.3222961  75.6411514  42.3894882  39.1054840  74.8351593
  71.4461670  54.6070976  55.7004547  71.2883911  54.5175972  56.6403084
  70.6031494  54.8838921  55.3413658  74.0687714  56.4431458  27.9328041
  73.7391891  57.3143539  28.1532784  74.5119705  56.1464996  28.7276649
   2.3380733  29.9757786  75.0647049   1.6610057  30.4973335  75.4957352
   2.7135959  30.5646496  74.4101486  41.9009743  27.4306850  26.4412670
  42.2939110  27.3361073  27.3089581  41.7385941  28.3698692  26.3529510
  60.1822853  24.6241512  65.1075363  59.2449646  24.5779610  65.2960358
  60.6040039  24.3419209  65.9191589  31.3085632  29.2327805   6.5986252
  31.2842884  29.4877510   7.5209227  32.1957359  29.4509907   6.3130746
  27.1155205  63.6947975  79.8142014  26.6898136  64.4100952  79.3415909
  26.9538326  63.8881721  80.7376175  26.5115700  59.2554169  35.5087090
  25.6666965  59.6202850  35.7719460  26.3258324  58.3365555  35.3152618
  68.6500320  15.8835487  59.0087242  67.7113037  15.8915367  58.8217697
  68.9112473  14.9711123  58.8844032  22.8629761  12.3733816  15.7285280
  22.8962765  13.2778940  16.0399437  23.1455307  11.8510523  16.4792385
  29.7555637   7.0259070  46.8760223  30.1458778   7.8768706  47.0753899
  28.8245964   7.2120771  46.7540588  18.8270226  63.5622597  52.9517288
  19.4175129  62.8821411  52.6277122  19.1800938  64.3766098  52.5933914
  16.9572315  10.8988209  70.8475800  16.1940498  11.1164169  71.3827820
  16.9396915   9.9440041  70.7824097  18.5689831  47.6940880   9.5712833
  18.0340996  48.2992287   9.0575371  19.2806206  47.4439735   8.9820061
  19.9667244   5.6782446  85.8614731  19.9260197   6.3064365  86.5825500
  20.7307129   5.1363597  86.0587463  65.1090622  12.4788332   4.5239954
  64.2993240  12.8101358   4.9123297  65.7849808  12.6803360   5.1711106
  82.4427109  12.2235374  17.4447441  82.3357315  13.1520739  17.2383308
  83.2739944  11.9816504  17.0364704  39.2761803  55.3869171  34.0925827
  39.5491829  55.3103676  33.1783409  39.2584953  54.4853134  34.4135590
  28.7194977  28.1086235  13.3021193  28.5175743  27.3813629  12.7134333
  27.9014397  28.2706833  13.7719584  63.6740150  36.8336411  42.9719200
  64.3829041  36.9369850  43.6067696  62.8954277  36.6757927  43.5058823
  79.7808990  47.9523811  78.3873520  79.3802872  47.1698608  78.7660370
  79.5934372  47.8881454  77.4508896  27.6045361  34.4342804  71.9457092
  28.4473782  33.9937859  72.0543900  27.0573463  34.0807800  72.6470337
  10.1937170   6.7576299  25.7777004   9.7821856   5.8940859  25.8118439
   9.8087559   7.2356181  26.5122490   9.0320663  55.1442146  49.3081207
   8.4513617  55.5354500  48.6554718   8.7665329  54.2253151  49.3448219
  72.4892578  64.5435104   7.3037076  73.3558121  64.9039154   7.4919310
  72.1224136  64.3400955   8.1640997   8.1996365  10.0178432  86.7168503
   7.5530543   9.6411686  86.1199646   9.0369282   9.9003086  86.2681198
  50.1738815  37.5299301  17.7702065  50.7230911  38.1756096  17.3255711
  50.7814674  37.0390587  18.3234844   4.8332295  66.3265839  86.2630386
   4.8785357  65.6246948  86.9122925   4.4628286  67.0697632  86.7391968
  51.5690804  15.5328579  69.0904770  50.9801712  15.8222828  69.7873611
  51.0534401  15.6215219  68.2889252  68.3108902  64.3004990  22.2549839
  69.1363525  63.9588623  22.5986767  67.7546921  64.4043732  23.0270481
  33.8612556  69.3778076  61.3510017  33.7304497  68.8639908  62.1479416
  33.0038681  69.7635956  61.1713295  58.7283669   6.6982627  41.4956589
  57.8100662   6.4501839  41.3888321  59.1640358   6.3434024  40.7207413
  15.6193428   4.6246519  40.5538483  15.4710340   4.8164639  41.4798279
  15.1540985   5.3193588  40.0878410  28.2077599  33.5311470  80.9657745
  28.6531582  33.0874748  80.2439651  28.3529377  34.4627037  80.8003845
  39.7155991  42.4391861  44.6817780  38.9574738  42.1177521  44.1937637
  40.0595436  41.6649094  45.1272316  22.6942120  48.6194572  11.5844755
  22.8682270  47.7097473  11.3428526  22.1506786  48.5588493  12.3700504
   7.5969329  52.1103630  69.1738586   7.3521733  51.5703735  69.9253464
   7.8898039  51.4827118  68.5131607  22.8469353  20.9588490  10.4231281
  22.6439056  20.1275120  10.8519516  22.1837788  21.0431976   9.7380457
  36.3809090  17.3085155  79.4916077  35.5473595  16.8419800  79.5530090
  36.3565140  17.9383125  80.2120209  23.5179005  67.9278259   8.9021225
  22.8753700  68.5565643   9.2308741  24.3608360  68.2674637   9.2026863
  68.3211823   4.2835379  23.2690563  68.2680359   4.8709540  24.0229454
  68.9330597   4.7144890  22.6723003  28.5924816  11.9921827  28.1599407
  27.7073936  11.7199163  27.9176159  29.1388035  11.7117338  27.4256973
  64.8483582  23.9133415  75.8659134  64.1108398  24.5189896  75.9400406
  65.2181015  24.0909081  75.0010529  13.9238272  58.8084564  29.6191673
  13.3464365  59.5539169  29.7839050  14.4585085  59.0799217  28.8730755
  51.4389420  11.8691177  85.9686432  51.9661446  11.2421913  86.4638748
  51.4732590  11.5510263  85.0664978  67.0069733  48.9064827   1.8148417
  66.2434082  49.2868080   1.3806124  66.7677460  48.8811874   2.7413204
  81.0050507  59.5359802  19.2988663  81.9443207  59.3532028  19.3232040
  80.6148453  58.8586273  19.8512840  84.2435684  56.2776146   3.2262492
  84.0995636  56.5946541   4.1178656  85.0438156  55.7555962   3.2839861
  14.7926331  19.7220840  29.9460812  15.5672331  20.0245419  29.4720058
  14.3029556  19.2097263  29.3027020  69.4634399   2.1478870  72.5139847
  69.7693253   2.9152448  72.9975357  69.9778671   2.1527150  71.7067795
  78.5179749  38.2500839  16.4638214  79.4700012  38.1507187  16.4612770
  78.2162094  37.6486244  17.1445694  49.5474548  20.7514381  77.4157944
  49.3042984  21.3327732  78.1363220  50.4259758  20.4453506  77.6410446
  85.0458603  68.5177689  34.0112686  84.1772079  68.5120010  34.4133148
  85.2177734  69.4409409  33.8257103  38.5358315  60.8566513  64.1546021
  39.2011452  60.6700287  64.8169937  38.5253067  61.8114815  64.0880814
  71.3487015  22.7063541   5.4402790  72.1310120  22.7944946   5.9847498
  71.6619263  22.8457527   4.5465856  53.2323036  64.8003616  27.8640137
  53.7293129  64.3718338  28.5608501  53.8699074  64.9346466  27.1628284
  80.3049164  66.1851196  77.8189621  79.8063507  65.5438919  78.3254242
  80.6846924  65.6797028  77.1002426  17.3308945  14.9687033  20.4499321
  16.8114357  15.5504160  19.8949509  16.7839508  14.8225451  21.2217636
  16.2651043  56.6311378  39.9257660  15.3523569  56.7973366  40.1613503
  16.4620018  55.7796440  40.3161774  54.2213020  22.2777271  80.2189713
  53.8382835  22.7512703  80.9574051  54.5353508  22.9646034  79.6309204
  57.2584763  63.2857628  88.2267227  57.5347672  63.0241508  87.3483963
  57.1865273  62.4627953  88.7102356  74.7083817  37.3008041  25.7067490
  75.6235046  37.5759888  25.6513863  74.6337738  36.5881310  25.0721130
  64.5336609  11.7720776  25.3464565  65.2188721  11.6355724  26.0007362
  64.9246140  11.4752550  24.5246964  28.8497143  38.3197327  80.3233948
  28.5019627  37.5071106  79.9560471  28.0744934  38.8094025  80.5981522
  51.4580879  26.5152206  38.6858597  50.8445206  26.5199070  39.4205284
  51.1439056  27.2097797  38.1069717  71.4210205   6.2296886  32.8564911
  71.0082397   6.1706553  33.7180939  71.3067780   5.3588200  32.4760056
   7.7404070  25.0704021  17.0704689   6.8019652  25.1860943  16.9215584
   7.9462085  25.6753864  17.7831192  78.1775970  28.1380730  28.4586182
  78.8011322  28.8087921  28.1801052  78.0782166  28.2795811  29.4000683
  18.8285999  66.8867569  73.1279907  18.4717693  66.3708649  73.8510132
  19.4011726  66.2790833  72.6598892  44.6652641   4.6844172  72.4207764
  45.3021049   4.4509411  71.7453918  45.0972328   4.4602637  73.2450333
   3.3918869  51.7145119   4.3831601   3.2352519  50.7976074   4.6089654
   2.8799722  52.2095222   5.0227981  47.8766823  37.5977745  76.2947083
  47.2607040  37.8709488  75.6148682  48.5447311  38.2832603  76.3020859
  86.2759018  40.4895821  19.6837025  86.9483871  40.2728310  19.0379391
  85.8711090  41.2896500  19.3486385  15.5085201  48.1049995  62.5535202
  15.4453878  48.8983994  63.0852776  14.8316212  47.5266228  62.9049759
  49.6730957  61.7416077  74.5332565  49.6013298  62.3802948  73.8239212
  50.5400505  61.3524780  74.4183807  76.4926682  57.1928329  48.3235016
  76.7120972  56.4299698  47.7886009  77.2865982  57.3673401  48.8289261
  85.8220520   9.1767626   2.1598690  86.5657272   8.6368570   2.4276214
  86.2066956   9.8571539   1.6072818  27.8233414  18.3754539  21.9869404
  28.7273483  18.2257805  21.7101688  27.6627884  19.2986584  21.7916183
  13.5003595  52.5652962  10.4016943  13.5702343  51.9665222  11.1452112
  13.4103279  53.4313545  10.7992716   8.2356443  21.3806019  20.9035702
   8.0249577  20.7810287  20.1877804   7.3855791  21.6986027  21.2077007
   2.7429130  29.7023277  54.9059296   3.2463210  28.8941364  54.8077660
   3.3698452  30.3336182  55.2590027  73.3960342  54.8982773  36.9951630
  72.5092316  54.8054924  37.3433037  73.9615021  54.5486603  37.6838226
  65.8687820  63.2807274  68.8073502  65.6366653  64.1631775  69.0965576
  66.7887421  63.1824684  69.0528107  26.3955879  65.9910583  78.3075256
  27.2878742  66.2808456  78.4974747  26.0779114  66.6093903  77.6495209
  20.7640591  60.3889427  41.2658234  20.0374527  61.0068817  41.1856804
  20.3743954  59.5352669  41.0770645  63.8376541  19.9620247  40.7700386
  63.8567123  20.7845249  41.2592850  63.5426064  20.2111111  39.8941765
  30.2627430  55.8464813  20.4507351  29.9214115  56.5289268  19.8728142
  31.1845589  55.7645531  20.2062473  61.7203026  39.3002586  10.5264273
  61.5916328  40.2315979  10.3467426  60.8995132  39.0186462  10.9304447
  55.9213829  21.4159107  15.0459404  56.5082626  22.0879993  14.6993885
  56.4453812  20.6148872  15.0414019  72.1774292  55.1577682  71.0620880
  72.7180634  55.7999573  71.5220261  72.3062897  55.3565178  70.1346588
  35.9864578   6.2664943  17.6266060  35.5558472   7.0237894  17.2299805
  36.9153900   6.4971876  17.6365852  23.1023293   4.1123161  77.7636566
  23.6959114   4.8621535  77.8040924  22.4311714   4.3025217  78.4190903
  66.4421310  51.1750145  43.3967171  66.5102844  50.2288399  43.5245399
  66.2803116  51.2789841  42.4590416  61.3958397  47.3005753  45.8375435
  61.1062012  47.2200165  44.9287796  60.7434006  47.8685150  46.2474213
  42.0152588  62.7298851  86.7709656  41.1741409  62.9692421  87.1601486
  42.2680740  61.9250603  87.2232666  28.2244473  20.4400978  77.8055420
  27.3483391  20.7835674  77.6303482  28.5502834  20.9735146  78.5304718
  52.6619415  24.9208241  79.1902313  52.1071968  24.1910362  78.9147263
  52.6768112  24.8630161  80.1455688  32.4618530  11.0349159  74.4077148
  32.2928810  10.7780361  73.5012436  32.9933624  10.3227139  74.7633820
   4.9554334  68.1942902  88.8776932   5.5683889  68.7958832  89.3003006
   4.8093028  68.5714951  88.0101700  20.1754913  34.2922783  70.6364670
  19.3064728  34.6150703  70.8748856  20.7068806  35.0827484  70.5415268
  48.1967354  34.4366951  29.0504074  47.6093712  33.7172966  29.2821369
  49.0723000  34.1041489  29.2479649  19.7154751  41.0164719  87.2790298
  19.0573444  41.4689827  86.7514648  19.3678417  41.0435257  88.1704636
  45.5798454  57.1938210  23.1713238  44.8896942  56.5961151  23.4588547
  45.2465172  57.5704994  22.3569298  60.0178146  40.0719795  41.0191002
  60.0116768  39.9047470  40.0766449  60.7731552  39.5821838  41.3443527
  65.1946945  42.4649239  52.2151299  65.5676651  42.9198532  51.4600410
  65.6810760  42.8071251  52.9651718  30.7180328  45.4580536  30.8834972
  31.3130951  45.3357620  31.6232109  31.0652599  46.2203407  30.4202633
  48.2112083  39.5748253  12.0081406  48.8213005  38.8955383  12.2955246
  47.6415367  39.1339912  11.3777685  51.1490555  53.3944435  72.4381104
  50.2956848  53.1222038  72.1006622  50.9545860  53.7971230  73.2844391
  43.3515816  45.0819893  16.3400555  44.2942657  44.9225197  16.2937603
  43.2538261  46.0071602  16.1148090  51.2949905  24.5393963  70.5450211
  51.2706490  24.5419788  69.5881348  52.1972313  24.3037376  70.7610245
  11.6429615  15.6519547  28.1346588  11.6033325  15.1100321  27.3466358
  10.7277708  15.7765818  28.3859081  29.1874142   0.5830634  67.5305710
  28.3079739   0.8939180  67.3156586  29.2337837  -0.2910451  67.1432495
   1.7991670   0.6453186  22.9978390   2.3253150   1.1543279  22.3811474
   1.4350529  -0.0664338  22.4714737   5.4698176  65.3186188  20.4899616
   5.9154077  66.1396255  20.2811108   5.0306334  65.0707703  19.6763763
  68.4373016   8.6133881   2.3252347  68.6328583   8.9915104   1.4679053
  67.7001953   9.1292477   2.6520309  41.7674408  16.2217102  71.2297211
  41.7130165  15.4128876  70.7207184  40.9104118  16.2990017  71.6489563
  70.9316864  28.4411869  54.6561012  70.5448456  27.6570358  55.0455780
  70.5676270  29.1657696  55.1646996  18.8809986  45.1788063  61.3867378
  19.0464935  44.6797104  60.5868950  18.3217354  45.9030304  61.1057434
  43.9429131  45.2567596  20.2811184  44.4232216  45.8233795  19.6774006
  44.0018501  45.7025299  21.1261330  57.6440887  25.9451542  25.2994537
  58.0177460  26.2945080  26.1085033  58.1420097  25.1450691  25.1316051
  34.6730919  39.1250381  11.4487095  34.9427223  39.0075798  10.5378122
  34.2078857  39.9615631  11.4548244  42.8621216  58.2175827  56.5223007
  43.6014328  58.7527275  56.2337341  42.7253036  58.4704971  57.4352875
  72.2391205   0.7958521  23.9146557  73.1015472   0.7602787  23.5009193
  72.2895050   0.1601095  24.6284657  54.3855782  10.0416565  21.2418079
  54.1295967   9.1603374  21.5138054  53.8273277  10.6232204  21.7579193
  34.3396988  55.6038742  20.3902187  33.8002167  55.9518929  19.6802387
  34.3850060  56.3162842  21.0279121  22.2349129  54.6215324   8.1828165
  22.0954971  55.4849014   7.7937260  21.7327938  54.6420555   8.9974861
  39.4888763  60.2845001  78.6492844  38.8398743  60.3159676  79.3521576
  39.0482750  60.6824608  77.8984604   5.3833323  57.0507393  11.9484768
   4.5024529  57.1500130  12.3096247   5.8428097  56.5029984  12.5849466
  19.3220921  70.0370102  47.9534454  19.9754429  70.5850601  48.3881912
  19.2139988  69.2853317  48.5361404   6.0242572  62.3575706  53.8917503
   6.1139798  61.4511833  53.5974007   5.0988560  62.5623779  53.7578888
  21.9891834  40.6229744  79.1007538  21.3502369  41.2052460  78.6897354
  21.5231285  39.7938690  79.2084808  50.4137459  70.2758026  87.0191193
  50.6787415  70.7290192  86.2187347  49.6215477  69.7982941  86.7728806
  15.6113586  68.2405167  18.7370605  14.7007370  68.5318146  18.6907215
  15.9105453  68.5260925  19.6002903   5.7460847  12.1973848  82.8797226
   6.6161604  12.5938311  82.8346481   5.5880599  11.8654366  81.9959412
  66.4964523   0.2366787  68.8029251  66.8007889   0.2096408  69.7100525
  65.5747528   0.4869196  68.8668823  53.7186661  49.5105286  20.1169720
  52.9066238  49.0980110  19.8226128  54.0075302  48.9719620  20.8536797
  82.6199875  17.4080753  57.7157631  82.2583313  16.8706570  58.4204712
  83.1923523  16.8135643  57.2307968  77.1959686  20.9484100  88.3843307
  76.8318710  20.2582779  88.9387512  78.0637589  20.6266193  88.1401443
  67.0076294  37.9910278  35.3379593  66.9448318  38.9067154  35.6096306
  66.2540283  37.8596840  34.7625732  30.9854031  46.7128220  26.7671947
  31.6015892  46.2560349  26.1945763  30.1552753  46.2533112  26.6408386
  25.5670204  10.2920246  43.3759346  25.7963486  10.2276115  44.3030243
  25.9596443  11.1164227  43.0888023   0.6918756  35.9256744  79.9045639
   1.3800248  35.5142212  80.4274292   1.1637224  36.4252548  79.2382202
  42.9172401  54.2965736  70.4372406  43.2163086  53.4586678  70.0841064
  42.0464058  54.4187126  70.0591431  62.8453865  19.7916050  80.9115677
  63.5323143  19.6754265  81.5679703  62.6682587  20.7322693  80.9141541
  61.5645523  46.6810074  23.4552574  62.2771149  47.2215576  23.1142311
  61.6973114  45.8249779  23.0480537  86.9340210  37.5638504   9.9106483
  87.0977020  37.3470192   8.9928112  86.3443832  36.8752823  10.2179499
  76.8164902  52.1529617  58.2905655  75.9684067  52.1544914  57.8467331
  76.6216278  52.4467735  59.1804733  82.9176331  50.5437355  44.2521744
  83.8368149  50.3037605  44.3694649  82.6491241  50.0822945  43.4576874
  56.4334984  42.7004700   8.9276257  57.3757668  42.6443634   8.7688217
  56.0829201  43.1210976   8.1425152   6.7316508  43.3171959  88.8198776
   6.1381412  42.6923370  89.2364502   7.6050997  43.0363922  89.0927658
  66.8455276   1.7309858  71.6328506  66.5913086   1.4460576  72.5105820
  67.7960281   1.8336180  71.6802597   4.7264161   9.4957352   1.2401904
   5.1866536   9.4592905   2.0786920   5.3549652   9.8956289   0.6391557
  10.0238905  68.7961502  49.7192841  10.2914200  68.4526596  48.8668289
  10.2324343  68.0947113  50.3363113  -0.2166817  11.3432083  72.4784546
   0.0159487  11.8192949  73.2756042   0.5563625  11.4202375  71.9192581
  49.7296257  51.9951897  18.0618954  49.7396011  51.8968353  19.0139771
  50.3662758  52.6879807  17.8859901  14.8729801  60.6545830  39.6358414
  14.3092489  59.9342575  39.3537598  15.7265739  60.2472076  39.7829895
   8.9194365  46.1232605  22.2892475   8.8904352  45.1856422  22.0988121
   9.1305685  46.1718750  23.2216053  74.9561920  66.0434113  18.6223202
  74.7974701  66.9176865  18.9782448  74.2541656  65.9132843  17.9847755
  81.3463974  18.5936451  10.2772226  81.2591782  17.7675610   9.8016090
  81.3312378  18.3412476  11.2004213  54.0277596  40.4251137  41.0656395
  54.1306381  40.3798714  42.0162163  53.6421318  39.5824165  40.8260880
  80.9124298  38.8107986  46.8700638  81.5736771  38.8961563  46.1832657
  81.4021072  38.5191917  47.6390991  16.1612568  70.6928101  71.9475403
  16.4443817  69.7800369  71.8935242  16.8136749  71.1763382  71.4408035
  60.6803017  24.1749630  13.1314116  61.6102562  24.3103237  12.9494839
  60.5141678  24.6866817  13.9231024  31.1342697  65.9186859  43.0456810
  30.5862179  65.2681732  43.4846535  30.7366257  66.0227890  42.1812325
  76.9010162  43.6151352  52.0440598  76.5077820  42.8293152  51.6644783
  76.3566437  43.8109398  52.8066521  38.2309036  70.7408600  16.2208519
  38.7724915  71.3744583  15.7502441  37.6194649  70.4121628  15.5618143
  25.3934956  43.7828102  21.2549610  25.8980770  44.5791893  21.0893955
  24.9325180  43.6160812  20.4328098  25.7946415  62.8331108  19.9252415
  26.3447552  62.4592552  20.6135979  26.0287094  63.7611122  19.9091339
  57.6171417  52.2922134  70.9146347  56.8349419  52.7434845  71.2320480
  58.3243103  52.9262352  71.0336304  10.2148886  44.7427788  77.5654373
  10.8692265  44.0988808  77.2943726   9.5624332  44.2334251  78.0461578
  77.9309616  63.9831352  59.5565414  77.7534485  63.4362106  58.7912979
  78.7737122  64.3951569  59.3661652   4.2411866  30.3978653  41.5787277
   3.9667046  30.7220459  42.4365120   5.1851511  30.5545979  41.5542793
   0.1235740  23.7383556  52.2164230  -0.2929468  22.8797436  52.1420898
   0.2855980  23.8456268  53.1536942  36.5085526  15.5618496  82.1564713
  36.2001419  15.0961103  81.3791656  37.3228264  15.9805794  81.8774490
  26.4145412  35.9392128  81.7902603  26.5837479  35.4398270  82.5891418
  25.9108658  36.6981773  82.0843964  61.4501991  16.4539490  16.4953156
  61.8227463  16.4223595  15.6141548  62.0093422  15.8743515  17.0126743
  27.5143242  20.8153973   8.8954191  27.9757366  20.2537994   8.2725735
  26.9720039  21.3841419   8.3489304  82.1418915  28.6435013  75.0566940
  82.7926178  28.1724052  74.5362625  81.3519974  28.6362877  74.5160904
  79.3059387   6.8813844  64.5001907  78.9056015   6.0641384  64.7969589
  78.6687317   7.5576015  64.7302704  42.7992897  54.8056450  80.6702194
  43.1116676  54.4078178  81.4828644  42.7955818  55.7458420  80.8498077
  17.6922760  17.7244453  23.6155643  17.0334930  17.6132755  24.3010426
  18.4956951  17.3690262  23.9955997  79.0289230  35.1687508  21.9953213
  78.2061234  35.0379868  21.5240135  79.7059097  35.0801735  21.3244514
  28.1561527  52.7194786  49.8660011  27.5418587  53.3960991  49.5812874
  28.9350491  53.2033539  50.1406212  54.1959534  54.2797852  17.3464031
  54.2661667  54.2905731  16.3918419  54.8666840  53.6580505  17.6288872
  49.2828941  17.3889103  13.4762154  50.1901283  17.2263012  13.7345037
  49.2587318  17.1805344  12.5422840  55.6363258  19.2347507  26.6585789
  55.0172005  18.5061722  26.7043247  55.4507332  19.7561646  27.4395485
  31.8790016  46.1652756  68.5965118  32.1018829  46.8094215  69.2685471
  32.7025299  45.7115707  68.4171219  16.5769844  11.8124037  53.9770851
  15.9528923  11.7195234  53.2572861  16.9602737  10.9408579  54.0757256
  27.6724815   4.3371649  22.0037670  27.7717609   4.5298214  21.0714264
  27.4211140   5.1734810  22.3957138  14.1873875  11.2599592  71.6752014
  13.3219452  11.6424932  71.8198013  14.0621662  10.6531334  70.9456024
   3.5370126  14.3631115  82.1480255   3.4149611  13.6279726  81.5472717
   4.2211733  14.0696716  82.7497330  17.6131954   2.9318295  87.7372589
  17.6788807   2.2900195  88.4443588  17.7541599   3.7759116  88.1660767
  36.7307549   8.2413855   3.4668171  37.4940491   8.2365713   4.0443921
  36.6226463   9.1599855   3.2204072  46.4152565  45.1277313  28.0568619
  46.2662582  45.5980873  28.8771038  47.3312607  44.8534698  28.1010208
  11.7043285  58.8380585   4.2103381  11.0531178  58.1523285   4.3584304
  11.1897736  59.6382790   4.1049428   7.2065940  24.8545227  34.5399323
   7.6960540  25.0000191  33.7303085   6.3656120  24.5002480  34.2510185
  56.6338730  25.4120350  76.4963226  56.6589127  25.0457516  75.6123276
  56.1717224  26.2444515  76.3976669  85.7719574  59.1820107  25.8407288
  86.0625153  60.0118980  26.2190037  84.8936310  59.3652649  25.5072746
  21.7740726  23.5821095  83.7055588  21.3522587  24.4268818  83.8626099
  21.9714470  23.2466927  84.5800705   1.0115775   6.1096191  74.1476669
   0.7167568   5.4237008  73.5486450   1.2777343   6.8292522  73.5753708
  63.4976730  26.3452129   0.7512643  64.1160736  25.6865444   1.0674514
  62.8065109  25.8392754   0.3240015  83.6922379  30.8621235  27.2810383
  83.5472183  31.4540501  26.5429173  83.2805786  31.3017082  28.0250359
  15.8863401  61.6835213  59.0428696  16.8053741  61.9507866  59.0562210
  15.4735289  62.2110786  59.7266121  45.1853790  48.7147369  10.5000172
  44.9655380  47.8675499  10.1124916  45.0591507  48.5879707  11.4403524
  41.8378105  70.1729507  46.0982513  42.7473679  69.8935394  45.9939957
  41.8785706  70.8900604  46.7309647  77.4739304  67.9523926  36.3519630
  77.4408569  68.7299576  35.7947044  77.4594421  67.2174988  35.7388115
  73.8082047  68.0634384   7.5119033  73.1367035  67.9279709   8.1804628
  74.0832748  67.1801224   7.2662878  76.5816040  22.9556808  60.6453514
  76.8908691  23.3516388  61.4600906  75.9055328  22.3368225  60.9213486
  51.4867134  55.1482162  44.1582756  51.3974419  54.4123268  43.5526962
  51.1068954  54.8314285  44.9777985  76.5263824  67.2702255  83.1009674
  75.7233505  67.7740326  83.2334518  77.0200806  67.3886948  83.9124298
   3.1215506   7.5153685  41.3600159   2.6996071   7.6183228  40.5070229
   2.6931453   8.1636667  41.9189529  26.3738194  51.0904808  22.8313923
  26.9373493  50.3451195  23.0390015  25.4854012  50.7693787  22.9857807
  81.8114471  47.6387253  61.4367409  81.3985519  48.1401863  60.7336845
  82.3533936  48.2773628  61.9000664  51.0768471  20.9650345  72.3512344
  50.8706093  20.7225132  73.2539368  50.4397316  21.6457539  72.1345825
  70.5991974   6.5707550  14.1701393  70.8562546   6.6177588  13.2493019
  71.4149170   6.3911767  14.6376610  85.8688354  32.8086395   8.3717556
  86.7011490  32.3358994   8.3739576  85.2056961  32.1265640   8.4778290
  10.7631826  22.3964596  18.3684025  11.3453817  21.6399727  18.4391403
  11.1092043  23.0250607  19.0019302  31.5616493   0.3190834   8.8379688
  30.6127548   0.3598045   8.9570217  31.7485561  -0.6123199   8.7205563
  24.9446449  44.6876602  10.2679100  25.1269894  44.2286835  11.0878620
  25.5593052  44.3087654   9.6395273  78.8513031  70.5272827  69.7935257
  78.9372177  71.3793945  69.3660278  78.4334869  70.7213058  70.6325836
  75.8828583  26.1940880  34.3810997  76.3431091  26.8583965  33.8681679
  76.5346527  25.8821011  35.0088425  43.3348045  22.4697895   5.7673163
  44.2698936  22.6540985   5.6786304  43.2987022  21.5928688   6.1493363
  38.5772324  44.2787971   1.0550447  39.0322609  44.0019684   1.8503727
  39.2626762  44.6627998   0.5082862  35.0518456  54.1436462  49.1083450
  35.1921730  53.7868690  49.9854164  35.7830200  54.7469139  48.9753685
  85.9542923  10.9532681  78.6181412  86.6482544  10.6033945  78.0593567
  85.1431580  10.6449156  78.2141495  72.4710007  15.7018633  18.4860611
  71.7325211  16.2006207  18.8355179  72.9807510  15.4560528  19.2580509
  47.9066315  54.6522026  35.8892975  46.9705086  54.7272682  35.7041740
  48.1059647  55.4166679  36.4297485  61.5052452  28.9515533  30.8353786
  60.6817093  29.0537910  30.3583355  61.3791351  29.4527206  31.6410828
  22.5442181  37.8254013  68.6412582  23.3498039  38.1701775  68.2560425
  22.0709801  37.4414558  67.9031067  17.4355774   6.7613320  66.7386932
  17.5325184   5.8931437  67.1299515  16.6640816   6.6861725  66.1771088
  22.0958233  26.5466957  81.8261948  22.3730431  26.9496384  81.0033798
  22.9132462  26.3472977  82.2825775  38.0172081  63.2823944  72.4107819
  38.8946571  63.6215248  72.2338333  37.7729950  63.6754303  73.2487030
  78.8782654  15.2485867  16.1961498  79.6933365  15.7175760  16.3748493
  79.1033401  14.6350822  15.4967318  67.3199615  17.7962093   0.3098316
  68.0730362  17.6451397   0.8810441  66.8476944  18.5194054   0.7223656
   3.4934561  56.4518929  87.4736023   3.0279129  55.8845940  88.0881577
   2.8462005  56.6559219  86.7985764  79.1942062  33.0353394  10.1808348
  79.0468063  32.0984154  10.3099604  78.3444138  33.3750687   9.9003487
  67.4020844  18.7371426  56.5102196  66.4749985  18.9579830  56.5995445
  67.6461868  19.0726433  55.6476173  22.2745914  12.0884790  84.6291351
  21.9292259  12.4825077  85.4301910  21.6432133  11.4040699  84.4073715
  64.2317734   5.4758816  15.6678963  63.9740944   5.6065311  16.5804558
  63.6707993   4.7639437  15.3601923  85.0272446   0.8499713  84.1190643
  84.6025009   1.5890502  83.6836548  85.9635162   1.0358660  84.0478058
  78.7639389  29.3518524  35.3433189  78.3799744  29.9458752  34.6983833
  78.6479340  29.8003483  36.1809502  29.1488152  11.4974098  88.0174408
  29.7934685  11.0435123  88.5602341  29.6628742  11.8865089  87.3099213
  54.0468254  49.2994766  68.0601425  53.9273224  49.8999939  67.3243942
  53.5065193  49.6670876  68.7595444  73.3614502  69.6890717  36.1046028
  73.8484039  69.1351929  36.7147903  73.9001694  69.7051544  35.3135567
  57.0611839  69.6593704  55.8532486  57.1626320  68.9374847  56.4735947
  57.7979317  69.5620499  55.2499542  58.5250015  48.3599701  45.3575974
  58.4659882  47.4132767  45.4861259  58.6352158  48.4669991  44.4128075
  20.3594913  55.1481285  24.9200306  19.4405994  55.3556442  25.0897522
  20.3305111  54.3677902  24.3664379  18.5213604  42.1889534  39.0443764
  18.5138474  41.2505302  38.8558655  17.8017082  42.3147812  39.6628418
  23.0129738  66.6000900   6.5578227  23.0735378  67.0977173   7.3732557
  23.5237236  65.8074646   6.7224488  33.9643097   3.4372072  32.7514839
  33.9750900   2.8874302  31.9679909  34.0593300   2.8210180  33.4777832
  28.5861950  47.4896736  47.6064224  27.7832432  47.3168259  48.0979767
  28.2849655  47.7055168  46.7238655  28.8164215  44.7253189   3.1329734
  28.2137852  43.9818382   3.1502118  28.3846397  45.3959351   3.6621888
  83.5644608  49.0967865  39.2131271  83.0172653  48.3487129  38.9739685
  84.4606476  48.7953796  39.0640450  37.1693192  47.4516411  34.5837936
  37.2163849  48.1652641  33.9475861  36.7272224  47.8349075  35.3413467
  50.2690544  29.5695705  66.4523544  51.1466331  29.9510670  66.4757156
  49.7455025  30.2030277  65.9615784  44.3306122  30.4318275  31.5682545
  43.8800011  30.7650604  32.3442307  44.1895752  29.4855194  31.5972862
  56.8014565  17.8665771  44.1098938  57.3384781  18.2655983  44.7944527
  55.9945374  18.3814659  44.1078873  73.9129944  56.6383247  61.2790222
  73.5226898  57.2957458  60.7030983  73.4896774  55.8176041  61.0271263
  19.6272717   6.6315551  52.6176949  19.9047890   7.4792848  52.9649277
  20.4321918   6.1153564  52.5743752  71.4461517   4.0353007  31.1371346
  71.3990173   4.2691946  30.2101479  71.1685791   3.1197336  31.1675529
   3.1030722  67.1406708  56.4317436   2.4656303  66.8402710  55.7839317
   2.7103286  66.9174194  57.2756271  25.5315342  60.5237617  63.8255463
  26.0330219  59.8545113  63.3598785  25.0964966  60.0480156  64.5331039
   5.8560791  58.9471970  15.1311779   5.4802670  58.1534920  15.5120029
   5.6136079  59.6436501  15.7414188  34.2350273  51.0713043  88.7980118
  34.9915848  50.8651085  88.2490692  34.0460320  50.2554703  89.2616196
  20.6746559  60.1662407  64.2183533  20.5110760  60.7636375  64.9481354
  19.8147373  60.0349388  63.8189354   6.3056116  25.5363159  81.4162598
   6.6616139  25.4826794  80.5293427   7.0552807  25.3644028  81.9860611
  84.2086411  19.4571896  35.4329987  83.2971268  19.2360554  35.2420311
  84.2515106  20.4076805  35.3282928  61.5402832  19.7784023  88.7961044
  61.1189499  20.6353569  88.8619843  62.3432388  19.9436474  88.3019485
  20.8926029  10.0349817   5.0475960  21.8231068   9.8785973   4.8865314
  20.5786266  10.4566402   4.2476869   5.1730747   0.8569629  66.3021774
   5.0556674  -0.0898283  66.3798599   4.6812596   1.0956315  65.5164413
  73.1201553  45.7936859  84.8078156  73.7689667  46.1982040  84.2319336
  72.4628830  46.4759598  84.9446564  83.5084534  70.5050888  52.1858253
  83.5128708  70.2692947  51.2581291  84.2297592  71.1275253  52.2781792
  16.9791088  65.2097092  61.8965340  16.5258713  65.7081299  61.2165451
  17.2448959  65.8677444  62.5388603  58.4554253  15.5283718  47.2193832
  58.1664963  15.4413977  46.3109856  57.7386360  15.9889364  47.6556511
  40.1617050  47.6228027  61.9861336  39.9316101  46.7324944  61.7203522
  40.2174416  48.1111107  61.1647453  60.9063530   4.5869589  47.4966850
  60.2074814   4.7676144  46.8680573  60.7503624   3.6846497  47.7755013
  47.1302719  61.3535957  19.6647930  47.3187523  60.4543686  19.3962784
  46.5756073  61.7008820  18.9662437  70.6503830   1.8884829  60.5358391
  69.8765335   1.8308654  59.9754181  70.6550293   1.0646634  61.0232086
  72.9924698  39.3322220  82.8295288  72.4250183  40.0786324  83.0221481
  73.4907074  39.6028709  82.0583420  40.6959610   9.9060183  70.8798447
  41.4787216  10.4555140  70.9194336  40.3208351  10.0852861  70.0176544
  50.2567024  23.3689537  32.4791908  50.5490417  22.6474228  31.9222698
  49.6289558  23.8491459  31.9392109  17.5415401  22.0582695  85.6244049
  18.4691792  21.8227406  85.6088638  17.4652100  22.7727623  84.9920197
  51.9808197   9.1044455  45.2996140  51.2159386   9.1870499  44.7300873
  52.3624611   8.2580385  45.0668488  74.8198013  29.8295708  14.0873146
  74.7506256  30.4096279  14.8455896  75.7594223  29.6764584  13.9878168
   6.5598750  39.6111870  77.5484924   6.5485048  39.1601410  78.3926849
   6.3744087  40.5254440  77.7629013  67.3157196  66.8050385  21.6823826
  67.5686188  65.8828125  21.6401920  66.4724045  66.8016586  22.1351891
  82.2720642  59.6996346  12.7683773  81.4061966  60.0605240  12.9588127
  82.4104538  59.8863907  11.8398294  31.4780483  71.1184998  21.2258778
  30.8663445  71.1488800  21.9614906  31.9736061  71.9347153  21.2925930
   1.1196272  61.9082336   5.2698131   1.8842858  62.0383301   4.7089171
   1.4380863  61.3574104   5.9849424   0.4595025  45.4330559  30.5915756
   0.0692094  46.1082611  30.0365944   1.1426238  45.8909645  31.0813675
   1.1101016  17.9384327  64.3007736   1.7127256  18.1519279  65.0131607
   0.2531562  17.8758316  64.7226257  48.3895302  49.2609291  42.6941299
  48.5422783  48.3179169  42.6338997  47.4905815  49.3380127  43.0137901
  18.2758579  44.7485123  30.3418846  19.1819324  44.4676247  30.4697990
  17.8969421  44.7427101  31.2208729  19.3102379  33.6382942  80.8987656
  19.8085785  33.6429214  80.0815353  19.8553600  34.1281586  81.5144806
  56.3777351  58.5585709  53.3449707  55.8718910  59.3248138  53.6155663
  57.0405731  58.9074173  52.7489967  34.9702301   7.1777539  27.8417473
  35.4731979   6.5500579  27.3228512  34.1025887   7.1819406  27.4375000
  79.2093353  28.1079578  13.3642368  79.2344284  29.0354729  13.5994358
  80.0139923  27.7451172  13.7345238  80.6867447  20.1629982  41.2978363
  81.3013229  19.4717674  41.5442619  81.2338257  20.9399185  41.1823730
  73.1366653  32.4712257  24.1715374  72.2652054  32.6515579  23.8190098
  72.9933624  31.7883472  24.8268013  34.9676628   9.2438984  76.1046753
  35.3225632   8.3976631  76.3770065  35.6149254   9.8825178  76.4037476
   4.0296946  42.6401329  21.9847298   3.2574286  42.6787148  22.5489540
   4.1753874  43.5471458  21.7157898  71.0178757  10.5929642  53.5855217
  70.7629318   9.7293730  53.2607994  70.4403076  10.7479048  54.3329430
  81.2184372  14.3632174  43.2706337  81.3450241  14.4632635  42.3271294
  80.4849472  14.9426813  43.4766617   8.9235497   2.8928716  63.5160484
   8.0714731   3.1864381  63.1935310   9.3788280   3.6993160  63.7581215
   2.1504781  64.1327820  55.7166405   1.6917664  64.5576859  54.9918823
   3.0146897  64.5441895  55.7271881  17.6131325  25.2495899  88.7406082
  18.2492905  24.5350437  88.7715759  16.9296570  24.9886932  89.3578796
  79.2599640  23.5089130  39.7268867  78.8164673  22.6902962  39.9491806
  80.1774673  23.3526211  39.9504700  80.0823669   3.9089537  84.5666656
  80.7716064   3.4535689  85.0502090  79.6713715   3.2266703  84.0358200
  72.9850922  39.4739113  29.4827576  72.8889771  38.6654167  28.9794407
  72.7359238  40.1674080  28.8718510  42.7967873  14.3026028   0.9208105
  42.7489700  14.9254007   0.1955044  43.6905365  14.3892450   1.2523770
  36.7293396   4.9001265  29.8799000  37.5785027   5.1909976  29.5474110
  36.9369354   4.4268627  30.6856022   0.8584503  10.8331985  59.9598694
   0.0836113  10.2987051  60.1335716   1.3660870  10.7895718  60.7701988
  16.5840225  36.4179077  18.9348984  17.0348568  36.8792763  19.6420918
  16.3954582  35.5517273  19.2960167  34.1815834  37.3723907  74.2091141
  34.8124924  37.5987129  73.5257721  33.6088333  36.7231865  73.8008041
  86.5956116  67.6982040   1.4077556  86.3540726  66.7960739   1.1978785
  85.8026810  68.0761566   1.7880771  72.7957687  40.7859993  60.0500870
  72.8949661  40.3968124  60.9189529  72.9117126  40.0535164  59.4448929
  70.9630966  34.8180504   6.0327282  70.9772186  34.4799271   6.9281087
  71.8671265  35.0824699   5.8622746  37.9094086  65.6633224  24.0503025
  38.7037468  66.0661392  24.4010124  37.3659706  66.4028015  23.7781143
  47.8690758  47.8918228  23.9108257  48.1604271  48.3295746  24.7106514
  48.3925705  48.2901649  23.2154789  70.1778564  51.4721222  79.9697647
  70.6025162  52.3101158  79.7862930  69.7072372  51.2605209  79.1635590
  61.4374847  19.7769260  78.2224731  61.4446182  20.3146038  79.0143661
  62.3002319  19.3626289  78.2064972  68.4118271  33.3852119  80.9434814
  67.5212173  33.0424118  80.8690720  68.6831207  33.1562042  81.8324051
  32.0442963  55.8598480  12.1921968  31.1309662  56.0486832  12.4076071
  32.0036125  55.4142799  11.3460016  24.8390999  26.7639847  82.8548813
  24.8352203  27.7195415  82.7989578  25.7667542  26.5280228  82.8582153
  62.7194633   5.5657363  80.0315399  62.0075188   6.1985860  80.1257095
  63.4601822   6.0836611  79.7163849  19.9983063  13.3962059  14.3713541
  19.6706448  14.2914858  14.2856569  20.0897141  13.2639055  15.3149500
   5.0482531  14.8357210  17.6846447   4.5950770  14.1651545  17.1735630
   4.8609238  15.6543283  17.2252731  50.3012733  64.4235001  87.7651138
  50.4125900  64.3566132  88.7134628  50.6915665  63.6201210  87.4208908
  16.1046906  38.7669983  51.2293587  15.7367277  38.7946548  52.1125755
  16.8964787  39.3021965  51.2828941  43.4169006  45.1644707  44.5601196
  43.7785263  44.5597305  43.9122391  44.1066208  45.8149986  44.6917496
  50.1911545  36.4683037  80.3094559  50.0372505  36.9911308  79.5225677
  49.3334007  36.4108582  80.7304001  42.9690933  41.1503944  60.3774757
  42.2738495  40.5680885  60.0712318  42.9325142  41.9001465  59.7835312
  35.4884987   6.3005118  81.4811859  35.7542114   6.5264673  82.3725739
  36.2741280   6.4438238  80.9534760  11.1346846   3.0335214  89.3754654
  11.1793718   3.3768463  88.4830780  10.6368237   3.6915550  89.8606033
  39.9544525  59.7824135  37.8405304  40.2326851  59.1087418  37.2200584
  39.2455139  59.3730621  38.3365784   8.9052677  66.5102539  55.4140396
   8.7042675  66.8167801  56.2982750   8.4422626  65.6758728  55.3387642
  61.1984711  39.1281166  80.9933777  60.4909592  39.6080818  81.4238358
  61.8478966  38.9894943  81.6827698  60.1783295  23.4554157  86.3315735
  60.4115944  23.3382740  85.4106522  59.2236671  23.5250816  86.3298492
  58.1641312  51.8821831  13.0431414  57.9990234  51.0711517  12.5623064
  58.1487503  52.5653687  12.3728800  74.4614334  46.3721542  72.3490753
  73.9656754  45.8031921  71.7602310  75.2135544  45.8436050  72.6158905
  56.0539055  54.5835838   8.3781519  56.5624733  55.2474442   7.9124537
  55.9233589  53.8869438   7.7348132  35.3984337  35.9609795  85.9128189
  36.0324936  35.2466507  85.8500900  35.9324112  36.7553711  85.9188614
  70.2704697  64.0262070  77.0296936  70.3450928  64.2432098  77.9589767
  70.8112488  64.6801758  76.5868454  81.6350632  65.1965561  73.3154373
  81.9841537  64.9624557  74.1754150  80.6884232  65.2486572  73.4473038
  69.2348633  41.3905296   3.5909505  69.3233414  40.4964104   3.9210339
  68.3011703  41.5848007   3.6729186  44.4349556  17.9100780  10.1557703
  43.9706802  17.6016483  10.9339428  45.3231888  18.0914440  10.4629831
  34.5621605  70.1696701   2.7939162  35.3717613  70.6059799   2.5285661
  34.6555061  70.0454254   3.7384164  76.3727493  42.5575027  48.2923203
  75.9891586  43.1426582  48.9455299  76.1619110  41.6779022  48.6054916
  60.4884415  -0.0121513  30.0343094  60.7646675   0.8428964  29.7044258
  61.1730270  -0.2620029  30.6549129   2.2594821   8.2051201  80.7154846
   1.3209957   8.2758255  80.5409164   2.6739483   8.6712303  79.9894104
  21.6069851  37.8782806  25.3273201  21.2151909  37.9842377  24.4604282
  22.3511391  37.2935371  25.1839886   7.5839124  40.3298225  87.1653748
   7.6320662  39.7575531  87.9311600   6.7484322  40.1091805  86.7536469
   6.0249925  22.9735832  79.1663284   5.6609821  23.7746639  79.5431595
   6.5841970  23.2777557  78.4514847   0.2600954  69.9867020  31.2639236
   0.9774444  69.9490356  30.6312923   0.2634925  69.1253738  31.6814518
  27.4567127  63.8702011   8.2019768  26.5119801  63.9964752   8.2900953
  27.6318264  63.0468063   8.6575966  65.4545059  48.4443550  71.3586655
  64.5444565  48.1550331  71.2929001  65.9557648  47.6358757  71.4651337
  41.1610565  41.1627388  21.3692551  40.4689560  41.1179504  20.7095432
  41.7715988  41.8181534  21.0317574  29.4428329  68.6406326  46.0462723
  29.2502327  69.5764008  46.1052055  30.0470295  68.5665131  45.3075676
  34.6102180  18.3467236  86.2408905  34.9684525  17.8607826  85.4980850
  33.8206444  18.7636642  85.8959808  34.9084320  65.0973282  68.4935303
  35.2269363  64.7975311  69.3449478  34.9470177  66.0522995  68.5460892
  49.0108910  65.8895950  56.2235298  49.3243332  66.7885208  56.1239471
  48.1194038  65.9826126  56.5594254  10.9763498  71.8483887  58.7610931
  10.2568274  71.2646790  58.5206680  11.5031805  71.3383255  59.3763313
  39.5284729  15.3844948  86.2936020  39.1403770  14.9683685  87.0633163
  38.9849586  15.0903034  85.5626602  86.0467529  70.5650635  76.8374634
  85.8875275  70.2581329  77.7300262  86.4038925  71.4463196  76.9473572
   2.1757367  50.2505112  45.7265091   1.7037307  50.2560005  44.8937950
   1.4892892  50.1861877  46.3904991  37.7163467  11.4718790  70.6803589
  36.9631233  12.0624924  70.6723480  38.4332809  11.9931307  70.3190689
  81.3252792  57.8560410  44.9700470  81.7061691  57.2710838  45.6250114
  80.6780396  58.3687057  45.4542809  85.4524460  14.6742868  34.9589767
  85.5740509  14.7021036  35.9080124  86.2035980  15.1520100  34.6071510
  55.8747177   1.1032859  31.6673222  56.2711449   1.3792470  30.8409309
  54.9689636   1.4078828  31.6119633  12.5785809  54.0054588  79.8168869
  13.4698286  53.6639023  79.7444382  12.2573338  54.0296135  78.9155273
  61.2984390  57.1893311  43.4924278  61.3821640  57.5500717  42.6097679
  62.1871452  56.9224625  43.7273979  32.3523445  45.7972412  85.8461685
  32.5551109  46.7315445  85.8930206  31.4057426  45.7505684  85.9803162
  75.4938812  37.5563812  31.1027355  75.2046509  37.0293808  30.3578548
  74.8939285  37.3205414  31.8103218   4.7158446  32.3205223   4.9161611
   5.0270371  33.2200584   5.0172853   5.1007271  31.8494282   5.6551919
  49.7559166  58.7622871  50.8572617  49.3200760  58.9297142  51.6928711
  49.5028114  59.5004845  50.3029747  33.6011734  52.5070763   5.6401019
  33.5986137  52.2788582   4.7105088  34.2846184  51.9552040   6.0203285
  34.1216164  32.0888481  85.2595062  33.5993080  32.3974953  85.9998932
  34.1788788  31.1416569  85.3851166  26.7713642   7.9176526  53.8451958
  26.9963093   7.6734223  54.7429619  26.9133816   7.1190372  53.3369865
  74.7701950  37.2145882  80.3621902  75.6795425  37.5109177  80.3232651
  74.6025925  37.0777245  81.2946167  17.0464935  12.6685724  23.0228920
  17.9472046  12.8980274  23.2515945  16.7792072  12.0453186  23.6984253
  29.6060505  67.5835648  53.4111824  30.1559067  67.6937485  54.1869049
  30.0573769  66.9195175  52.8900452   4.2061038  25.5312767  31.1830044
   4.6517458  25.6547241  32.0210953   4.1382813  26.4125957  30.8157024
  30.2443447  66.7978973  10.5032902  29.9114494  66.0359268  10.9774323
  30.0346928  66.6198654   9.5864573  73.6680756  40.7933655  80.6922226
  73.6740494  41.7323685  80.5065536  74.5438690  40.4951019  80.4467468
  84.6731186  70.4867859  55.9663162  85.4797516  70.1700745  55.5597916
  84.4639969  69.8280334  56.6285477   3.8538342  69.8053589  70.1389008
   4.1087766  69.9471207  71.0505676   4.6371331  70.0245590  69.6342926
  84.0309830  32.2378654   0.8166205  83.4083405  32.2006721   0.0905629
  84.6093292  32.9688683   0.5989598  55.3434143  39.0299683   0.2451215
  55.6633148  38.1363716   0.1210973  54.4405251  38.9218178   0.5439909
   8.6924191  27.4210777  23.2673264   8.1022129  27.2971630  22.5240002
   8.3477345  26.8408890  23.9461536  12.7702980  43.6141396  65.1033707
  13.3116503  42.8558884  65.3229752  12.0322685  43.2483635  64.6157761
  58.0232353  -0.1317924  44.9237328  57.5201988  -0.4253077  44.1641045
  58.1816673   0.7981260  44.7613106   1.2858555   9.1818762  42.7864609
   1.5744581   9.9346781  43.3024368   0.6014437   8.7753744  43.3180351
  27.9034901  59.7923279  68.9075241  27.9937859  60.3169327  69.7030563
  27.6630173  58.9206352  69.2214661  71.3019638  19.7161102  59.1989632
  71.9924011  19.1218376  58.9050751  71.4130707  20.4982624  58.6584778
  35.3945999  58.7419434  85.4321976  35.0407410  59.5125771  84.9881897
  34.7044754  58.4782181  86.0408173  73.4567337  70.1622696  40.6625366
  73.3521118  70.7615204  41.4015808  72.5623322  69.9750366  40.3775330
  40.2469559  49.5779533  87.9442520  40.1047478  48.8843918  87.3000565
  41.1220856  49.9120102  87.7472916  10.0380707  53.6349792  51.7545166
   9.2792978  54.2100830  51.8532562  10.1591578  53.2472839  52.6212730
  22.5249348  30.6547775  18.8376770  21.7724285  31.2410793  18.9165344
  23.2171993  31.0847187  19.3398247  12.2845020   5.7119551   3.4122870
  12.5183830   5.2940373   2.5835068  11.3320189   5.6305885   3.4611511
   5.0734911   5.7565999  79.4797592   5.6033840   4.9606380  79.5232315
   5.7099690   6.4619937  79.3633728  22.4587135  18.8293705  81.7450180
  23.2466927  18.7217922  81.2123413  21.7903175  19.1251106  81.1269455
  62.1223373   7.6097422  53.1391296  62.4129562   7.8873367  52.2703857
  61.8676949   6.6940880  53.0252571  58.0973320  27.3185749  42.2228775
  57.3911552  26.8164330  41.8161812  58.8963280  26.9758244  41.8224258
  71.9240036  62.7178459  32.8182526  71.0469666  62.5462875  33.1611862
  72.4736023  62.0438309  33.2181053   6.9720740  62.2445755  21.8216114
   7.8028793  62.5391045  22.1947708   6.6019177  63.0273247  21.4135418
  81.1536407  31.1204872  62.5234184  80.2364273  30.8529682  62.4651794
  81.3958359  31.3428059  61.6244469  77.8733368  51.4399872  72.9016953
  78.2375793  50.9189568  73.6173019  77.9769897  50.8879433  72.1266251
  53.0495377   9.0683184  80.2353058  52.7953835   8.6711597  79.4022980
  52.4238358   9.7816525  80.3613281  85.4578171  45.5557137  68.7688370
  86.1666794  46.1262207  69.0659332  85.1803360  45.9333038  67.9341736
  63.0649643   4.1267676  82.4974670  63.2076187   4.8185697  83.1434479
  62.8526192   4.5937562  81.6893463  57.6094780  31.7257175  28.7797356
  56.6776390  31.5853348  28.6118221  57.9036789  32.2750397  28.0531540
  73.2452240   8.5154381  15.9360008  73.3956375   8.1123772  16.7910728
  72.4519577   9.0380220  16.0537567  10.6929684   0.5082076  82.7599258
  10.2510414  -0.3404714  82.7339249  11.3704185   0.4051061  83.4282532
  66.8103790   0.9813113  48.2217064  67.3537750   1.6177592  47.7570686
  66.7968140   1.2932551  49.1265488  58.5445595  31.1063671   9.4726467
  57.8855400  30.8975449  10.1347027  58.0729408  31.0565357   8.6411877
  59.4369087  12.2741928  15.8696823  59.3854027  11.9733744  14.9624405
  58.5504761  12.5721054  16.0739288  28.9781246  14.6510220   1.1731167
  29.5058880  15.2955484   0.7016473  29.5924454  13.9488611   1.3871597
  65.2216415  66.0669479  43.9897499  65.5137329  66.8003616  43.4484444
  64.7704544  66.4781799  44.7270088  79.6232452  41.9843330   1.1466674
  80.4769211  41.6122246   0.9252834  79.3088150  42.3665352   0.3273483
  78.7386856   6.3811460   8.7306747  78.9777222   6.8335047   9.5396643
  78.3973465   7.0714383   8.1621542  62.5016785  26.4788303  29.2966671
  61.6052475  26.1440277  29.2733135  63.0219078  25.7474728  29.6294022
  30.8985252  58.3883667  68.9575882  30.3170357  58.8396454  68.3456650
  31.7745781  58.5153084  68.5933762  46.3485146  12.2425604   4.8714261
  46.5696564  11.3861046   4.5056214  45.7346535  12.6206703   4.2417903
  55.2671013  23.6889267   8.3613472  55.3490982  23.7677803   7.4109311
  55.6519394  24.4961300   8.7027426  38.6226120  60.1760063  34.0844383
  38.0551987  59.5430031  34.5244179  39.2351761  59.6394234  33.5813675
  14.5994854   3.4591806  66.5343094  15.3991117   3.9668760  66.6724243
  13.8901463   4.0730023  66.7248154  73.1239166  28.4323082  49.0521088
  73.5059357  28.1420422  49.8803864  73.5896149  27.9290981  48.3841782
  84.8784637  64.5548477   4.4714885  84.1206589  65.0591812   4.7674990
  84.5073395  63.8668327   3.9190998  16.2518539  21.7451401   4.5099401
  16.9360600  21.0771446   4.5532565  16.1235619  22.0158901   5.4190426
  49.0036469  62.1924057  81.1160355  49.8877869  62.1735191  81.4823380
  48.4361038  62.3589287  81.8686295  78.8161087   0.6614588  59.9121742
  78.6340332   0.0626920  59.1879082  77.9652710   1.0442293  60.1261635
   6.3262153  36.8488770   0.7236320   6.5972109  36.0423050   1.1620718
   5.9282303  36.5541382  -0.0954949   2.8494644  33.8263512   0.5203453
   3.5820503  33.2290955   0.6714574   2.7904773  33.8967896  -0.4324352
  32.2079048  48.7544518  59.2623520  31.6801510  48.2116928  59.8481140
  32.1601868  49.6321716  59.6412544  25.9755554  47.8946495  23.6619396
  26.2406616  48.3248940  24.4748592  25.1486378  48.3155556  23.4268246
  23.2581558   3.0717502   1.7808999  23.4437370   2.6131094   2.6003146
  24.1204624   3.2495899   1.4053591  29.0774364  43.9525528  61.0323067
  28.6843243  43.3502426  61.6639023  28.3760815  44.5684280  60.8201065
  51.3259354   2.9963210  45.0455399  51.2551270   2.4275970  45.8122025
  52.2375870   2.9101746  44.7667923  67.4147491  51.2719421  86.3007889
  68.2824097  51.6035576  86.5319290  67.2824173  51.5570259  85.3966599
  59.1791992  19.9548149  84.6045532  58.9843826  19.3298473  85.3029022
  60.0653381  20.2610226  84.7975006  34.8518181  50.0801964  55.4386597
  34.2319107  50.3514061  56.1157074  35.1192894  50.8971786  55.0176735
  70.5979004   6.3176360  60.9482727  71.4942245   6.1821003  61.2556229
  70.2138748   5.4409380  60.9356575  61.1704559  25.3227100  33.7786522
  60.7137604  25.4412346  34.6114883  60.6543617  25.8258305  33.1487694
  65.2053299   0.7936453  81.5568542  66.0825806   0.4555364  81.7367020
  64.8266296   0.1632431  80.9441452   5.7102957  31.8312721  27.1270466
   5.5999012  30.8990784  26.9398041   6.4874325  32.0851707  26.6292248
  21.3553562  50.2994766  49.8356972  20.5534191  49.7803230  49.7756157
  21.8822155  50.0136070  49.0894203  59.7182350  40.5599518  33.5106850
  59.8209763  41.0812645  34.3068657  58.8099098  40.7042694  33.2454529
  75.7601166  66.1888657   0.4634042  75.6769333  66.8040619  -0.2651912
  75.7261810  66.7387009   1.2461950  73.6954727  39.2369347   1.3481336
  72.8925705  39.6891747   1.6070949  73.8367157  39.5013046   0.4390733
  83.1957016  16.3466511  75.6754913  82.6848145  17.0867500  76.0033264
  83.0375061  16.3458576  74.7314529  47.9074783  11.5423603  14.0562162
  47.4333763  12.3354101  13.8061552  47.2225113  10.8900213  14.2028551
  77.6216965  67.6141815   5.9664292  77.9944153  68.4821854   5.8118668
  76.6887283  67.7172775   5.7788973  55.9791489  53.4593811  58.1491928
  55.1115952  53.6277466  58.5169334  55.8584976  52.6892128  57.5937462
  16.7486134  57.1581726  15.4499760  15.8469324  57.4741898  15.5077219
  17.1427765  57.4044418  16.2867680  35.7975616  55.7017937  67.7896118
  35.8907967  56.5983810  67.4676361  35.3535843  55.7949448  68.6324844
  59.0971642   8.1302357  28.4363594  58.2127762   8.3004227  28.1121254
  59.3951874   8.9749098  28.7739067  27.3465023  55.4596596  46.5705605
  27.3971443  55.3598785  47.5211983  27.8737164  56.2362099  46.3828163
  69.8199387  19.3194675  12.4927921  69.6065826  20.0798969  11.9520016
  69.3861084  18.5861034  12.0566702  37.1640892  20.1460056  22.9220276
  37.3208008  21.0833092  23.0366459  38.0049095  19.7360172  23.1249142
  46.3368568  29.2296772  87.2090607  46.6376839  29.7365913  86.4548874
  45.3852768  29.3330631  87.2029648  58.9507904   0.8281289  69.7516708
  59.1187401   0.5453967  68.8527374  58.4444046   1.6350293  69.6583099
  45.6313820  65.2860260  57.8426857  46.3103104  65.7940369  58.2867737
  45.6347237  64.4395828  58.2896233  48.8276405  63.7272110  65.9865112
  48.1616859  64.0808716  66.5761414  48.3647537  63.0667038  65.4710541
  19.6581573  50.5909729  74.7191162  18.8070145  50.4453316  75.1321182
  20.2946987  50.3140221  75.3781662  62.3133965  49.1781502  86.8633194
  61.9350357  48.8542023  87.6807098  63.2593384  49.1279984  87.0008316
   2.5078428  64.5850906  70.2043076   2.7289803  65.4424210  70.5680542
   3.3378170  64.1083832  70.1930237  78.2614517  48.2894249  44.1098633
  78.7762451  47.8061104  43.4636192  77.9822464  47.6246223  44.7393990
  75.4540100  35.6083946  46.9258957  74.6979294  36.1592865  47.1285973
  76.2115250  36.1569633  47.1295547  27.4801178   6.9204793  88.3776398
  27.0380001   6.2345648  87.8773575  27.1799355   7.7379704  87.9803619
  74.8491058  57.8900757  12.6330423  74.8860397  58.5857162  11.9765711
  75.7655106  57.7090759  12.8420248  34.4034042  53.1837807  24.5976105
  34.7933350  52.8220177  25.3934212  34.4909821  52.4852409  23.9490700
  49.4320221  26.0921268  85.0209808  49.6782074  26.9790821  85.2835388
  48.7309189  25.8492355  85.6257095  35.7893143  11.1302662   1.5996330
  36.5347900  11.2862520   2.1794307  36.1684074  11.1152802   0.7208295
  30.2673893  59.4848061  49.2459641  31.2025242  59.6365395  49.3828354
  29.8593903  60.3335075  49.4176483  38.2939491  47.3506699  16.2940273
  37.9054413  47.1059608  15.4541397  37.7873077  46.8630066  16.9434357
  79.8691330  64.0821686  64.4858627  79.3600159  64.3170853  63.7100716
  79.8336029  64.8613815  65.0406570  58.2756805  57.8013802  77.4739609
  59.1188011  58.2425880  77.5774612  58.4589272  57.0698891  76.8843994
  29.2201004  22.5979118  88.2327423  29.9369869  22.9407425  87.6991043
  28.4306068  22.7961693  87.7291336  75.9932785  60.3063126  16.5575905
  76.0103760  60.5218620  17.4900494  75.6600952  59.4095612  16.5251293
  84.2987061   4.2433228  67.9547424  85.0313110   3.7762809  68.3564835
  83.9546585   3.6332827  67.3022766  34.6775742  22.3631935   6.9274921
  34.3384094  22.7225933   7.7472672  34.3985100  22.9881916   6.2583652
  18.5913525  30.8655949  74.1891403  18.3087406  30.0133438  73.8574295
  17.9227352  31.1067905  74.8302383  17.7097149  46.0888863  89.2542648
  17.8957767  46.4735909  88.3977509  16.7829018  46.2752647  89.4043121
  75.2347717  46.5837326  35.1996498  74.7549362  47.2598305  34.7212334
  76.1046066  46.5792809  34.8001518  28.2787209  50.6339188  87.1814423
  27.7806492  49.8720474  87.4776001  28.9114552  50.7934113  87.8817596
  52.7501526  15.6626301  62.1961975  53.3555145  16.3967133  62.0918312
  52.6273804  15.5860872  63.1423988  18.2328949  14.1865215   2.1681089
  18.5033875  14.8934393   2.7540555  17.5366592  14.5704212   1.6350906
  79.1816864  42.5647697   4.0033116  78.5618439  43.2222900   4.3190503
  79.1873169  42.6778183   3.0528274  16.3158760  66.9223022  59.8330994
  15.7241449  66.8463516  59.0845528  17.1818008  67.0409698  59.4428139
  19.1292305  50.9374924  47.4646988  19.5630341  50.1052284  47.2765846
  18.1964111  50.7233543  47.4796753  52.4227486  19.1404381   2.4454699
  53.1544189  18.5563564   2.2461174  51.7058868  18.8222332   1.8967570
  49.0747299  57.8797951  64.8223419  48.5778465  57.8671532  64.0043030
  49.7669487  58.5236282  64.6721878  69.5276794  17.5695896   1.7240981
  69.8967743  18.4355202   1.8977814  70.0267029  16.9789562   2.2883279
  58.6945534  39.5746574  77.4925385  58.5461731  38.8504105  76.8845291
  58.1913109  40.3018379  77.1262283  67.8323593   1.6592741  62.6464539
  67.2086411   1.5088446  63.3567886  67.4123611   2.3190730  62.0946426
  20.3070164  55.6284180  13.4130192  20.4642887  55.5219879  12.4748449
  20.4703007  56.5567894  13.5794430  58.3451691   2.3669729  38.6293030
  58.7179794   3.2342160  38.4707718  57.5894012   2.3204660  38.0437355
  79.1907043  15.3740835   6.9482250  78.8102722  15.2408257   7.8164091
  78.5908966  14.9252129   6.3524251   1.3883768  18.0617733  79.8337784
   1.7284358  18.9280224  79.6097183   0.4767004  18.0797024  79.5426483
  55.6617203  55.7249298  54.4898796  55.2380524  56.1580772  55.2309036
  55.5974274  56.3572311  53.7741356  32.0279846  54.6657333  57.7543373
  32.2463455  55.1260185  56.9439774  31.7623730  55.3584709  58.3591537
  74.1174088  68.3870010  53.9110107  73.7931519  67.6519089  53.3906975
  74.9783936  68.1022491  54.2173615  25.4280605  16.4031048  81.2639694
  26.2135563  16.2861996  80.7295914  24.7182674  16.0514984  80.7265701
  46.4841080  45.9720612  62.4347839  46.9663773  45.2713356  62.8736839
  45.6799469  46.0656471  62.9454651  69.6297150  45.3964348  33.2814445
  69.2049103  45.4891930  34.1341858  70.4890366  45.0250092  33.4810753
  81.9894104  66.9585037  61.6734009  81.5142441  67.7885361  61.7120247
  82.0636444  66.6822891  62.5868683   1.9852951   6.9139242   8.5855942
   2.4249706   7.4531465   7.9282084   2.0276599   7.4331799   9.3885956
  64.1146164  38.8646202  48.3637390  64.1656952  39.7421532  47.9848518
  65.0069427  38.5240784  48.3004036  60.8519440  53.3069572  66.5829849
  60.6016426  52.7108803  65.8770981  60.0254936  53.5336723  67.0093765
   6.7124276  16.9620533  24.6255226   6.6268005  16.8145695  23.6836376
   6.4703436  16.1251278  25.0219860  78.9604797  34.2648506  31.8533287
  79.0961990  34.0778961  32.7822304  78.0185928  34.1558495  31.7221985
  32.9792175   1.9051682  51.6329460  32.3232880   2.2174311  51.0096664
  33.1462326   0.9996787  51.3713608  56.1473656  61.5456161  54.4159851
  55.9129524  61.0853539  55.2218666  56.6086922  62.3297539  54.7135353
  85.6986237  27.7789764  37.6650200  86.3140259  28.4749279  37.4344559
  86.2544098  27.0426445  37.9202499  26.0627937   2.0123317  30.6536884
  25.6876392   2.8819733  30.7923050  25.9349117   1.5605794  31.4878330
   1.6170158  52.1139221  50.7340775   2.3088787  51.4538803  50.6904793
   1.2871901  52.1747551  49.8375587  56.2382965  14.7583208  89.1811905
  55.5469093  15.3565483  88.8977509  55.7705917  13.9936094  89.5169067
  63.7785149   1.3932996  30.4836540  63.9415436   1.4269016  29.5410385
  64.4919205   1.9024652  30.8684082  26.3565884  58.0091133  86.8272171
  26.8638897  58.8104095  86.9568405  25.6330051  58.0803909  87.4497757
  42.6116371   2.2695899  65.8913040  41.7852631   1.7869142  65.8722458
  42.6993904   2.5584579  66.7996445  60.3305016  64.1423950  54.3986092
  60.8757095  63.7824440  53.6990280  60.4539185  63.5401955  55.1323433
   1.9951205  25.7740192   4.6806574   2.2598708  24.9039650   4.3820868
   1.3397427  25.6057549   5.3577089  35.4707298   0.1070012  71.0003281
  36.0506172  -0.0705709  71.7408829  34.8033600   0.6948467  71.3542786
  47.5945892  26.5408363  14.1329241  47.3070488  25.6902561  13.8011608
  48.3414536  26.7731171  13.5811348  83.9700089  17.8368092  26.7301865
  84.5850143  17.1045055  26.7718143  83.9618225  18.0905437  25.8072662
  -0.0173059  58.5264511  18.1213436   0.5633314  58.8221436  18.8225288
  -0.4092791  59.3302422  17.7800083  83.3048401  65.6767502  54.6175995
  83.1190643  66.3949966  54.0127449  83.5181046  64.9354401  54.0508461
  40.2511826   4.6700935   3.4646156  40.8228531   4.2371192   2.8306146
  39.7063370   3.9658377   3.8158953  76.2346573   6.0521464  80.8015594
  76.7637939   6.2387733  80.0260544  76.7460556   6.4031730  81.5305939
  73.2203522  39.9826317  48.0699081  72.3181686  40.3020668  48.0861855
  73.3713684  39.6464348  48.9533119  65.1404953  41.3022804  23.9549732
  65.4674683  42.1798401  23.7569580  65.1299973  40.8541069  23.1092396
  18.9696236   9.2518253  79.5583038  18.3254871   8.7933521  80.0978622
  18.7545567  10.1785336  79.6640854  60.7671814   8.2763224  81.5051727
  59.9826508   8.8147430  81.6093216  60.9930916   8.3589106  80.5786819
  43.2047501  30.8281078  89.2244720  43.7825279  30.4363079  89.8793716
  43.3480759  30.3056068  88.4353638   3.1408429  62.2268829  68.1262741
   3.9188178  61.7778664  68.4569855   2.4130778  61.8275185  68.6028214
   9.5591221   4.1702852  30.3439693   9.9510851   4.3977385  31.1870956
   8.6266356   4.3552923  30.4556484  31.2588902  31.1986370  22.9732018
  31.7047691  31.7029076  23.6537418  30.6404209  31.8166466  22.5835953
  78.2482300  69.2055817  74.9674759  79.0519028  69.0402985  75.4604492
  77.7754669  69.8531952  75.4902802  69.1268463  48.6944580  35.7635307
  69.8960114  48.9677391  36.2634621  69.3371353  47.8096123  35.4651031
  84.5262909   1.8575889  49.6680374  85.0390472   2.6417975  49.8638077
  84.9126205   1.1755067  50.2173500  66.8746643  65.4713135  10.2081652
  66.2657700  65.9410858  10.7780676  67.6470108  65.3225708  10.7536840
  16.2707329  27.4349499  24.9302158  16.4413261  28.3768101  24.9356003
  15.3344717  27.3600616  25.1147099   9.8435383  60.7274780  37.2398682
  10.1559896  60.8633080  38.1343803   8.9408216  61.0456276  37.2505760
  36.1203499  51.2384720  32.1345558  35.7052307  50.7645149  32.8551598
  35.7409248  52.1163177  32.1752052  15.2600613  53.2659798  80.1660538
  15.8769970  53.5959473  80.8193054  15.1398067  52.3441963  80.3942719
  10.1847734  62.9731331  59.4925499  10.0168676  62.2990837  58.8339920
  11.1143875  63.1785927  59.3933678  47.0630913  26.9471779  55.9827118
  46.6951599  27.6388187  56.5327034  47.9589958  27.2335758  55.8050499
  83.5325546  62.3431206  86.3607101  83.8127899  63.1780739  85.9858017
  82.5807800  62.3422966  86.2589645  11.6329451   1.5256125  43.2014732
  10.8636980   1.1350825  42.7867699  11.4084444   1.5677994  44.1310158
   2.3668618   1.3893723  41.9794006   2.7404621   2.1599686  41.5518074
   2.9271164   0.6652599  41.7000999  29.9293518  39.6940575  23.3567066
  30.6034374  39.6182289  22.6813622  29.3378983  40.3719139  23.0297165
  31.2364864   5.6124225  45.0219154  30.5997581   6.1982350  45.4313431
  31.8767796   5.4353704  45.7110519  52.6992264  54.3917923  85.7227554
  53.1595917  54.9979019  85.1423035  53.3671074  54.1008987  86.3436813
  50.0940933   4.0906186   7.4379206  50.2481537   5.0319519   7.3579893
  49.1778412   3.9756291   7.1859412  33.0955963  29.8482132  86.6683350
  32.5074463  30.5923462  86.7970886  32.8949394  29.2561092  87.3931656
  39.0022202  11.7993479  22.1893024  38.7405586  11.8719950  23.1071739
  39.8039131  11.2767477  22.2094307  30.1357708  32.9897652  16.2257042
  29.2307911  33.1604233  16.4867039  30.6502419  33.1718979  17.0120735
  29.4007454  50.6313286  84.2520218  30.0397930  50.8059273  83.5611115
  28.5511703  50.7654228  83.8319397  82.1353226  53.3631020  16.2042084
  81.6721954  53.6257172  16.9996834  82.6519775  54.1319351  15.9629755
  25.8827286  35.9588356  25.4745274  24.9756718  36.1365395  25.2257290
  26.3843975  36.6690254  25.0742931  52.0526276  62.2810097  76.5915375
  51.7085838  61.3911591  76.6691971  51.3356514  62.8417130  76.8878250
  35.5286980  54.4102974  42.2526588  35.4278488  55.0650139  41.5617142
  35.4129677  54.9009933  43.0663261  85.5015030  29.6720371   7.0782771
  84.7687607  29.9039459   7.6488400  85.6983185  28.7617226   7.2992296
  59.5912552  20.3293304  47.8198509  59.6799965  19.7993603  48.6119919
  59.1198921  21.1115379  48.1065598  81.5848618  55.1749077  13.7621641
  81.5522537  55.9233932  13.1663971  82.4014816  54.7275581  13.5402622
  84.9328384  56.7661896  51.0404968  85.4548416  57.2928314  50.4351921
  85.5314560  56.0820770  51.3402863  83.7089310  16.3213444  72.8367081
  84.5808563  15.9496241  72.7033157  83.1091766  15.6012764  72.6416855
  20.0946922  59.6183586  67.5762100  20.3107281  60.3225784  66.9649506
  19.2945786  59.2305641  67.2217178  72.6085510  10.6707525  36.7610626
  73.4235306  11.1725874  36.7749977  72.0659790  11.1131668  36.1082840
  77.8298492  28.9641514   8.4965591  76.9772110  28.6280422   8.7727232
  78.3615570  28.1809406   8.3547754  51.5831871  30.8337917   8.7262373
  51.0982056  31.6442242   8.8818893  52.3459320  30.8969383   9.3010988
  20.0993748  66.3903351  46.9737167  19.6524181  65.5439606  46.9847145
  20.0532570  66.6736908  46.0605850   5.6009130  66.2121201   6.3514342
   5.2317162  66.5699844   5.5440550   5.9458475  66.9748154   6.8157125
  40.3450470  39.9336128  64.3372803  40.0669708  40.0706863  63.4316826
  39.5555115  39.6331902  64.7874069  47.5963516  43.7752800  53.9148178
  47.7061348  43.2357750  54.6978340  48.4857903  43.9017677  53.5844688
  22.5242405  65.6153030  33.4120293  23.3154297  65.1351929  33.1675949
  22.6205597  65.7734146  34.3511543  80.2925720  53.8219032  18.3252983
  79.6277618  53.5025902  17.7151356  79.8044052  54.0381279  19.1197643
   2.3729784  26.7138958  26.0951271   1.9500219  26.0726223  26.6661854
   1.9043788  26.6401176  25.2637405  33.9686584  46.0405998  15.1680250
  33.5669746  46.5924911  14.4969835  34.0681686  46.6179810  15.9249668
  70.0777054  36.5055923  54.8140335  69.8315735  35.9621506  55.5625801
  71.0149994  36.3475380  54.7012062  44.6805305   1.6311949  49.9652443
  45.4111519   1.0325578  50.1203499  44.5013466   2.0175817  50.8224678
  37.3557053  71.0817184  59.1802750  36.4925308  70.9407196  58.7913208
  37.3774719  70.4930878  59.9347763   6.7521071  71.2170563  20.3213100
   5.8408651  71.4437714  20.5069771   6.6968889  70.4446640  19.7586441
  61.8818283  53.7639694   3.8664947  62.5201874  54.2404480   4.3972473
  62.3912621  53.0743103   3.4409578  17.5466175  68.9133911  50.5707474
  18.2558556  68.3768463  50.2167320  17.0201797  68.3036652  51.0877838
  52.7098389  64.0345230  49.0337830  52.0356789  64.1917343  48.3727036
  52.2207222  63.8291550  49.8305397  61.9240303  30.1448803  53.5548439
  61.7290726  30.7581501  52.8462372  61.0783806  29.9873734  53.9747276
  66.5182724  62.9894333  86.2979584  66.4014587  62.7922478  87.2273102
  65.7016525  63.4165649  86.0392532  86.0204391  58.2336617  74.2401733
  86.6537781  57.9940910  74.9167252  85.1793137  58.2557068  74.6965256
  45.1209145  22.4856377  86.0139008  45.0720406  23.3909931  85.7070236
  45.6438789  22.0357208  85.3503418  81.0394897  63.2456970  85.9012527
  80.4720154  63.7046165  86.5205994  81.5396042  63.9411087  85.4740219
  68.4834976  17.9375992  10.3573170  67.7595978  17.3637981  10.1064034
  68.0586395  18.7355118  10.6720572  37.1710777  15.5236416  66.4364243
  36.2956924  15.6923237  66.7849579  37.7230186  15.4256792  67.2123032
   1.4040914  54.9255180  46.2059441   1.3688149  54.3537788  45.4390678
   1.5746384  55.7965851  45.8476334  40.1443405  48.7902260   9.4014597
  39.2924385  49.0908737   9.7178526  40.3615189  49.3921814   8.6896191
  75.4202194  69.4763260  50.8655396  75.0027618  69.9802246  50.1669350
  74.7121735  69.2893143  51.4819183  28.7223396  67.0808640  78.8257370
  29.2299213  66.4715118  78.2897491  29.3743610  67.5194778  79.3722916
  59.9555740  21.5039845  31.9620514  59.0353470  21.6674919  31.7554722
  60.3971291  22.3281975  31.7572651  57.1316299  51.9312668  78.7220230
  57.5649414  51.1865234  78.3050919  57.8495102  52.4886131  79.0224304
  24.8971519  53.1762199  77.0271072  24.9434910  52.3451805  76.5543900
  24.3855381  52.9774818  77.8113174  61.5843811  57.3888321  77.9674301
  61.8051300  58.2546234  78.3108139  61.8107910  56.7855644  78.6752701
   7.5653739  40.2482567  58.4927177   7.2466006  39.7256699  57.7568398
   7.5686522  41.1473618  58.1643410  18.3322372  61.1565170   7.1299472
  18.3667831  60.5346870   6.4030581  19.2239151  61.4983864   7.1952677
  45.2783470  57.8937721  26.8596115  46.0154991  57.6183205  26.3146687
  44.8417816  58.5735016  26.3461819  39.9231987  44.0190277  72.4701233
  39.3184547  43.7588158  71.7752838  39.4054489  43.9594269  73.2730026
  23.5808144  64.3857956  60.0585861  23.2441826  64.0859909  59.2141762
  23.4098034  63.6582108  60.6565895  53.2367363  28.3213234  83.7949371
  53.7950058  27.5608711  83.6328278  53.7719193  28.8999023  84.3381271
  50.3717194  32.9971085   9.9277658  51.1726456  33.4360390  10.2142773
  50.0852509  33.4966278   9.1631422  42.8913918  63.8829269  66.8874893
  42.8339500  64.4484863  67.6576080  42.5967255  63.0263672  67.1968536
  62.9918823  66.2187042  66.5745316  63.1488075  67.1456528  66.3945999
  63.8510971  65.8075638  66.4799728  25.4364300  23.6427059  80.0318222
  24.7123680  23.1821175  79.6077728  25.7120113  24.2976856  79.3905106
  44.5402222  13.0727339  10.4943800  44.3895645  12.1340837  10.6060448
  43.8236809  13.3649645   9.9309940  12.9094400  43.7067604  42.0412598
  12.8740091  44.1797905  41.2098618  13.3356514  42.8769684  41.8267326
   2.4217784  19.9611816  47.2820358   3.0476713  20.6674232  47.1216812
   2.5024714  19.7775612  48.2179871  26.9490948  67.4010925  51.6480904
  25.9997616  67.5205917  51.6748848  27.2617779  68.0963821  51.0692711
  22.9465218   8.3033133  32.5261688  22.7810707   8.1199474  33.4509583
  23.5043373   7.5819840  32.2350349  23.9142361  65.3541260  56.1670914
  23.6112919  66.0499115  56.7504883  23.5829830  65.6037292  55.3044205
  79.8760223  20.5185432  87.7440033  80.3269119  20.6894722  88.5708771
  80.4162903  19.8593063  87.3084106  13.9069471  56.7350922  50.1311302
  14.2235298  55.8322639  50.1612206  12.9933710  56.6780052  50.4110451
   7.7128034  69.6647034  73.2206345   8.0999689  69.8561096  74.0748596
   7.9343500  68.7479324  73.0572586  74.0981674  54.4990120   4.1080818
  73.6895523  53.8950424   3.4880111  73.6057358  55.3137932   4.0086875
  55.7593079  32.2303886  84.0546036  56.0287971  32.9756012  83.5177002
  55.8023071  32.5551834  84.9539948  13.8253098  53.8701782  39.5311203
  14.6994181  53.9829750  39.9045410  13.3114128  53.4797745  40.2380333
  75.5842667  69.2002335  79.0476837  74.7060471  68.9937744  79.3675842
  75.8716888  69.9326782  79.5927887  85.4863129  55.0792618  44.9288902
  84.7215500  55.4674683  44.5038338  85.4449387  54.1518326  44.6956673
  58.6031342   8.3551083  58.7505379  58.1952057   7.5900488  58.3449364
  57.9657402   8.6497660  59.4010277  14.3677521  52.1118622  34.1756439
  13.5122948  51.9607124  34.5776100  14.2730360  51.7852249  33.2808990
  31.8286419  20.5553570  15.5830555  31.9382782  19.7520828  16.0919399
  32.6511307  21.0297718  15.7042027  30.1623878  50.4785423   0.0956422
  30.2916737  50.6190186   1.0336097  30.8113194  49.8151207  -0.1388678
  64.0227966  46.5406418  67.1394272  63.7999344  45.6382332  67.3679581
  63.4698105  47.0754967  67.7089615  62.4910851  52.1568108  33.4053078
  61.9636955  51.7594109  32.7123680  61.9194145  52.8210335  33.7903214
  26.0141430  50.7517395  48.7224731  26.1148949  51.4783897  48.1076088
  26.8688622  50.6767998  49.1468239   2.8950415  56.9783401  44.7228432
   3.4475255  57.7589912  44.7625847   2.0279772  57.3101692  44.4897728
  19.0329666   1.1401708  14.2552299  19.9336090   1.0711287  13.9385128
  19.0446186   0.7041535  15.1072779  52.8755379   6.8356614  10.0269785
  53.2044983   7.3327384  10.7759314  52.6464767   5.9798760  10.3894615
  31.9633102  48.2323685  82.7821274  32.8864288  47.9883232  82.8494186
  31.6567020  48.2619247  83.6884079  73.0681915  26.9877720  62.3275032
  73.5611115  27.0557346  61.5098000  72.3407669  27.6006355  62.2203102
  76.7955093  11.7524071  29.7296047  76.4927063  12.5839005  29.3646889
  77.7501678  11.8218746  29.7239952  75.3226242   2.0878963  55.2523117
  76.0873337   1.8020245  54.7525826  74.7258911   1.3399428  55.2257996
  17.9692402   8.7352972  17.7899990  18.6247005   9.3786945  18.0595226
  18.1197910   7.9848213  18.3647614  52.8750839  15.8254757  42.8767433
  52.4352875  15.4727392  42.1031914  52.7853661  16.7746258  42.7913208
  40.4605865  60.1782227  27.1448994  40.8292313  60.7852249  26.5031147
  39.6959915  60.6352806  27.4952202  66.0975037  42.0451355  59.9371681
  65.7647095  41.1948700  59.6498909  66.8607941  42.2036743  59.3817520
   5.3471637   7.6159496  55.0419350   5.7178550   8.4984512  55.0387383
   4.4011121   7.7533751  54.9936333  78.7066269  65.6077042   9.6743317
  79.3186111  65.6090012  10.4103384  78.0299530  66.2368393   9.9243822
  86.1481781  70.3856277  67.4069672  85.6328506  71.0678482  66.9765701
  85.5015869  69.7376328  67.6867065  10.7286968  50.1517105  40.5154381
  11.6259356  50.1752319  40.8480644  10.8221273  49.9248810  39.5902100
  47.2689552  32.8234711  70.0433502  46.3651428  32.5561676  69.8763123
  47.4338760  33.5203781  69.4082489  43.6657829   8.3959370  46.8270607
  44.3401680   8.0836239  46.2238235  43.0065956   7.7018905  46.8295021
  11.1580019   0.2000704  73.1818314  11.8504305  -0.1565426  72.6254120
  10.3613644   0.1128653  72.6583862  19.4517136   0.7188753   9.8477592
  18.7030220   0.3583491   9.3726645  19.8607597   1.3225046   9.2276440
  69.7254639  68.0299454  15.9968510  70.3494644  68.3328934  15.3372536
  70.2507019  67.9157791  16.7888870  86.5248947  16.9977379  51.1423073
  86.5870819  16.0649624  50.9366417  86.4863281  17.0301914  52.0981789
  61.2748375  59.4999008  32.8638420  61.5028458  59.1938515  31.9860172
  61.8456764  60.2541695  33.0103111  22.2934132  67.3792343  52.0166626
  23.1894932  67.7129517  51.9730186  21.7629337  68.1453018  52.2356720
  12.7760029  56.2132301  73.8725052  13.6338177  55.8278046  74.0509186
  12.2140198  55.4646568  73.6723938  71.6291885   5.3023367  71.0417633
  70.7351761   5.2917376  70.6999130  71.9358292   6.1950507  70.8828049
  54.6933594  26.1138439  59.8793182  55.0207024  26.2827587  58.9958305
  53.8090286  26.4801559  59.8811913  76.4999924  25.7062588   3.7017288
  76.6791611  26.1125641   2.8537636  76.2630005  26.4373455   4.2723222
  42.8354378   0.3918876  31.6505852  42.4331779   0.2053816  30.8022709
  42.5821838  -0.3473249  32.2034492  29.3352070  57.6445351  61.6465263
  30.0746574  57.0789070  61.8690376  29.4136200  57.7809334  60.7023430
  65.5574265  17.1846542  43.9708633  64.9249954  17.6618900  44.5079956
  66.3712997  17.2168961  44.4736633  15.7687883   3.1646254   5.7994618
  14.9261742   3.1770964   5.3455033  15.7808409   3.9776886   6.3044519
  72.6813812  23.5959606  50.1084557  73.3829880  23.0436325  50.4533005
  71.8903809  23.2780037  50.5437126  11.7046156  58.0875130  75.4473877
  12.3709126  58.3298721  76.0904617  12.0151968  57.2594795  75.0811539
  76.9452362  62.8505936  41.0955887  77.0525055  63.5597954  40.4617500
  77.3184586  63.1957397  41.9066429  75.9476700  36.6493568  40.5018654
  75.3593826  36.4230461  41.2222328  75.4147491  37.1890411  39.9179420
  84.0776367  26.6236858  30.9245148  84.8428802  26.3902302  30.3990345
  83.6699066  27.3456841  30.4462795  28.9948864  60.4981499  62.7122803
  29.2635899  59.5871544  62.8310890  29.6714668  61.0075455  63.1583595
   1.7911367   0.4962422  80.7817459   2.6010203   1.0052408  80.8169708
   2.0361831  -0.3130293  80.3331223  65.2396545  52.6048508  87.4678040
  66.1165161  52.2234802  87.4242172  65.1837616  52.9768944  88.3479691
  37.4425659   0.0036621  23.7014141  38.0527344   0.3522359  24.3513527
  36.7363052   0.6487654  23.6657333   5.3999968  34.5133820  79.9595947
   5.6629596  33.7510109  79.4439697   5.8709245  34.4167099  80.7873154
   2.2882655  44.1632614  74.2302475   2.6574461  44.8876877  73.7251282
   1.8017411  43.6467628  73.5877838  46.2012367  45.5842590   7.9814730
  46.4872856  46.1345596   7.2523808  46.9668274  45.5271263   8.5531693
  53.3806953  35.6751442  51.5347786  54.3333626  35.6769753  51.6277962
  53.0841522  34.9789047  52.1209068  62.5465431  15.7055140  39.8440132
  63.2887268  16.1527252  40.2507057  62.3770790  14.9555807  40.4141998
  83.4760208  26.1032047   1.6095306  83.1343002  25.4757557   2.2465258
  84.4103546  26.1622086   1.8089734  71.1149826   4.7697330   7.1980915
  70.9434662   4.6771669   6.2609448  71.8494186   4.1794472   7.3666153
  15.6777267  12.5111771  62.7613716  15.1295643  12.1173658  62.0826530
  15.7867737  13.4206142  62.4834061  50.6926079  65.6436691  35.4415207
  49.9393349  66.2339325  35.4615517  51.4255600  66.1996078  35.1770515
  48.9626884  20.5154705  13.2711391  49.0774918  19.5689468  13.3556643
  48.0148582  20.6454697  13.3019152  67.7607193  54.7093010  62.0210876
  68.3757095  54.0590858  62.3605614  66.9066467  54.4232483  62.3450775
  47.6887932  58.6448746  18.7594604  47.4920349  58.1773224  17.9477272
  48.3652687  58.1160660  19.1825104  59.9690285  31.9523602  56.4295425
  60.8863335  32.1916122  56.2971153  59.5720482  32.0363121  55.5625992
  30.6084652  10.3739023  16.9774494  29.6694851  10.1974583  16.9190159
  30.9819393   9.5677586  17.3336525  51.0881882  59.0885277   3.2593610
  50.6402626  58.4689255   2.6834385  50.8593788  59.9494743   2.9091465
  71.0492859  63.8673134  23.0371742  71.1078796  63.1431351  23.6603642
  71.9469070  63.9909554  22.7285843   8.5231676   4.5494800  50.8929558
   8.4977160   3.6359611  51.1776810   8.1795282   4.5316243  49.9997482
  45.7473602  49.4313354  88.7237854  46.1765099  49.8668175  87.9872971
  45.2477188  48.7198792  88.3232498  22.2025261  55.1955795  82.3285522
  21.4386902  54.8960419  82.8215714  22.3892841  56.0655365  82.6814346
  27.9680710  53.7585602  60.8943672  27.8111839  54.5444298  61.4178429
  28.8042755  53.4203796  61.2147179  53.7945633  69.2669144  85.7884216
  53.4744530  68.6250916  85.1545258  53.5915260  68.8829346  86.6413956
  11.8307438  70.4178696  27.5977039  11.7377644  69.9739532  28.4406281
  12.7724857  70.5624237  27.5057259  25.0013771  48.1505318  39.1775703
  25.1211109  47.5493164  39.9127159  24.2155056  48.6490631  39.4014130
  17.4377308  62.2621803  18.6926441  17.9643688  62.9158707  19.1526146
  17.9753170  61.4702835  18.7041302  31.5922432  60.4911156  73.6562805
  31.1441822  60.2792358  74.4751740  32.4149094  60.8959389  73.9311829
  61.7204666  16.1522789  82.8867569  62.1970634  16.2856731  83.7060776
  62.0072136  16.8708572  82.3231430  40.3516312  54.1179771  31.6504192
  40.7742729  54.3316612  30.8185844  40.7878456  53.3173981  31.9420033
  17.2709579  37.4230728  73.1801224  17.5013313  36.7495193  73.8200378
  17.5631599  37.0664368  72.3412781  58.6216393   3.6392429  15.3068829
  58.1091576   4.1960397  14.7207336  58.6297760   2.7835255  14.8780317
  30.8367157  62.4653091  81.1070709  31.3387451  61.8161316  80.6143494
  30.8033447  62.1165657  81.9978485  50.7315369  51.4409370  24.2766628
  50.9854164  51.2914886  23.3659248  49.8816299  51.8775864  24.2198200
  31.5581188  19.9258118  78.6551132  31.4602642  20.8779659  78.6629486
  32.4914246  19.7822380  78.4983978  26.2199574  54.1243210  13.6484032
  27.0274677  54.1098022  13.1346426  25.5747890  53.6867523  13.0929537
  20.2880135  51.1250763  25.3965321  19.6797714  51.7427788  25.8023815
  20.4657326  50.4795036  26.0805511  83.5024414  23.4634514  64.3449402
  82.9129562  23.5924454  65.0879669  84.2799072  23.9770527  64.5640259
  45.1368370  59.9335823  86.7651443  45.9943848  60.3181190  86.5835495
  44.7953529  59.6923027  85.9040985  83.3756104  31.2411003   8.1177387
  82.8121109  30.7223339   8.6918316  82.9487457  32.0966530   8.0725088
  85.1128922  19.7669315  54.2049637  84.6427612  19.6414089  55.0292549
  85.6561203  18.9836941  54.1173859   8.9670620  52.0860710  21.8572636
   8.1050777  52.4613152  21.6772461   9.5164175  52.8399925  22.0718479
  10.7569876  42.9401131  63.2587776  11.1484442  42.5757751  62.4648972
   9.8144484  42.8300781  63.1333046  72.2254333  16.2073879  15.6325026
  72.2057419  16.1148949  16.5850201  72.3019867  17.1500397  15.4849300
  69.7107468  18.3596897  60.9300766  69.2045670  17.6023998  60.6359291
  70.1567917  18.6703243  60.1421776   5.5500884  45.8976707  59.4812622
   5.5890212  46.2477493  58.5912285   5.9309850  46.5861893  60.0263252
  76.0589066  32.3148918  36.7574844  76.6632690  33.0507355  36.8550110
  76.2788696  31.7269096  37.4800682  65.2923889  40.3815994  72.7117233
  65.1743851  41.1584244  72.1650543  65.7260437  39.7491798  72.1388245
  75.9607239  20.9310684  64.0498581  75.1347656  21.3959236  63.9159279
  75.6990738  20.0502396  64.3180237  84.9927979  49.9716339  70.9702530
  85.7426605  50.5564156  71.0796661  85.3477707  49.0958710  71.1227646
  69.3810425  28.3333530   6.5407052  69.4698105  28.0040970   7.4351006
  70.1619492  28.0133095   6.0890551  54.4997177  12.8861923  88.0580521
  54.1222839  12.0084763  87.9998093  53.8786659  13.3788576  88.5945282
  48.3643723  62.1505585  38.6170883  47.8103027  61.9442329  39.3698616
  48.7217522  63.0166626  38.8129654  50.4858398  57.1823921  60.4466095
  51.1727638  57.7570801  60.7843971  50.6479836  57.1436691  59.5040398
  47.0803871  15.7736588  79.3917389  46.7247505  15.4361305  80.2138290
  46.3183289  15.8613176  78.8191833  23.6204205  63.0553741   1.7031076
  23.6841049  63.0678177   2.6581056  23.0551243  63.7981453   1.4910618
  42.3248749  25.4403610  74.6210098  41.4498863  25.1204758  74.4012375
  42.6828613  24.7744961  75.2081146  41.5115700  29.5795097   8.8290262
  42.1410217  29.5380001   9.5489559  40.6644440  29.6997013   9.2581692
   1.2507967  15.2386179  35.6478920   0.8339251  14.5413284  36.1540909
   2.1893518  15.0863323  35.7581406  27.5282631  67.7933426  65.1981812
  26.7250786  67.5975113  65.6806564  28.2051392  67.2829285  65.6426544
  20.2811184  31.0268478  24.5352058  20.0429134  30.1001415  24.5085907
  21.1238041  31.0446053  24.9888515  85.5046616  11.2100925   7.7113008
  85.2938080  10.5673208   7.0340881  86.2435837  10.8266344   8.1837234
  34.9890823  49.3672638  45.8209801  35.6916351  49.5161362  46.4538193
  35.4019394  48.8648911  45.1185493  10.8932781   7.6175337  80.8817444
  10.1923656   7.5092864  81.5245819  10.5022860   8.1490107  80.1882858
  19.9878292  10.2848873  74.4412613  20.0827770   9.4041538  74.8039322
  19.0523815  10.3681564  74.2562332  59.9640465   5.0888886   8.2173843
  60.3382568   5.9592171   8.3542242  60.5403290   4.6791234   7.5722322
  82.6525955  61.1177673  60.7531281  83.2205200  61.8460045  61.0048523
  81.7695618  61.4164391  60.9705582  32.2836227  57.6230965  72.8481750
  32.1795731  58.4922371  73.2354813  33.0217438  57.2374115  73.3200378
  42.0791435   8.7166662  12.4669352  42.8961983   8.6150999  12.9551353
  41.5551491   7.9552984  12.7158928  46.7206116  61.6572418  40.8121300
  46.0222435  61.1081352  40.4557686  46.3304749  62.0713844  41.5818787
  70.5054474  28.7284393   3.2802908  71.0769272  28.8071499   2.5164502
  70.9195404  28.0557785   3.8209257  73.7602005  62.8115845  29.6601410
  73.2661133  63.0779877  30.4354763  73.1197052  62.8324738  28.9491138
  16.3080139  24.8579369  20.5009613  16.8457508  25.1827660  19.7787743
  15.9453297  25.6471119  20.9033222  74.7049179  36.9285316  72.8105545
  75.2019043  37.3030281  72.0832443  75.3393936  36.8598709  73.5239716
  39.4899445  38.5113869  56.5156822  38.6149979  38.5974808  56.8942184
  39.9137840  37.8347054  57.0436020  57.5388069   6.7326198  17.7888947
  58.4329224   6.9416513  18.0592537  57.5201416   5.7767677  17.7416649
  62.4613953  38.0270004  85.3096008  62.7995758  37.7615509  84.4543839
  62.9176331  37.4622231  85.9333878  71.6382294  25.9410000  50.8369789
  70.9592438  26.0528889  50.1716309  72.0387497  25.0964298  50.6307907
  44.1271362  56.3464279  62.2642365  44.5112610  57.1834717  62.5250778
  43.1897392  56.5256233  62.1907120  48.5691185  40.8915939   7.0736642
  49.1005249  41.1678047   6.3269753  49.1546707  40.3414078   7.5939112
  72.7338715  16.0902920  77.9142456  72.3237839  15.5635805  77.2282181
  72.1975784  15.9313965  78.6910095  68.0403519  11.7863741  26.5808105
  68.5199127  11.1333485  27.0905304  67.4581299  12.2048550  27.2149391
  34.6071854  69.5308609  43.3824196  35.4134102  69.4584274  42.8715553
  33.9651260  69.0190048  42.8904953   1.3525164  27.3610210   9.9661837
   2.0130687  26.7562141  10.3039837   1.1572266  27.9388313  10.7039032
  52.4588280  27.8197002  57.5862122  52.1325264  26.9274216  57.7028236
  51.6923141  28.3753853  57.7272987  64.4348984   6.7415323  34.8315811
  65.1089020   6.1040597  35.0673256  64.1907959   6.5115380  33.9350586
  16.2790565  41.1635933  81.8646393  16.9530296  41.0889397  81.1890488
  15.4525204  41.0888252  81.3876953  24.3700256  42.5334435  85.0653992
  24.8144112  42.4641647  84.2204437  24.3790035  41.6422272  85.4145203
  67.0342941  59.8257179  88.4398575  66.7566986  59.7158813  87.5303955
  66.5417175  60.5853767  88.7505417  44.6365089  28.7711220   9.0526161
  44.8159332  28.9419994   8.1280403  45.4841652  28.8765965   9.4845695
  82.1936264  46.2882233  13.0902109  82.6563187  46.0026588  13.8779945
  82.2242432  45.5302505  12.5064516  16.0897045  66.2757339  52.5321426
  15.3594160  65.6688614  52.6530685  16.4841080  66.0131607  51.7004356
  24.5662956  16.9337234  76.9234314  25.0204239  17.1476002  76.1084137
  24.3846874  15.9962244  76.8575134  66.7858276   2.1084652  10.3787746
  66.6565399   2.0559590   9.4317989  66.4738235   2.9820049  10.6150312
  78.7738953   0.0725066   6.7718306  78.7309494   0.4444171   7.6527786
  78.4924469   0.7844865   6.1972880   3.6734426  36.1321144  37.7778320
   3.5800166  35.4962692  37.0684624   4.3941221  36.6972694  37.4995270
  57.3365974  12.2150240  28.4621067  57.1797905  12.9798260  29.0159302
  56.6798210  12.2824697  27.7690525  29.9981422  32.9170151  71.6170044
  30.8162060  32.7198410  71.1607895  29.5047798  32.0972290  71.5891571
  82.5117416  22.0008850  20.0196381  83.1068649  22.5853844  20.4891262
  83.0019379  21.7342224  19.2419300  50.5567627  61.4062996  20.5503597
  50.3928680  60.8820877  21.3343067  50.8249474  60.7693596  19.8880749
  81.5065994  30.1881981  49.4404449  80.9343338  30.4258728  48.7108841
  80.9093552  30.0293159  50.1713982  38.9214325  55.4650040  55.6464310
  38.9022751  56.4217186  55.6226158  39.7387085  55.2529602  56.0973473
  18.2932873  62.9491615  26.1087685  18.2943764  63.9036293  26.0364838
  18.6820450  62.6463737  25.2881470  70.1070709  11.4880285  50.9407043
  69.9710312  10.6505623  51.3838463  70.7136536  11.9635792  51.5082817
   7.0092726  55.0994835  76.8193665   6.5375624  55.5216675  76.1013947
   6.9856381  55.7396202  77.5306320  48.2364731  65.5949936  38.1712151
  48.7189255  65.3698349  37.3757477  48.7927704  65.2832489  38.8850632
  21.1168327  19.8657112  54.2687225  21.1675835  19.1517296  53.6332016
  20.4788170  19.5653362  54.9159775  14.6755123  53.5234184   0.3292198
  15.1161346  52.6771126   0.4057031  13.9488220  53.3615952  -0.2724164
  81.8580246   7.3427176  66.0002136  81.5861511   6.6449990  65.4039688
  81.6425552   8.1517525  65.5362396  75.8424759  50.7171364  45.4000092
  75.6607971  50.1903839  44.6217079  75.0794144  50.5844879  45.9624786
   1.2275627  16.5318604  76.8380890   0.6552263  17.2685280  77.0525284
   0.7817534  16.0834713  76.1194534  57.2973557  17.7992992  59.8908958
  56.7400055  17.3551407  59.2518997  56.8335800  18.6129608  60.0886269
  59.0113831  48.1689377  26.1192875  58.2399635  48.5755272  26.5140362
  58.7929077  48.0922928  25.1905117  25.2715359  29.7475529  83.3069763
  24.5344219  29.7359962  83.9175186  25.6858292  30.5988884  83.4477692
  54.7469482   3.5697143  17.7119026  53.8882904   3.9713974  17.8445263
  54.7884331   3.3982658  16.7710953  67.6238022   5.2120957  26.1823978
  66.8549423   5.5790644  25.7460194  67.9340820   5.9155197  26.7526169
  39.9155197  66.2851715  33.8456459  40.3768692  65.6174011  34.3530617
  38.9921455  66.0423431  33.9138069   5.5552087  69.6240997  57.4459991
   4.8331943  70.1473846  57.7940025   5.8166623  70.0791168  56.6454773
  20.2983570  16.4841709  85.3346405  19.4478855  16.9228096  85.3575668
  20.6292782  16.6492672  84.4517670  72.9332809  28.7333069  84.1279449
  73.5524521  29.4500809  83.9897919  73.4848251  27.9703655  84.3009949
  83.7240677  19.0063705  63.0997391  83.4452820  18.7416229  62.2231445
  84.1681747  19.8438702  62.9670944  77.8661957   6.1435351   0.1046043
  77.6684341   6.9321337  -0.4006035  78.5260391   6.4244404   0.7385834
  67.3288727  44.5034409  86.6376877  67.1223526  44.4688873  87.5717010
  66.5063324  44.7584343  86.2197876  26.7127342  68.4376907  44.9073639
  26.5272102  69.2632217  44.4598083  27.6683311  68.3880539  44.9319496
  58.8350983  22.5625820  69.4139252  59.0075264  21.6986580  69.7882767
  58.9286461  22.4374256  68.4695663  56.6705666  37.7285461  14.2287493
  56.2733078  37.9246826  13.3802528  56.0042000  37.9786949  14.8687592
  42.6144905  34.6733932  10.0716324  43.3652763  34.9867783   9.5673075
  41.8521004  35.0056992   9.5977516  35.6600838  70.9731064  63.9513741
  35.3785172  71.7905426  63.5405731  35.9961815  70.4446335  63.2275047
  52.7770729  56.0358658  63.2593117  52.8146172  56.7047234  62.5756073
  53.5779228  56.1670227  63.7669220  48.9657097  56.9621010  86.2295227
  48.3751488  56.4230042  85.7033615  49.6830826  57.1817017  85.6350632
  86.5209122  65.3839264  13.6675406  86.8748322  66.2729645  13.6433344
  86.8269730  64.9820786  12.8544760  46.4875679  45.9048347  30.8290005
  46.7817612  45.2169571  31.4260845  47.2010880  46.5428963  30.8285542
  68.9365387   9.5309544  18.3815269  68.3290329   9.4233027  17.6496983
  69.8041077   9.5105944  17.9776058  63.8485260  23.9762630  26.2242966
  64.6418533  23.5210266  25.9421120  63.1345062  23.4940643  25.8072910
  38.7401428  13.9523878  88.6106033  38.9559593  13.0202799  88.5817871
  39.1149559  14.2596073  89.4360504  75.2617340   6.1711392  52.0691910
  75.3366013   5.8854718  52.9796944  75.9772491   5.7231431  51.6180038
  55.1465530  68.5894699   9.0990744  55.3871078  69.4397812   9.4669447
  54.2133675  68.6693039   8.9015331  81.9829025  38.2638474  70.6240005
  82.7791214  38.3572121  70.1009827  81.8265457  37.3200417  70.6558304
  66.5320740  41.6262321  38.9831734  66.0011292  41.9711533  39.7010574
  66.1666870  40.7585335  38.8104782  30.9589310  15.6994553  20.8071327
  30.2158947  15.7938299  21.4031391  30.9553699  16.5052166  20.2904434
  25.4838257  32.6138458  35.8944817  25.8303471  33.1348991  35.1701508
  24.5472946  32.5409851  35.7105446  24.0953922  70.5687332  34.3361053
  24.8972359  70.1635971  34.0057373  24.0601196  70.3131485  35.2578773
   1.4128246  56.3227997  41.3807907   1.7984474  57.1741180  41.5876274
   1.6757437  55.7578659  42.1073990  55.3968201  57.8243561  71.5545349
  56.0788765  58.2150803  72.1007538  55.0097198  57.1436958  72.1050644
   2.7530503  36.7143745  34.9903030   3.5939865  36.9509201  34.5990181
   2.9315217  35.9062424  35.4712410  40.4842415   3.3694537  14.1645508
  39.6565628   3.5967238  13.7408438  41.0844383   3.1949561  13.4396019
   7.0318985   2.5701706  67.3772049   7.8188291   2.0503671  67.2135696
   6.3084760   1.9929719  67.1328049  21.5515385  11.5734529  77.1167679
  22.2348537  12.2329092  76.9966507  21.1168022  11.5212250  76.2655869
  50.1026802  19.9993496  23.1867123  50.9182930  19.6798840  22.8007679
  49.8811951  20.7746696  22.6709061  85.6789322   3.2010853  78.2314301
  85.0209274   3.8095777  78.5675812  86.1102905   3.6812458  77.5246048
  22.8299103  49.5060310  46.0093498  23.0959110  50.4125710  45.8555298
  21.8753662  49.5435066  46.0699539  79.9156952  57.7469864  71.1619568
  80.7469177  57.7344551  70.6874695  79.5209885  58.5880051  70.9314651
  54.2939110  70.8353195  62.4394798  53.7474976  70.8561096  63.2251205
  54.1867256  71.7031708  62.0501556  78.0239944  48.4406929  61.0444183
  78.3496399  47.5951233  60.7358780  77.0726318  48.3374367  61.0663414
  58.9811707   1.1934875  84.1479416  59.3619957   0.3224842  84.0358887
  58.0419579   1.0628465  84.0173950  42.5897598  20.0008793  26.5082321
  42.9649544  20.8453941  26.2587147  41.6512871  20.0987911  26.3472710
  87.1578064  67.4361496  32.6026077  87.0493774  66.5446243  32.9337692
  86.4189835  67.9201813  32.9714928  74.6400986  61.5513382  41.3798294
  74.5187836  60.6113358  41.5136604  75.5871506  61.6608162  41.2941513
  61.1456833  27.1639309  58.0787697  61.0386658  26.5338440  58.7913513
  60.6321754  27.9240932  58.3520775  53.6015244  49.1636925   2.4534061
  52.8028183  49.0064201   2.9569585  53.5179329  50.0668755   2.1476181
   4.6273856  17.2040787  32.0688248   4.6042743  16.7790661  32.9261818
   5.5389595  17.1262169  31.7873974  65.8939590  25.8729115  59.2919235
  66.0523224  26.0275974  60.2231712  64.9532623  26.0120983  59.1825943
  13.1169443   6.6430082  11.3186178  12.4218845   7.0710864  10.8187447
  13.6901350   7.3587537  11.5931940  66.8262024  27.0409298  56.6493683
  66.5108643  26.4332600  55.9803925  66.8142929  26.5320015  57.4599762
  57.0903358  28.3414192  33.2178383  57.1766548  28.4187374  34.1679993
  56.1475143  28.2719364  33.0678558  54.1230888  25.4139557  73.7800598
  53.2648582  25.0169144  73.9284744  54.1866150  26.1017666  74.4427185
  61.9392700  38.2700500  14.9687157  62.3717728  37.4260635  14.8388786
  61.0341644  38.1198463  14.6958523  44.6043091   2.8585296  19.3019619
  44.4939079   3.8043873  19.2050247  45.4984779   2.7538383  19.6271362
  37.3752213  49.6037178  72.1950150  36.4951591  49.9466667  72.3502808
  37.2357941  48.8141403  71.6721802  48.7075768  56.1331902  13.3383694
  48.4846573  57.0516548  13.4898844  48.5148163  55.6996498  14.1697063
  46.3301735  16.3503208  51.5039597  47.1433220  16.8490429  51.5833244
  46.1489792  16.0446167  52.3927460   7.3345218   3.6918814   6.2612796
   8.2009745   3.8067811   6.6515231   6.7650261   4.2710400   6.7677202
  85.3627548  67.7100143  61.4610863  84.4976807  68.1172333  61.5064468
  85.1827393  66.7727661  61.3877220   6.7495098  69.3359528   5.4855142
   6.9583464  69.6206818   4.5958247   6.2391109  70.0569458   5.8541403
  68.9150620  69.8087845  33.4743118  69.5179291  70.5120468  33.2330513
  68.0967102  70.0322113  33.0309029  56.3958969  52.8927193  42.5537987
  55.8678436  52.4310265  43.2051277  56.1639290  52.4805717  41.7215996
  75.8799667  34.4244461  60.5083122  75.6674271  34.1664162  61.4052391
  76.6791153  34.9446716  60.5917358  67.6333313  50.7647018  80.9963608
  68.4274979  51.1099663  80.5885239  67.2098999  50.2569885  80.3041458
  61.0546608  51.1074677  13.7650204  60.9019394  51.9739723  13.3880901
  60.2937508  50.9521980  14.3246098  59.9002876   5.5858650  21.3851986
  60.0295029   6.4174886  20.9291992  59.4256668   5.8210945  22.1824665
  71.8030853  29.3603687   8.6871586  71.2985229  29.8817463   9.3115101
  71.4649429  29.6197758   7.8300714  78.2500992  52.2260399  31.2367744
  78.0822449  52.1422310  32.1754074  79.0878601  51.7828369  31.1027699
   4.5101047   2.5787559  19.9337444   3.6289411   2.8035376  19.6349869
   5.0428729   2.5905046  19.1386013  81.5250168  40.1401291  77.6684875
  82.1073151  39.3816528  77.7117920  82.0468903  40.8185844  77.2400208
  23.8103352  43.1132927  19.0413704  23.9155693  42.2028694  18.7651691
  23.8034458  43.6121407  18.2244644  39.6157532  53.7563744   5.7362380
  39.7042694  53.8943596   6.6792955  39.3893700  52.8303490   5.6498737
  56.2776031   6.4391651  29.8127041  56.8106270   7.1312079  30.2041035
  56.4832458   5.6585660  30.3271046   3.0463006  27.8206806  70.9626389
   2.9289079  28.3106289  70.1487579   2.1730378  27.4880905  71.1700745
  66.6428833  22.1546879  74.2085648  66.1082153  21.4876900  74.6392365
  67.2332077  22.4677448  74.8939362  80.9047852  32.7313766  39.0163345
  80.5818100  32.8925171  39.9028740  81.5066605  33.4557610  38.8453407
  29.5083046  69.3621750  13.2528849  29.2388954  68.5858002  13.7436991
  29.3981876  70.0857010  13.8698206  67.6724625  19.2460976  16.0587406
  67.4722366  19.4474258  16.9728565  66.8495941  19.3985538  15.5941200
   4.6498995  16.0012474  11.1542072   4.9885168  16.8954773  11.1103649
   5.0327621  15.6390667  11.9532528  41.6658897  70.9919815  78.6851044
  41.0456848  70.2732162  78.5627975  41.8793221  71.2779236  77.7968979
  69.4972839  38.7477264   4.2146039  70.4414902  38.8269653   4.3503509
  69.4099579  38.4414978   3.3119237  36.7800903   7.3208981  20.3205376
  37.0577278   8.2052097  20.0814953  36.4817505   6.9329424  19.4979115
  66.8403168  56.8535004  17.0016804  67.1805038  56.7545204  17.8908978
  67.3222046  57.5984421  16.6424179  32.9779854   2.5528605  37.9101295
  33.8718033   2.6331432  38.2431068  32.4253464   2.8474326  38.6340446
  20.4824467  23.4801369  72.9476166  19.6360016  23.8734951  73.1598206
  20.3237915  22.5368385  72.9829559  35.4298172   2.5732026  38.8414612
  35.9817009   3.2566597  38.4612694  35.9635925   2.1956580  39.5405884
  64.2581558   5.0034742  72.6844559  64.2907562   4.2597518  72.0827560
  64.1544266   5.7668262  72.1163330  36.0105782  10.7217093   6.2247257
  36.0476799  11.5195713   5.6972103  35.1546555  10.3423767   6.0253949
  28.5561485  43.2555275  78.1611633  28.3880482  42.3137016  78.1305542
  29.3113022  43.3828316  77.5869064  38.5448952  57.9450912  58.5825195
  37.6322517  58.1786957  58.7520370  38.8381958  57.5234108  59.3902283
  82.5679550  39.7136574  56.3483810  82.7807922  39.2760010  55.5241318
  83.0424728  39.2152443  57.0136986  28.9221992  61.9700928  50.6746559
  28.2382412  61.3006935  50.6563759  28.4460163  62.7970772  50.7493553
  29.9486141  22.5363178   8.1127958  29.1268806  23.0219669   8.1844177
  29.9316254  22.1656284   7.2304506  76.0082855  10.7918139  48.3399086
  75.6128769   9.9533854  48.5785027  75.3072586  11.2697563  47.8967781
  62.6431541  35.1770859  29.6148338  62.2673569  34.7043762  30.3574982
  63.2557487  34.5560341  29.2208099  67.8250580  23.2933655   3.2433059
  67.2218475  22.8115253   3.8091686  67.5102081  23.1211948   2.3559175
   0.3522443  22.0847912  54.3697281  -0.5920619  22.2047977  54.4703064
   0.4396448  21.4787674  53.6339760  10.3440256  55.1311913  45.0563431
   9.3980379  55.1623306  44.9136238  10.5522690  55.9710312  45.4656563
  11.1576777  59.1462212  54.7724075  11.6233759  58.9981956  55.5954781
  11.8301353  59.4658966  54.1708755  32.7711868  41.0188828  11.6105061
  33.2649727  41.4072113  12.3327284  31.9239788  40.7923508  11.9941120
  52.4682922  43.8991013  71.5626526  51.6653671  43.8532104  71.0435791
  52.2335358  43.5041656  72.4023819  23.3330021  57.0455933  45.6357689
  24.1995850  57.3323021  45.3475533  23.2620220  56.1443329  45.3212509
  84.0040970  47.9706802  77.7263794  83.8770065  47.6855011  76.8215256
  84.7758713  47.4885712  78.0232925  59.3917618  33.2744942  38.1568985
  58.5221176  33.6696854  38.2183571  59.3485107  32.5098915  38.7311325
  42.1411095   5.3823452  73.4893646  42.2060738   6.3318491  73.5916061
  42.9177742   5.1421671  72.9840546  79.1377258  40.2351608  26.3630848
  79.4551620  39.4269905  25.9601860  78.5379715  39.9414062  27.0488167
  44.4493408   2.2470636  25.3523331  45.0767632   2.8096077  25.8063354
  44.5705490   2.4524779  24.4253235  81.3907394  70.8300323  60.4130936
  81.1986694  71.7165527  60.7187462  81.5977631  70.9363937  59.4846230
  84.3604813  33.7625694   6.3032670  85.0544662  33.8350792   6.9585233
  84.4723740  32.8875504   5.9317083  16.9167061  61.7491264  30.3577538
  16.8307457  60.7966843  30.3989544  17.4898109  61.9056435  29.6072311
  12.1742516  33.1306648   4.2444830  11.3159990  32.7709351   4.4685955
  12.4771233  32.5906143   3.5145202   5.6609535  62.8468590  82.2415924
   5.4324203  63.7567444  82.0515594   4.9151578  62.5114899  82.7391357
  16.8855362  24.3804207   9.3967476  17.6637764  24.9345398   9.4561186
  16.9719181  23.9357071   8.5535393  83.0735931  24.1997204  10.1647263
  83.4793777  23.6936626   9.4608240  82.7312012  23.5397110  10.7675419
  74.4075699  71.2304001  54.0894890  74.4539642  70.2758179  54.0360489
  74.5998154  71.5296631  53.2008286  47.5988083  67.6583481  11.6493216
  47.8160591  68.5905533  11.6443224  47.4624176  67.4392548  10.7275677
   0.7345492  66.9013443  58.8783951   1.6323179  66.5926208  59.0005913
   0.1898255  66.1422577  59.0864754  66.1584244  53.4951668  49.1032639
  65.7234650  54.3003654  48.8227348  65.6937180  52.7981033  48.6402512
  84.5419006  13.3727970  67.7160034  84.4337616  12.4783030  67.3928604
  83.6987457  13.7926226  67.5455093  17.3824043  15.5443029  13.0750532
  17.1951942  15.6219187  14.0105534  17.9202023  16.3102074  12.8740635
  54.2081413  55.6652222  88.3587494  53.5858727  55.8011856  89.0732574
  54.6976433  54.8829498  88.6130447  69.9492569  40.5926056  61.8427238
  70.0322342  41.4120445  61.3550072  70.2949295  39.9251137  61.2501106
  21.9199257  51.0168266  42.3031578  21.9133682  50.2110710  41.7864876
  22.7607613  51.0013771  42.7603111  67.6529617  59.0019608  53.3979454
  66.9389572  59.1676750  52.7823410  67.8707962  59.8649902  53.7500229
   4.8496027  42.8036156  69.5798874   5.3372741  42.2330399  70.1738968
   5.2704444  42.6794548  68.7291718  42.5510788  67.9289169  57.7680626
  42.0814133  68.1687927  58.5668755  43.4685936  67.8775558  58.0359421
   0.5803351  51.0661888  81.9707947  -0.0315189  51.1193924  81.2366028
   1.4256563  50.8744888  81.5646973  12.0154266   0.3284826  14.7481136
  12.6513929   0.4294336  14.0398846  11.3545227  -0.2662783  14.3935757
  74.8694916  13.2060623   0.0803186  74.8538437  12.3332357  -0.3123147
  74.8134995  13.0459566   1.0223714  69.6130447  20.6099949  14.8623924
  69.1586227  19.8827362  15.2876272  69.8327789  20.2787876  13.9916162
  46.1134567  52.3426590  37.5921783  46.9737701  51.9278450  37.5287895
  45.6473160  52.0481453  36.8097382  40.5718460  46.3498001   4.7630138
  39.7894287  46.4902916   4.2297993  41.2002411  46.9961662   4.4412007
  27.2794685  60.9721489  82.9420700  26.7845802  60.1994133  83.2144623
  28.0834274  60.9366455  83.4603577  49.9348679  34.3987045  89.1692657
  49.3216515  33.8461075  89.6538620  49.8891945  34.0752525  88.2695312
  46.8507690   3.0696781   1.1715138  47.7466736   3.1539817   0.8451961
  46.6742706   3.9045472   1.6051872  45.4507103  33.9778099  41.0170441
  46.3943138  33.9315147  40.8630905  45.1577263  34.7193909  40.4874725
  83.3659668  10.4348593  77.2074127  83.3313675   9.4950352  77.3856430
  82.4570312  10.7260418  77.2800827  83.3610306  38.0038757  77.8881531
  84.0696259  37.3780479  77.7382736  82.8637772  37.6326561  78.6169662
   3.8885231  49.0098686  83.5100403   4.1427827  49.9260941  83.3999710
   3.1049724  49.0430183  84.0588455  73.2974701  14.1565523   5.4574494
  73.8510742  14.6734238   6.0427670  73.8991699  13.8211308   4.7928596
  71.4144440  24.6447277  28.5861607  71.6218567  23.9584885  27.9518986
  71.4863129  24.2134972  29.4376926   9.5714054  34.6486435  18.4987087
   9.3358517  34.0674095  17.7755775  10.2418108  35.2259598  18.1333389
  74.4732208  20.2517929  22.0529118  74.1756821  21.1607590  22.0914555
  75.4101486  20.2981873  22.2432880   7.4174070   0.6634045  80.5450592
   8.1086950   0.0716900  80.2480316   6.6939054   0.0847622  80.7857895
  59.8821869  10.8591852  29.1784840  59.2047310  11.2856741  28.6537075
  60.7049255  11.2137012  28.8413601  50.7330971  52.9882126  50.2056351
  51.3933907  53.4723320  49.7097778  49.9928703  52.9081001  49.6040726
  37.2245102  40.0588722  32.8152504  36.5522308  40.0168419  33.4953308
  37.8235016  39.3426132  33.0259972  57.6284142   6.5252714  25.8156776
  57.0546417   6.0842462  26.4421883  57.8885765   5.8369660  25.2034836
  81.4456558   0.4140786  28.3431320  81.5118561   0.4035054  27.3882809
  82.2941666   0.7443395  28.6384048  84.0669327  45.6927071  21.5206337
  83.3939972  45.7116585  20.8401661  84.7735519  45.1681366  21.1441441
  22.8419075  11.8095293  87.7842865  22.6472797  12.3662024  88.5382538
  23.6360760  11.3371220  88.0340042  25.1542912  19.5655022   3.4528100
  25.3063164  18.6233311   3.3790960  26.0302773  19.9445305   3.5250392
  46.8831520  62.9736595  23.8982143  47.6094208  63.3371735  23.3916302
  46.5411949  62.2655640  23.3524132  21.1039963  24.9977360   3.9366727
  21.2094231  24.1386032   3.5280075  21.5663967  25.5990391   3.3528457
  64.3065643   8.7337837   9.4968233  65.2401199   8.5223303   9.4944677
  63.8899727   7.9834976   9.0728512  44.8227577  52.9065857  55.9771156
  44.1712112  53.0962105  55.3020134  44.8703690  51.9509010  56.0023232
  61.4378128  10.3931255   4.5152760  60.5594063  10.7559500   4.6292682
  61.4265976   9.5769911   5.0153055  84.6996918   3.1694539  82.8782578
  83.8753967   3.0654900  82.4029160  84.6804733   4.0719972  83.1965027
  28.1934299  66.7898331  28.8152790  27.2673397  66.9897537  28.6788292
  28.6216087  67.0757828  28.0083561   6.0152802  65.5491791  13.1172590
   6.9407940  65.3053207  13.1310387   5.9772778  66.3125305  12.5409946
  69.6513443  21.5048714  32.5895309  70.1586304  21.6756210  33.3830910
  68.8369446  21.1134834  32.9054527  39.1727829  68.1641922  44.3547859
  38.9656792  67.6450729  43.5777054  40.0721283  68.4595795  44.2127953
  72.7130432  33.5564690  47.7941933  72.2225952  33.3091125  47.0102844
  72.9423828  32.7233925  48.2060394  82.8483047  36.9825897   0.6062084
  83.5095596  37.4349060   1.1300288  82.2080688  36.6709137   1.2458832
  13.0674858   1.9395661  76.4146194  13.2803745   1.1432964  76.9013062
  13.7042866   1.9611388  75.7003021  19.2644024   1.0958850   5.3813558
  19.9545593   1.7196550   5.6068034  18.8361244   1.4789045   4.6157808
   4.2091336  36.1213036  26.4498672   5.0823884  35.9854546  26.8175659
   3.6366324  36.1954308  27.2133980  39.3663750  66.4000244  39.9062195
  40.1792755  66.1219711  39.4841919  39.3926506  65.9895325  40.7705307
  77.8006973  22.4379807  36.6889687  77.6651001  23.2424259  37.1896820
  77.9070969  21.7573032  37.3534927   7.0440865  26.4383125  66.2378387
   6.8111591  27.2966747  66.5916672   6.7316256  25.8157921  66.8943939
  21.4021378  61.9461403  87.0263443  20.8701706  61.4635086  87.6590500
  20.8489456  62.0103035  86.2478256  52.1618538  63.1554489  62.4404602
  52.8548813  63.6723900  62.0297089  52.0361328  63.5618362  63.2979393
  13.9536829  44.4210815  82.3275833  13.7542992  44.2160759  83.2410660
  14.6617117  43.8199120  82.0962372  18.5667229  60.2895546  36.4520187
  19.1287937  61.0536194  36.5805321  17.7853012  60.6367035  36.0217857
  22.9364033  21.8485603  28.1791420  23.8103809  22.2122211  28.3210773
  22.4082832  22.5963993  27.8997478  81.3727493  65.1878357  48.6131439
  82.2664642  65.0291061  48.3092957  81.1332092  66.0288162  48.2237816
  44.6135483  47.0229263  87.2855225  44.9633446  46.1395226  87.4015961
  44.7016640  47.1941414  86.3478928  58.7420998  10.4375868  69.9095459
  58.7338448  10.4867353  70.8654480  59.3769798   9.7494259  69.7105713
  46.5141716  51.4780006  87.0359421  45.8070984  51.9301987  86.5757294
  47.2595520  51.5274010  86.4374466  18.4873466  16.1823635  50.1051903
  17.5382347  16.1810150  49.9810257  18.6241341  15.6848536  50.9114189
  33.2681999  66.7863541  13.2898512  34.1597214  67.0482635  13.5196848
  32.9511070  66.3145599  14.0599766  63.1626778  15.3154907  68.1336136
  62.8043480  15.9115810  68.7912674  63.9382629  15.7659664  67.7992859
  36.5245476  46.7194824  10.8455944  36.9443779  47.1109848  10.0796309
  35.6671715  47.1426353  10.8912487  52.8037186  62.3882675  40.1207123
  52.5876656  62.7088814  40.9963608  52.3176651  61.5676727  40.0394249
  31.8828583  49.4042015  52.2527657  31.0879574  48.8771782  52.1714516
  32.5969925  48.7860870  52.0972786  12.7726030  13.1212568  22.6136131
  13.4283485  12.5709686  22.1853466  12.9179659  13.9944782  22.2494888
  52.2714233  71.0288620  55.1523705  53.2098198  71.2133789  55.1124039
  51.8773727  71.8525925  55.4394722  68.0531311  22.5667915  86.0109940
  67.8265839  21.8567429  86.6116104  68.9188080  22.3312244  85.6773224
  28.3411465  37.5290298   9.6619787  28.2541580  38.2300529   9.0160437
  27.7075901  36.8674507   9.3842249  54.4360542  63.0367966  78.3295135
  54.9052010  62.8287544  77.5215225  53.5768127  63.3400230  78.0362778
   2.6254072  13.5961113  61.9967346   2.3067455  14.3847418  61.5577011
   3.1522539  13.1493893  61.3340836  50.6157913  54.7066536  53.7863007
  51.4058189  54.9169464  53.2884369  50.4554710  53.7812462  53.6015053
  43.8088074  33.6800919  73.4374237  43.5850105  34.3945656  72.8410339
  44.1921158  33.0084343  72.8733444  69.3881989   1.0278093  44.7766190
  68.6460648   1.5569453  45.0690002  69.1083069   0.6667761  43.9354591
   9.1172495  59.6862373  53.0117989   9.7745419  59.9353523  53.6615219
   8.6428671  58.9603729  53.4171600   6.9353375  59.4187660  87.8529892
   6.2740798  59.0501366  87.2672577   7.6786370  59.6140289  87.2823639
  38.0670776   8.7716036  79.7640915  38.3682098   7.8763108  79.6091614
  37.9209557   9.1300201  78.8886337  68.2407455  44.0290070  54.0374184
  67.8581848  44.9021530  54.1240005  68.2808228  43.8776398  53.0931129
   4.3603077  53.4185867  15.8683577   4.9566779  54.1128693  16.1486282
   3.5126011  53.8535690  15.7766161  84.7002792  67.6721344  18.6226330
  83.7918625  67.4359360  18.4349613  84.8116837  67.4752960  19.5527267
  76.9459305  62.8246956  71.3088684  77.7040405  63.4089546  71.2972412
  77.0999680  62.2180099  70.5846863  17.6654587  43.7520103  53.3623810
  16.7699490  43.7768059  53.6995430  17.6074028  44.1596031  52.4982452
   1.9276727  71.9097900  39.1231384   1.6672574  71.1739578  38.5690956
   1.2268038  71.9815063  39.7711105  75.3356247  21.8907814  36.2034836
  76.1391220  22.4053841  36.2796783  75.6379318  20.9882259  36.1023216
  50.8867722  49.1701279  18.7057743  50.3143616  48.5487862  18.2557545
  50.3958168  49.4258003  19.4866886   1.0732491  47.1929245  19.0938358
   1.0748651  47.9074478  18.4569016   1.9963595  46.9614944  19.1965027
   6.0479879  41.7959442  79.3739090   6.1965284  41.1378517  80.0529404
   5.2695994  42.2701988  79.6661911   0.6999270  69.6883774  58.0391235
   1.2979547  70.1816864  58.6005898   0.6289453  68.8313217  58.4594193
  46.7236824  15.7152576   6.5288806  46.2709541  14.8728762   6.4881282
  47.6355743  15.4885054   6.7112794  83.7735519  13.4226732  50.3140793
  84.2178116  13.1661844  49.5059433  84.4634476  13.8068419  50.8550911
  80.8714523  50.4723740  46.0786171  80.0648880  50.6380997  45.5905380
  81.5395355  50.3526688  45.4036598  52.8666916  38.5058861  44.7937317
  52.4519348  37.7054100  44.4720993  52.1373367  39.1023331  44.9626312
  52.4773827  65.4000397  59.0501671  52.3255157  65.9440842  58.2773895
  51.9170341  64.6352463  58.9185295  70.2390594  60.6514359  44.3510437
  70.4318924  59.7523842  44.6170349  69.5499039  60.5638008  43.6925430
  12.3515329  25.6691494  16.3248615  11.4511232  25.5911617  16.0095634
  12.3279819  26.4043198  16.9373989  68.2090530  34.3142738  46.7018280
  67.9937210  33.8920250  47.5334320  67.9051361  33.6986313  46.0348549
  82.0945435  19.7074165  60.6792603  81.9459076  20.3871899  61.3365631
  82.7006836  20.1063232  60.0549965  45.6714172  68.2896576   3.2317085
  45.2916756  67.5889893   3.7618992  44.9926262  68.4993286   2.5902159
  58.9131813  55.2205696  17.7453728  58.3304482  54.6923943  18.2909794
  59.7942047  54.9634438  18.0172462  27.7754936  32.7737427  87.0596924
  27.5285740  32.0219460  86.5211105  28.1728554  32.3886490  87.8407364
   6.8371673  47.5480118   1.6349694   7.7535276  47.4231110   1.3881605
   6.4667616  46.6653862   1.6352880  56.9613152  60.8997154  60.7470741
  57.0715141  60.0671463  60.2878227  57.7215538  60.9564171  61.3259125
  50.5467377  15.0666065  33.7911720  49.7331123  14.6513062  33.5052185
  51.0829239  14.3437624  34.1171074  21.4521942  50.9045830  36.5847588
  20.6685448  50.6411781  36.1023254  21.1324463  51.5229492  37.2417374
  10.8345919   3.3619618  52.9492912   9.9439383   3.2053800  52.6355247
  11.3907871   3.1805668  52.1916809  69.3851318  26.7544460  74.9186172
  69.4346237  27.0676498  74.0154648  68.6528015  27.2385063  75.3002014
  22.3052483  18.4542770  74.6229477  21.8089428  17.6820202  74.8941193
  21.8723164  18.7478943  73.8213272  72.9209366  46.5624771  47.9918823
  73.1361313  45.6297874  47.9883423  72.5624237  46.7222557  48.8649063
  36.5201492  48.1526222  54.0514603  36.5625496  48.8449440  53.3918228
  36.1782532  48.5869789  54.8329163  27.0537758  30.8166866  37.1989326
  26.4617615  31.4931259  36.8700256  27.9300632  31.1566887  37.0179558
  77.3243713   6.0777879  50.3799896  78.0803528   6.6593032  50.4610252
  77.5745316   5.4532089  49.6991425  35.0462685   1.7039398  56.5071487
  35.0295868   1.7145875  55.5501556  35.5365372   0.9124289  56.7293625
   4.6971049  70.0707321  39.5686760   4.0003877  70.5856628  39.1616592
   4.6734838  69.2309494  39.1099396  43.6001511  44.9498672  28.3333969
  43.5401306  45.7664223  28.8292465  44.5350227  44.7446404  28.3221569
   8.6087074  70.9393463  84.1961365   8.1392555  71.7733536  84.1796188
   8.8077269  70.7948074  85.1211929  85.7593536  52.8322906  75.8045654
  85.4445419  51.9873581  76.1258469  85.5257568  52.8377037  74.8763199
  70.9053192  56.9330635  41.8543739  70.7515335  56.8496017  42.7954445
  71.7642517  56.5340118  41.7157249  53.1687508  38.9683075  47.7173500
  53.2938614  38.0939331  48.0862007  52.7879906  38.8115082  46.8532524
  54.0752869  37.5930443  28.5823898  53.3417625  37.9276657  29.0983410
  53.7624931  36.7577095  28.2351074  16.7829132  12.4465866  19.4023495
  15.8392754  12.6067057  19.3904476  17.1578922  13.2512636  19.7602844
   3.0319715  35.7072296  66.0297012   2.7698431  35.9333572  66.9221039
   2.8385267  36.4921188  65.5170975  50.1220169  36.7422829  39.0174408
  49.7939682  36.5315514  39.8916321  49.7030106  37.5746117  38.7985878
  61.9707680  11.9138680  24.2084389  62.8756371  11.8189745  24.5058250
  61.9309196  12.7966070  23.8404503  79.1226883   8.3428879  38.7806358
  79.6874619   7.6625881  38.4139557  79.0512924   8.1203070  39.7088585
  56.3945961  52.0281487  17.0742397  57.1166840  52.4366302  16.5967846
  55.7847481  51.7474518  16.3919449  33.9126015  43.8806801  50.6260872
  34.4807777  43.1107368  50.6017647  33.0631561  43.5612106  50.3217583
  64.8597412   3.3585367  -0.0503410  64.5400925   4.2605319  -0.0717558
  65.6326065   3.3916414   0.5134099  82.3743362   5.5460949  83.2154236
  81.7206116   5.2659235  83.8560333  83.2022476   5.5304613  83.6955719
  55.2046356   4.3813014  85.9182434  55.1025925   5.2557344  86.2939911
  56.1481705   4.2846365  85.7892838  86.2638016   4.8135748  71.5418854
  87.1552277   4.4672446  71.5014191  86.2999344   5.6273122  71.0391312
  63.6283684   5.1263595   9.8896933  64.4041367   4.9314146  10.4154425
  63.3947830   4.2895136   9.4879990  43.9566078  69.0107727   0.9880280
  43.5155144  68.4556198   0.3450093  44.3540802  69.7096176   0.4685534
  71.5272598  61.3809090  37.4849129  70.7968140  61.9756622  37.6550674
  72.2859192  61.8158302  37.8741531  63.9808655   5.1576881  26.5994873
  64.4556732   5.6846070  25.9567242  64.1605377   5.5833187  27.4378128
  61.1290245  69.0415497  28.8099003  61.6028099  68.3212357  29.2257156
  61.6630974  69.8151779  28.9901714  73.8514023  11.8235359   2.3593729
  74.1581192  11.1640472   1.7370942  72.9983521  11.5005817   2.6495967
  33.1906662  59.0829315  48.6841469  32.8931465  58.3992805  48.0838661
  33.6924248  59.6836853  48.1331863  46.7849503  24.8858299  80.6967316
  47.7171135  24.9655514  80.8990936  46.6236000  23.9424992  80.6786880
  67.0604401   2.6186109  42.7851830  67.2629395   3.5178134  43.0433769
  66.3539734   2.3536212  43.3741798  42.9824905   3.4885247   3.0922067
  43.7125893   3.7434745   3.6562886  43.1346779   3.9624343   2.2746005
  25.3159924  46.5948257  88.0008774  25.2369499  45.9989319  87.2559662
  24.4149475  46.7356529  88.2915955  73.3508072  12.2035265  68.1631546
  73.1366959  12.6671324  68.9727631  74.1671066  12.6053362  67.8657684
  45.9475822  64.2310181  55.0146599  46.6135712  63.6625824  55.4014053
  45.6270676  64.7572174  55.7472000  18.3934174  66.9781876  54.1020279
  17.6131020  66.5041656  53.8145561  18.4830456  66.7527542  55.0279770
   9.5127068  10.5273113  72.7093658   9.1032686   9.7345333  73.0559082
   8.7847395  11.0369511  72.3536072  57.1950188  16.9988289  30.1119556
  58.0797157  16.8578625  29.7748013  57.0529289  17.9414196  30.0249844
  51.9583092  70.5136642  70.3077240  51.0089798  70.4806595  70.4256973
  52.2291718  71.3088760  70.7665329  32.0521812  65.3759613  33.7635803
  31.6397743  64.5425186  33.9905777  31.4773312  65.7542725  33.0982552
  73.4650726  60.3729401  27.2553272  73.1381531  61.2675667  27.3502293
  73.5398636  60.0487938  28.1528606  43.3483353  68.9223709  61.8144913
  43.0959930  69.8359451  61.9484138  43.6684685  68.8920135  60.9129219
   1.0642726  57.2823486   0.5313842   0.7131444  57.8537025   1.2143915
   2.0003223  57.4813614   0.5104597  29.9971886  49.0655212  65.4748917
  30.9109192  49.2926102  65.3023911  29.4973164  49.5959587  64.8544083
  85.0503464  19.9370708  24.2605667  85.5277176  20.4736443  23.6277637
  85.5129166  19.0990620  24.2612381  33.9708557  33.7222824  27.1164227
  34.2987099  34.5658836  26.8048401  33.7043419  33.8880882  28.0206966
  62.2085609  57.7826843   9.4463291  61.6332397  58.2688332   8.8556519
  62.6183510  58.4559669   9.9894609  34.7231636  31.7410450  88.5747681
  35.1267891  31.2762852  87.8417511  34.6770172  32.6520157  88.2845306
  15.4166956   6.9318147   5.3427420  15.1518040   7.3485231   4.5227313
  15.1231213   7.5363331   6.0243602   1.7038860   9.5256052  38.1869278
   1.0491401   8.8538294  38.3773422   1.5701723  10.1890659  38.8638115
  40.0202713  67.3745041  54.4668884  40.5907860  68.1070099  54.2341309
  39.1845551  67.5791473  54.0474472  59.1835670  27.8612843  79.2288208
  58.7029991  28.6057949  78.8668900  60.1028671  28.0606365  79.0516891
  78.5253220  50.9209251  44.6880188  78.4422913  49.9686699  44.6375771
  77.6233368  51.2410393  44.6745949  57.6590080  24.2121296  28.0184174
  56.8952103  24.6137066  27.6041927  57.8928261  23.4875526  27.4382915
  36.5553398  38.1166916   2.7370520  35.9243469  38.1130333   3.4568214
  37.3295593  38.5473747   3.0994456  48.8422699  51.9283981   4.5171866
  49.0801735  51.1739960   5.0561790  49.0275955  51.6499634   3.6203249
   0.5540862  28.2566624  22.9622784   0.1222883  27.5208111  23.3962212
   0.9883155  27.8661671  22.2038651  30.8669758  36.8272552  87.2119980
  30.0712280  37.3269730  87.3944855  30.7286568  36.4682922  86.3355026
  39.4630928  65.2786255  56.4174767  39.7091980  65.6094666  57.2813110
  39.4747810  66.0514221  55.8527756  51.0545654  57.3977013  11.5213051
  51.1010056  57.1773720  10.5909662  50.1257401  57.3209534  11.7395439
  85.5388489   1.2050316  56.2471428  84.9814911   0.4453279  56.0785027
  85.3984528   1.4043337  57.1727791  10.9964228   7.0341897  62.7985954
  10.2142878   7.2854972  62.3073311  11.7255201   7.3626056  62.2724876
  58.7154846  59.6017952  16.6526375  59.4535446  59.2644272  17.1602573
  59.0489311  59.6640587  15.7575588  37.3105621  40.6299553  40.4781418
  38.1913109  40.9862442  40.3616486  36.7874565  41.3757210  40.7721214
  47.3284225  36.0119209  26.8514919  47.6573257  35.4635696  27.5637875
  46.3799553  36.0274773  26.9795628  51.1970444  27.3662872  68.3312225
  50.4922905  27.8375225  67.8868256  50.9373703  27.3602352  69.2525101
   7.9142647  25.9242821  75.9621582   8.6936569  26.3739700  76.2885971
   8.2199850  25.0443077  75.7421341  63.6788597  66.5743027   0.9910504
  64.2051010  66.0089111   1.5564085  62.7731590  66.3449326   1.1991917
  81.0572891  34.9143333  80.5339737  81.4548035  34.3122711  81.1630478
  81.1610260  34.4793396  79.6876602  62.0643959   9.7199030  54.9058304
  61.8390579   9.1124706  54.2012138  61.5271454   9.4378824  55.6461372
  11.3342381  51.5566216  50.4254379  10.6576786  52.0381927  50.9014473
  11.4426556  52.0415421  49.6073151  70.4990768  53.8214149  47.0698471
  70.1902847  53.0391388  46.6127701  69.7211838  54.3729401  47.1530457
  72.2148514  38.0766869  31.5912666  72.7877502  38.3845177  30.8889446
  72.1622925  37.1300049  31.4598866  86.2627640  66.1502228   6.2072077
  85.8966141  67.0134506   6.0148497  85.9084015  65.5819321   5.5233207
  41.9997292  28.1736927  17.6980095  42.5284424  27.7773247  17.0054874
  41.3098526  27.5326252  17.8692837  77.9588165  26.4102592  87.9704285
  77.5272751  26.4101162  87.1160278  78.2844696  25.5161858  88.0744247
  22.0832825  44.1051903  79.7182312  22.1448765  44.5469055  78.8712845
  21.1584110  44.1709671  79.9559708  31.7476921  54.4489517   9.6711922
  31.8155727  53.9864998   8.8358698  31.1778870  53.8957939  10.2055826
  70.0084534  12.7282305   0.5826977  70.7609863  13.2439213   0.2928801
  70.0322800  12.7857027   1.5378739  83.8122559  30.0233841  47.7689857
  83.5084534  29.7356720  46.9080811  83.0251923  30.0212631  48.3137398
  70.2647934   9.3583584  34.3025398  69.8183060  10.1721344  34.5363121
  69.6037445   8.6776838  34.4287720  74.9246521  46.4368172  31.4543819
  74.9809494  47.3755951  31.6325932  74.0222168  46.3015900  31.1653271
   0.5821736  50.7433014  27.4276276   0.3391004  51.4982414  27.9635544
  -0.2335850  50.2546310  27.3182240  35.7854309  59.0944252  41.1964760
  35.9018517  59.1401787  42.1454659  35.1686592  58.3742790  41.0652733
  19.5232086  54.7442284  67.8275757  19.2504940  55.2874374  68.5670242
  20.2551422  55.2215424  67.4368362   5.9924412  38.4057961  42.8535271
   5.4142842  37.7612343  42.4454727   6.8655338  38.1826324  42.5308189
  64.3003845  61.2975464  25.0191898  63.5917168  60.6671104  25.1479111
  63.8775024  62.1526451  25.0979462  27.2875385  50.8140526  16.2240295
  28.1030502  50.4435883  16.5615635  27.4823666  51.7419395  16.0925026
  85.9315567   4.2661123  63.2197990  86.1208649   4.3505907  64.1542816
  85.8102112   3.3263972  63.0839996  27.6730042  23.6587944  23.4384441
  26.8794403  23.2124176  23.7338009  28.1255302  23.0107040  22.8986034
  77.0345230  29.2368698  45.6882668  76.3599091  28.9491673  45.0731659
  76.5957108  29.8852177  46.2390099  49.0335884   2.4904099  26.5519981
  48.9443169   1.9131483  25.7936897  49.8693047   2.2405272  26.9461689
  47.9892120  63.6086960  26.2171078  47.6143684  63.4576111  25.3494129
  47.9416618  62.7564392  26.6502666  58.9441261  34.0669670  12.4657373
  58.5988998  34.9334030  12.2504702  58.2595940  33.6619263  12.9982710
  71.4390564  69.3471222  53.9934464  72.3138885  69.0662613  54.2618027
  71.1398773  68.6612244  53.3965721  30.1451035  52.5663147  11.4237080
  30.1887569  51.7043037  11.8375425  29.4097195  53.0019150  11.8546352
   4.6543932  40.7679253  50.0161743   4.6197238  41.3899994  49.2895050
   4.9379802  39.9464607  49.6149139  52.4122276  51.8154373  44.6275024
  51.5407448  52.1907921  44.7534409  53.0109825  52.5504417  44.7597847
   0.8706177  12.9370995  48.6458321   1.2985868  12.2450581  48.1416969
   0.4635011  13.4977293  47.9853897  44.4046593  11.9797335  48.8095932
  44.3633118  12.7932758  49.3122559  43.8430405  12.1381941  48.0508423
  73.0404282  37.1725578  53.7591476  73.8740692  36.7222710  53.6231003
  72.4727478  36.8409195  53.0634537  54.8761215  21.8785229  56.8145638
  55.6237793  22.3153152  57.2225533  55.0892677  20.9464569  56.8599052
  29.7967052  61.7132492  56.4391136  29.8318462  60.8610687  56.0046158
  30.6240616  61.7728539  56.9167747  83.4888000  24.2043610  73.2621536
  83.1096725  23.3256950  73.2411728  83.2510986  24.5472698  74.1236343
  53.3476219  17.6118450  27.4420185  52.9027061  16.7977371  27.6776180
  53.2468910  18.1713638  28.2120991  79.4723434  18.1195412  31.3936367
  79.4508896  18.2990341  32.3336105  79.7916336  18.9324112  31.0018044
  28.6447735  50.8842278   6.4948826  29.3203163  50.9176712   7.1721969
  27.8328075  51.0951118   6.9558282  82.8694458  54.9697380  27.7792454
  82.6347580  54.6632271  28.6551476  82.1061554  54.7620201  27.2402973
  60.8886528  13.0529099  47.0524750  61.1160889  12.3226242  47.6279640
  60.5130768  13.7108870  47.6374893  31.5483665  48.2168694  37.4138374
  31.9123192  47.7335434  38.1555672  32.2572250  48.2384109  36.7709618
  49.0860939  42.4264755  14.9263840  49.9830475  42.7526131  14.9994659
  48.6680260  43.0143013  14.2971659  18.6250858  52.5546150  54.4533157
  18.6162548  51.6896858  54.8632584  18.6986351  52.3747025  53.5160599
  53.6156502  36.5472183  55.1287918  52.7236519  36.5049171  54.7841454
  53.8642120  37.4670906  55.0377693   6.1710830  41.6696320  55.6084938
   5.4805546  41.0478134  55.8381577   5.9537005  42.4614334  56.1004562
  25.5879402  30.0446129   9.6619253  25.6850243  29.1154308   9.4535332
  24.8985481  30.0704975  10.3254776  50.9279594   1.5358149  29.3986797
  50.0893517   1.8997469  29.6824436  50.8467331   0.5952907  29.5569458
   0.2370008  48.2072296  41.0637207   1.0870962  47.8511162  40.8053513
  -0.2229371  48.3528824  40.2369957  78.2470474  17.3956337  47.1535034
  78.6578903  16.5815468  47.4445267  78.6846008  18.0793915  47.6607018
  26.7910957  67.1248169  84.5933685  27.4963188  66.4834518  84.5065155
  26.8921471  67.6964493  83.8322830  30.5041142  54.7898178  68.0051041
  29.7434387  54.3563271  68.3920059  31.0771084  54.9768829  68.7486877
  70.7728348  54.8366585  26.5164089  71.4798584  55.4447174  26.7323246
  70.0254745  55.3999596  26.3154774  65.5248489  20.1093578   0.6792456
  65.7888031  19.9468307   1.5848629  64.5841446  20.2786655   0.7306613
  30.4845371   4.7295060  48.3516693  30.0636520   5.5302243  48.0387192
  31.3280144   4.7098513  47.8995743  10.7207556  44.8430824  60.8059692
   9.8381701  44.4909439  60.6907654  10.9023705  44.7335625  61.7393799
   6.4260311  37.7999802  63.0154495   5.8575563  37.1625061  63.4475327
   7.1963754  37.2955093  62.7540932   2.6811876  32.1989059  73.3249512
   3.0259819  31.7600689  72.5472870   2.0123832  32.7945518  72.9871063
  81.3880692  29.5114040  21.3087864  80.4644089  29.6003056  21.5436821
  81.8540573  30.0194130  21.9728756  19.7051716   8.3824081  72.1570206
  20.1315002   9.1902342  72.4431915  20.1726284   7.6876445  72.6207199
  62.3184090  68.7136307  59.5439720  62.2923431  67.8001938  59.8289070
  62.5450401  69.2045288  60.3338356   7.4277964  21.8795967  47.2802162
   7.8788204  22.4840851  46.6908073   6.4980063  22.0631599  47.1459579
  77.4584351  39.3020592  23.1423569  76.7720642  39.4881859  23.7830467
  77.8341904  38.4696350  23.4288979  80.9574051  56.5047150  54.7513351
  81.0060654  55.7759361  55.3699989  81.7933731  56.4798584  54.2857361
  70.1024323  29.6662445  72.4650040  70.1158295  28.7530918  72.1782913
  70.4494324  29.6424026  73.3567734   6.8199983  33.0496025  31.0641613
   5.9900093  32.7713280  30.6769733   6.6488137  33.9341087  31.3875427
   0.2758730  31.6383038  27.4189034   0.0275398  32.3764915  26.8624516
   0.6483543  30.9969234  26.8138218  12.7796345  65.6776733  23.8770447
  13.5765867  65.2140427  24.1342354  12.3859386  65.9544296  24.7044773
   0.3798585  11.7258787  52.5288773   0.6397146  11.5762587  53.4379005
   1.1930206  11.9635677  52.0833397  20.9379120  46.9923286  19.5769596
  20.2098579  46.9080963  20.1926517  20.7403412  47.7859116  19.0795403
   3.8194039  68.5548172  77.4852600   3.5978093  68.2792282  78.3747406
   4.7760577  68.5856018  77.4753799   1.4000103  51.1634331  24.4450111
   0.5893182  50.7206993  24.6960049   2.0706186  50.7697182  25.0031395
  58.4261971  59.4223785  69.7943802  58.9401169  59.8142548  69.0883026
  57.8703117  58.7776833  69.3566666  83.3681641  21.0342331  32.7643318
  83.1445847  21.5428123  31.9848499  83.4775925  21.6887836  33.4541321
  58.6836090  42.6303596  61.9386864  57.7909889  42.9755936  61.9553337
  59.2123222  43.3499374  61.5938644  40.3723526  52.7554588  26.6140461
  40.4855843  53.3437958  27.3605518  40.9196205  51.9978905  26.8209820
  28.7303333  37.0807991  76.4824677  27.8928642  36.8321190  76.8736649
  28.5739040  37.0450516  75.5388107  75.5588226  14.7869081  73.2783966
  75.3556137  15.4374275  73.9505310  75.0959549  15.0949469  72.4992294
  48.4174614  48.2096100   7.8147798  49.0193596  48.3926811   8.5361938
  48.8056297  47.4601135   7.3633242  72.4885483  52.2362213  44.5067787
  72.3726654  51.3094749  44.2971420  72.5309067  52.2620735  45.4626923
  85.8396683  15.8705244  60.4990387  85.8857193  16.6601391  59.9599457
  84.9909744  15.4832687  60.2845993  77.6291351  66.3550491  16.2109489
  77.8489914  67.0615311  16.8182220  78.4735413  65.9718323  15.9735422
  20.6200314  12.2760639  27.4208279  21.2750950  12.8311567  27.8439083
  19.8806629  12.2722406  28.0287361  53.0363846  16.8984489  24.5676022
  52.9726753  17.1155014  25.4976883  53.8979111  16.4917068  24.4750423
  42.9501305  66.6534348  88.0735092  43.8096504  66.5455780  88.4807281
  43.0136261  67.4803162  87.5955200  67.6811829  60.0959740  49.0527687
  67.6413956  60.1821632  48.1002884  68.6168671  60.0575790  49.2509041
  74.3377762  51.2456055  79.8410034  75.2056808  51.0014687  80.1625137
  74.4906158  51.5499535  78.9464417  66.5703888  44.7108727   8.1936436
  67.2954788  44.4750023   7.6149893  66.0548172  43.9081078   8.2710266
  43.8216019  36.8828049   9.1634102  44.7313652  36.6136665   9.2903767
  43.7971077  37.2314682   8.2723055   7.4226112  62.8568459  60.7858238
   7.1786160  62.9441032  61.7072830   8.3376760  63.1357803  60.7529106
  32.6035995   2.6550663  20.8058052  33.0927734   3.1352797  21.4738884
  33.1531410   2.7059007  20.0237255  65.0099335  49.6625443  87.1806793
  64.9003754  50.0674973  86.3203049  65.9422150  49.4509697  87.2288513
  25.1514072  48.5966072  74.2614441  24.7601585  47.7438431  74.0718384
  26.0797539  48.4087753  74.3997421  85.7317810  59.4970894  77.1294861
  84.9126434  59.0061684  77.0643082  86.3758545  58.8509560  77.4191666
  85.8172836  67.0237885  38.2216377  85.8772125  66.6235352  37.3542023
  85.5244064  67.9192505  38.0525169  18.9196224   5.7701340  81.3283691
  18.3503304   5.0357881  81.5583115  18.3630009   6.3516765  80.8104782
  62.9107132  57.9240341  36.2732811  62.9056664  57.1804695  36.8760414
  63.8364449  58.0654984  36.0751953   3.0983267  17.5931740  61.8761826
   2.5973091  17.6899719  62.6860237   2.5596111  17.0226326  61.3280029
  33.8754120  18.2228622   6.5482116  34.8107643  18.3110600   6.7314358
  33.4455032  18.5069656   7.3548679  72.0437012  62.9111557  42.0091782
  72.9464264  62.6487045  41.8290443  71.5104599  62.2966232  41.5049629
  68.7927780  68.6291199  64.4544601  68.0577927  69.2239838  64.3055649
  68.9507370  68.6749039  65.3974228  76.1909180  44.0231285  30.7489471
  75.7910156  44.8907547  30.8083858  75.5072021  43.4233170  31.0472527
  51.2017784  40.5790482   4.7038927  50.4976997  39.9742317   4.4700027
  50.8605461  41.4436874   4.4754362   1.2364651  67.8787079  62.7379608
   0.5664695  67.6109772  62.1089478   0.7859952  67.8780441  63.5825386
  84.9690552  63.3262062  25.2652893  84.2143478  63.7671547  25.6554337
  85.4109573  62.9085312  26.0045509  35.2609482  55.6121559  44.5092659
  34.3723183  55.6457062  44.8634377  35.7712898  55.1654549  45.1847229
  81.6787643  19.1075974  38.1720047  82.6063309  18.9275379  38.0189285
  81.6751785  19.8669701  38.7547340  15.6470671  27.3991432  21.1139946
  16.1117935  28.1459122  21.4916115  14.7252579  27.5666580  21.3100510
  40.2762489  11.0448999   5.1473556  40.4116249  10.9430943   4.2052617
  40.4676895  11.9670000   5.3185720  36.2094383  67.3973923  12.5445538
  35.6723557  68.0686417  12.1236019  36.9578705  67.8771896  12.8993502
  51.0399246  61.4655914  26.1361408  50.1617775  61.1407051  25.9372959
  51.2844925  61.9807396  25.3673496  59.6690674  50.3563843  60.2843971
  58.7682495  50.0798988  60.4526634  60.1943321  49.5727119  60.4462204
  36.3583145  64.2786484  45.7965736  36.6629219  65.1488113  46.0539818
  35.5298462  64.4388657  45.3446884  73.5119019  71.1489639  61.6256714
  73.9299393  71.9631882  61.3454781  72.5763245  71.3023529  61.4937935
  21.4976196  56.2863350  53.9022675  21.8713837  55.4055099  53.8762589
  20.5844784  56.1668472  53.6412582  27.0438728  23.6325722   2.1538527
  26.1532421  23.5048218   1.8272189  26.9389381  23.7423401   3.0989304
  62.4063568  66.3161621  76.1671219  63.0189400  67.0275192  75.9801788
  61.9684639  66.5833435  76.9752655  59.6925240  69.2355804  68.1482239
  60.2689400  68.4846725  68.0063629  59.1420670  68.9785919  68.8879471
  82.0575409   7.2032537  50.5510559  82.8528900   7.6595540  50.2763824
  82.3136597   6.7314510  51.3435440  47.8265762  38.7865257  18.6120815
  48.7144279  38.4388695  18.6962700  47.8046761  39.1786499  17.7391605
   6.6775436  42.9603996  67.1814728   6.0887566  43.5999222  66.7807617
   7.5531521  43.3217316  67.0437088  54.9385109  45.0977592  46.1224213
  54.2571220  44.9463997  46.7774277  54.7980881  45.9998589  45.8347893
  35.7903099  24.5598011  78.6867065  35.2942429  23.8476868  78.2829208
  36.0483246  25.1179581  77.9531403  67.1276245  59.2036629  77.7883072
  67.9456177  58.7955856  77.5044250  67.3826447  60.0834846  78.0659943
  73.9120255  49.9434280  48.7142410  74.3149033  49.9632874  49.5823021
  74.4314423  49.3064384  48.2236443   0.0961097  68.9532623  70.0260086
   0.0641153  69.7780457  69.5413055   0.7684530  69.0932236  70.6927872
  54.8430443  19.7365494  62.3803520  54.2598495  20.4955730  62.3796844
  54.4146805  19.1058788  62.9591331  16.4612617  60.6013908  64.8492661
  16.9867287  60.8652382  64.0939484  15.5644770  60.8364372  64.6110153
  11.4119778  53.4995270  29.0551529  11.5270462  53.8033295  29.9555378
  10.6594372  52.9093895  29.0958233  40.9625435  56.4321480  71.9451447
  41.0542068  57.2870941  71.5245514  41.4698906  56.5071945  72.7533493
  71.5406952   9.9365244  72.4974899  71.1403580  10.0346928  71.6335907
  71.7325516  10.8320732  72.7757263   1.9384522  44.4424362  19.8624516
   2.1526053  44.5172539  20.7923832   1.1126034  44.9170609  19.7679157
  40.1858177  38.2875023  30.9742813  40.2799263  37.7259560  30.2048397
  40.3268967  37.7010345  31.7175064   0.9983544  15.1975880   8.2824583
   0.0425256  15.1691513   8.3250542   1.1882021  15.7954912   7.5594769
  84.1016235  32.5146675  48.6397705  84.1524277  31.6239605  48.2929382
  83.1698837  32.7315369  48.6073723  13.0433826  56.3226967  56.0818939
  12.8369484  56.1206169  56.9944611  13.0386562  55.4728775  55.6414146
  79.4070511  35.1443977  11.8534975  79.4799728  34.5963211  11.0721331
  80.3105011  35.2677803  12.1446743  86.7603073  54.7949867  77.2256088
  87.2543716  54.4365349  77.9629288  86.4629669  54.0256386  76.7398911
  30.5204906  53.0611801  82.3935471  30.0010910  53.0689430  81.5895615
  31.2281246  52.4416542  82.2155609   2.8605680  52.3900795  75.9986877
   2.2607214  51.6471863  75.9314041   2.6093016  52.8279114  76.8119583
  56.3067856  63.3518753  38.4168587  55.5759735  62.8927612  38.0028992
  56.1349564  63.2783012  39.3556290  59.5404320  61.3703346  62.1053391
  59.5812950  62.2350082  62.5138779  60.3458786  60.9351158  62.3847504
   2.8927894  25.6806202  11.1857004   3.0606644  25.2949982  12.0455523
   2.3675230  25.0246372  10.7274303  49.5168381  66.2520218  64.7359772
  49.8114967  66.1462936  63.8314133  49.3995857  65.3574829  65.0557861
  26.0424976   3.5804546  33.1947975  25.8349476   2.6789081  33.4404984
  26.5552387   3.9169922  33.9296913   5.0626359   5.4571233  37.4841537
   4.2130761   5.4151173  37.9231491   5.1220603   6.3568830  37.1630096
   6.9785399  16.3966656   4.5271811   6.5076375  16.5790348   5.3403382
   7.8668871  16.7146053   4.6883817  59.0127449  33.2284546  67.3871536
  58.2928047  33.6978111  67.8086014  59.7601318  33.8222008  67.4586563
  47.9023209  11.4168749  84.3139191  47.2368584  11.9533291  83.8830948
  48.2696114  10.8807354  83.6111526   2.2874799  44.5885696   8.6247206
   2.3149269  44.0040779   9.3822460   1.4175318  44.4531517   8.2491093
  52.4862862  69.3449326  34.1792221  51.7173271  69.5225372  33.6375656
  52.5883331  68.3937759  34.1457253   9.2814732   8.5767841  23.8956184
   9.1596136   7.9598336  23.1739845   9.6673527   8.0518847  24.5969086
  14.5673933  68.2126617  80.8012772  14.6208858  68.8284149  81.5321808
  14.4033022  67.3647232  81.2139664   3.3711793  10.0850687  78.9804764
   3.9030018   9.6517382  78.3129272   2.4876382  10.0967369  78.6124420
  84.5069046  30.3588333  14.6597881  84.6836472  31.2956657  14.7454615
  84.2133636  30.2522411  13.7549658  11.5163193  10.7554560  88.2009048
  12.0031204  10.1577444  88.7683487  11.8844233  10.6112194  87.3291626
   7.4309535  12.9040127   1.8110760   7.2128716  12.2268648   1.1706519
   7.1471038  13.7213011   1.4015630  24.5157814  45.3252831  26.3015690
  25.0304375  45.1762505  25.5083790  24.9453411  46.0655212  26.7302399
  74.8260727  19.8508968  67.8365097  75.0465698  19.8542328  66.9050598
  74.7796631  20.7767544  68.0749741  78.5221100  30.8023472  76.4083405
  78.3755951  30.2073288  77.1436768  78.4747086  31.6768150  76.7947159
  59.4239159  51.7178993  54.8426971  59.9191475  51.7882843  55.6588020
  58.8076782  52.4497375  54.8726044  82.6572342  31.8554134  35.0627098
  82.4683990  31.1373367  35.6668129  82.5389252  31.4739647  34.1928062
  21.2123184  41.3941422  82.4089127  21.3996391  41.6771355  81.5138931
  20.2774944  41.5650711  82.5234604  13.6827116  16.4144478   5.6617208
  14.2475758  15.7015944   5.3633928  14.0028477  16.6223812   6.5395069
  74.6733780  48.2459106  19.9618816  74.8133774  47.4577408  19.4370785
  75.5504303  48.5033951  20.2459965  62.7135582  47.6511040  17.2418079
  61.8833961  48.0201073  17.5433083  62.7720261  46.8025703  17.6809025
  47.0932732   7.0177212  61.1772003  46.8622818   7.9107914  61.4327393
  47.6509972   6.7018476  61.8881149   5.8625193  51.3737755  57.7753944
   5.3805928  51.2971802  58.5988693   5.1845660  51.5040779  57.1123466
  65.3677292  57.7142448  56.1112938  64.9733276  57.7810555  56.9808998
  64.6281128  57.7795601  55.5071945  72.4230881  51.0601692  81.4812927
  71.6350632  51.1499710  80.9453964  73.1462936  51.1502533  80.8607407
  16.5591812   9.3914185  51.8282318  16.7700233   9.2689905  52.7538605
  15.8606548  10.0458546  51.8262215  27.0299892  36.0396881  42.4628944
  26.9752827  35.4030685  43.1756058  26.1507034  36.0521126  42.0848274
  40.4945831  54.2808533  86.1300812  40.8419266  54.5114708  86.9917068
  40.6776772  53.3456078  86.0405197  73.0465851  20.8157330  63.9209976
  72.4093399  21.4926319  63.6930656  72.5488739  20.1827641  64.4385605
  82.4133530  43.8992615  51.1194153  81.8451691  44.6262169  50.8645821
  82.2509155  43.7851868  52.0558090  18.5017757  18.0975723  88.5758209
  18.1088867  17.2437553  88.3945236  19.4371223  17.9691620  88.4181290
  24.2687798  70.7127762  18.8877068  25.1668072  70.3835297  18.8506184
  23.8984928  70.4955063  18.0321884  46.7012749  71.5172729  78.7624588
  46.1102028  70.9818497  78.2331314  46.2853928  72.3790131  78.7883072
  20.3153896  51.3620186  29.6586304  20.1274071  52.1361160  29.1279087
  20.8936291  50.8308907  29.1111088  72.1005020  13.9340515  39.1330910
  71.1474457  13.8679667  39.1927185  72.4063339  13.8023558  40.0305061
  72.0479660  50.0128708  54.2344666  72.6539230  49.4052963  54.6586227
  71.3036423  50.0663567  54.8339195  19.3915901  32.8955688   7.9422145
  20.1033745  32.3229103   7.6564608  19.0117149  32.4468346   8.6975698
  68.0021057  20.7624645  39.3690681  68.7981339  21.2859325  39.2765656
  68.2094498  19.9331112  38.9384689   4.1308203  51.7652283   8.0566216
   4.5748253  51.9394875   7.2267265   3.8974960  52.6316452   8.3899670
   3.3322129  40.7214508  85.6653137   3.6241798  41.4446449  86.2202759
   4.0648112  40.1054039  85.6695786   1.9731132  37.1751709  28.5905590
   1.3055851  36.8421326  27.9907913   1.5090375  37.3040314  29.4177608
  78.0110626  45.9549904  25.7765770  77.9807587  45.7161064  26.7029934
  77.2452698  46.5147820  25.6484013  29.6853523  57.7142029  82.8715744
  29.2807579  58.2839127  83.5257645  29.7152157  56.8534317  83.2891998
   5.5129843  40.2320633  13.5664616   5.2689590  40.6601715  12.7458467
   4.6818910  40.0934486  14.0206661  85.8318710  21.8468342  68.5076599
  85.0709457  21.3049583  68.7164688  86.3364182  21.3219624  67.8862305
  41.0416527  61.6441307   4.4874749  41.0998573  61.4923935   5.4307775
  40.8956375  60.7751236   4.1136575  79.5819321  13.7416620  51.8669891
  79.1091690  13.9075565  52.6825905  78.8947601  13.5821333  51.2200203
  64.1628799  41.5968246  16.1294136  64.0598602  42.5391426  15.9965286
  65.0747681  41.4914818  16.4007168  48.3607559  10.7380619  10.2176771
  47.5825310  10.2809668  10.5365162  48.1119194  11.6623497  10.2163401
  59.4108238  28.6428833  10.3290911  58.8729172  28.4563446  11.0985670
  59.2008018  29.5492420  10.1040573  82.0438080  61.6761475  80.6731567
  82.0028839  60.7620506  80.9541931  82.8701096  61.7428360  80.1946106
  56.2092857   3.5265801  65.2752228  57.0270119   3.9424682  65.0021057
  55.7916641   3.2588544  64.4566040  57.3496819  70.7047653  16.8825836
  57.1589317  69.7829361  17.0560246  56.6001358  71.0127106  16.3730907
  31.6137810  11.9683065  86.6477127  31.3648186  11.0910320  86.3567810
  32.4930649  11.8599195  87.0101242  24.2515697  63.0599594  84.4866180
  23.6890316  62.4318695  84.0335236  23.6840591  63.4563675  85.1476898
  67.5495987  36.6405602  67.0689087  67.0226364  36.1215515  67.6764984
  68.4525757  36.3829842  67.2547073  67.0233994  62.3915863  26.7949715
  67.7029572  62.1865883  27.4371662  66.2014236  62.2011948  27.2469997
  44.4200211   7.3602190  23.0952053  44.1683540   8.2110662  22.7361012
  43.8687973   7.2550073  23.8706512  77.3279266  12.3085194  34.5742760
  77.0965576  13.2211084  34.4014168  77.1252441  11.8513203  33.7581139
  79.0637131  50.3149376  27.0199013  79.7511292  50.8958321  27.3458576
  78.3010712  50.8832588  26.9120903  23.5658283   2.7227502  24.9396992
  22.7344265   3.1437440  25.1582527  23.7949181   2.2236097  25.7236691
  67.7582703  47.3637161  82.5167847  67.4317551  46.6247215  83.0301132
  67.1011200  48.0489388  82.6386185  41.9990044   1.3765641  56.0197830
  41.2947273   0.9987916  55.4929886  41.5552101   1.9805282  56.6151848
  16.5707626  35.1288071  10.0494862  16.6996269  35.6582260   9.2625055
  15.6907282  34.7651100   9.9520340  13.3527985  40.0878296  25.0578556
  14.1983118  40.3536224  24.6963406  12.7333117  40.7334824  24.7178574
  50.8855782   4.8767796   3.0131528  51.3566704   4.6734142   3.8212023
  51.5551758   4.8411040   2.3300750  38.6443253   4.5740752  19.3644905
  38.1530571   3.7898505  19.1197853  37.9831848   5.1714911  19.7140903
  36.9424553  26.6861534  19.4215069  36.0901642  26.7009563  19.8569527
  37.1678886  25.7574272  19.3678150  33.3546753  15.9065571  21.7391663
  32.5004921  15.4886017  21.6299992  33.2050896  16.8222504  21.5038738
   7.7768598  40.1617317  48.4397202   7.1097364  39.4827843  48.5407753
   8.4704971  39.7420959  47.9307976  64.5652084  36.7264519  71.4456177
  65.5137939  36.8545456  71.4415741  64.4411621  35.8680992  71.8506775
  56.6621895  14.7211351  40.6793747  57.3181229  14.8083296  39.9877243
  57.0430183  14.0926952  41.2927818  40.6775208  14.9904041  21.2660217
  40.8714333  15.9071550  21.4614639  40.6680450  14.9461660  20.3098907
  43.8589134  43.4055176  69.7686386  43.2616234  43.6491470  70.4758301
  44.4835358  42.8069191  70.1782227  34.8229675  14.4687948  13.1990795
  34.6747780  14.5835514  14.1377506  33.9538002  14.5538368  12.8072252
  86.6206970  60.9213524  29.6385880  86.7677078  59.9981804  29.8444386
  85.6766434  60.9873199  29.4949074  25.2871284  11.2399321  24.6397648
  24.6728230  11.9407215  24.4212341  24.8995590  10.8109417  25.4026470
  53.3316460  67.2090073  60.9892044  53.1977348  66.6260223  60.2419243
  53.1204529  66.6719131  61.7528534  79.7558594  12.7873297  35.6260452
  80.5693741  12.5715742  35.1701126  79.0815964  12.7397985  34.9482994
  12.4724197  38.2867546  43.8819656  12.9915867  38.2180939  44.6832008
  12.0950890  39.1657982  43.9156532  67.0183640  24.0756893  43.9948311
  67.7120438  24.6832199  43.7380409  66.7927017  23.6145191  43.1869736
  69.2004776  27.0133171   9.1330042  69.0754166  26.0664577   9.1966314
  69.6310883  27.2536964   9.9533854  78.6726456  48.5017319  81.1713943
  78.8730164  48.5002518  80.2354050  79.5219955  48.6151543  81.5979767
  13.3650064  36.3529320  77.1387482  13.3716488  36.3682976  78.0958023
  12.4411688  36.4409142  76.9041977  83.3796463  35.7985954   8.9694109
  82.9419785  36.3854980   9.5860367  83.0201111  36.0374680   8.1150656
  57.1364861  69.8190308  83.0876007  56.7953339  69.9570160  82.2039719
  57.1183815  70.6875076  83.4896698  51.9802437  69.4209366  60.8437805
  52.4550552  68.5913696  60.7927246  52.5307083  69.9785233  61.3936195
   2.4842935  12.2239313  71.3527222   3.4337296  12.2564421  71.4699631
   2.1711023  13.0582094  71.7021866  73.7249374  71.0704880  64.4777985
  73.0909271  70.4109268  64.1962891  74.0779037  71.4267654  63.6624985
  23.4262676  49.3032036   1.0747799  23.4309673  48.9328575   1.9574214
  23.1610813  50.2145309   1.1988276  13.7226324  71.2184906  36.0378609
  14.5557175  70.7516022  36.1028061  13.9705582  72.1347961  35.9147797
  10.9233046  17.7407589  10.7753248  10.8127117  17.7568893   9.8246717
  11.7974472  18.1025658  10.9209328  24.2709904  40.9371262  80.8042831
  23.6354008  40.8583450  80.0929031  23.8928909  40.4273911  81.5208282
  75.3989105  31.8499203   9.1152821  75.8476334  32.5923004   9.5199356
  75.1661682  32.1590004   8.2397633  84.4046936  48.5058365  67.2340393
  85.0982895  48.9085159  67.7565460  83.9324951  49.2456169  66.8519592
  81.5793915  48.1127853  47.5166359  81.0727310  48.9159393  47.3963356
  81.2318268  47.7286339  48.3215294  46.4801712  38.4693565  65.3669891
  45.7284584  38.8779411  64.9377823  46.4970741  37.5767288  65.0217896
  76.6015396  13.8137693  27.6576424  77.5021591  13.6010742  27.9023399
  76.6891785  14.4906273  26.9865131  63.4747467   5.4045053  47.0870094
  63.8627243   4.8936968  46.3765335  62.5942917   5.0430183  47.1887894
  38.7711296  55.1084366  13.9189606  39.6158829  55.5565109  13.9620724
  38.8083496  54.6048546  13.1057873  22.7637863  17.4728451  85.7886124
  23.3862000  16.8007317  85.5109482  21.9402504  17.0006390  85.9112549
   9.2937574  32.9039345  16.0635338   8.3958902  33.2157478  16.1768456
   9.5907049  33.3181725  15.2533131  17.5934944  55.6372681  19.2209282
  18.3611622  55.3850975  19.7340832  16.8493805  55.4357262  19.7882957
  44.5384102  59.2499695  48.5401535  44.6736031  59.9790077  49.1455116
  44.4486313  58.4827576  49.1054459  39.2706375  23.1800900   2.8138654
  38.6617088  23.5520802   3.4518771  40.1354637  23.4508801   3.1220517
  25.8715267   2.1003027  81.2833405  26.5054417   2.7786052  81.0503464
  26.3261890   1.2767128  81.1066666  38.8106804  55.9558601  43.7575760
  38.6732101  55.0517197  43.4749680  37.9727287  56.3882751  43.5929909
  78.8983231  40.8615494  17.2846317  78.5979767  40.8073044  18.1918697
  78.5973053  40.0462379  16.8835278  84.7723465  70.9683075  19.2404003
  83.8492889  70.7185669  19.2831135  85.2177887  70.3364639  19.8048382
  73.4839554  24.9431725  79.6067810  73.7086182  25.5233116  78.8793182
  73.0134659  25.5037727  80.2237015  65.4187469  59.4780197  81.1259384
  64.7417526  58.8531456  80.8662491  65.2151260  59.6866226  82.0376663
  73.6227875  44.8588257  57.0373993  74.0206451  44.5184402  57.8386955
  73.2247772  44.0929489  56.6235657   9.7459049  11.2421379  51.7065010
  10.5878105  11.4446774  51.2985725   9.1130056  11.2992954  50.9906769
  72.9116440  39.4159698  35.3277016  72.7117691  39.7570686  34.4559593
  72.7286148  38.4784698  35.2658272   4.6637011  66.3203583  15.5119028
   4.9292517  65.7649841  14.7789145   5.2646847  67.0646286  15.4784832
  35.6141014   5.7878795  33.8889008  35.3789482   4.8607621  33.8516464
  35.4109039   6.0506263  34.7866249  85.9695892  69.9757843  79.6869125
  86.2809143  70.8774948  79.7658081  85.6591187  69.7519608  80.5642624
  13.5385733  46.0352592  32.2123909  12.7597475  45.9093666  32.7544365
  14.2309780  45.5628281  32.6745796  37.9545898  53.2775993  42.5826607
  37.1244354  53.7493782  42.5155640  37.7648888  52.5403786  43.1629601
  20.9977894  23.4019604  22.4314976  21.6401386  24.0316238  22.1041698
  21.5104542  22.6186829  22.6312027  52.1435738  41.0056953  69.5558929
  51.6223564  40.5605049  68.8877869  52.1900330  40.3806114  70.2793198
   7.6068454  22.2510891  88.9122009   7.2866950  21.3682289  89.0973816
   7.9642439  22.1952763  88.0259781  65.2370453   9.9320698  46.4021378
  64.5570297  10.3575020  45.8798218  66.0100708  10.4841413  46.2843132
  82.3233871  58.7719688   0.1407051  81.5081863  59.1565552   0.4628508
  82.9760742  59.0068283   0.8003041  18.0563221  56.8074417  65.3743515
  18.7546349  56.1663780  65.2415848  17.3071651  56.2884102  65.6669312
  66.7894516  61.4112320  64.5657883  67.1657257  61.7509651  65.3777161
  67.5126572  61.4331093  63.9391136  85.9876633  71.4424744  50.8387833
  86.2891464  70.5800095  51.1242599  86.1968918  72.0235062  51.5701218
  78.4842148  49.8729744  75.1044464  78.2896957  48.9357948  75.0949631
  78.1709518  50.1739922  75.9573746  59.9568863  67.5614014  71.2870865
  59.8881836  67.2394791  70.3882675  60.3651581  66.8419189  71.7686386
  56.6964836  68.1261520  44.9443359  55.8079643  68.3256226  44.6494179
  57.1562500  68.9647217  44.9037170   7.5644445   0.7143729  62.2641220
   8.2374783   1.1671073  62.7723427   8.0414553   0.0369107  61.7848129
  75.0955200  58.1003151   6.9393086  74.4681320  57.5301704   7.3837843
  74.5620956  58.6218185   6.3395343   4.9538112  58.0268021  33.2626076
   5.7133732  57.4443130  33.2646866   4.3093867  57.5820312  33.8131752
  60.9216576  14.3433905  19.2475758  60.4786568  14.3269787  20.0959339
  61.1071205  13.4239969  19.0563946  80.4393311  64.2712555  52.9213448
  80.9529953  64.7883835  52.3008995  79.6313019  64.0661697  52.4509544
  47.1687622   5.8614244   6.5695438  46.3359756   6.1562672   6.2010818
  47.2154427   4.9325929   6.3429937  70.1343460  49.7192802  43.2045822
  69.4389801  49.8228874  43.8541679  70.8946762  49.4336853  43.7111092
  13.2348604  49.3999405  20.2805061  12.3967447  49.6850090  19.9164581
  13.0090284  49.0105476  21.1252575  74.5877304  38.4104843  38.9632149
  75.4820709  38.7067642  39.1323586  74.1938553  39.1174431  38.4520378
   7.4086571  59.3051453  29.1924801   6.9705539  60.0749245  29.5554409
   6.7102823  58.6588402  29.0885849  11.9206638  48.1046486   5.2240367
  11.1931314  47.6485901   5.6470475  11.5143576  48.5886765   4.5051036
  51.7859268  35.0096550  31.7499542  51.8570366  34.1847267  31.2696705
  51.2280045  35.5596657  31.2000027  20.8132610  44.2973671  31.6532707
  21.1318855  43.4041824  31.7833977  21.0652332  44.7603340  32.4522705
  84.7834091  57.3815117  21.0841179  85.3797531  56.9570312  20.4673367
  85.3307571  57.5908737  21.8409557  43.4946442  17.9705791  16.2601833
  42.9950066  17.1874943  16.0291615  43.1456223  18.2349186  17.1113815
   1.8193209  54.3519363  88.0673141   1.4618070  54.7450943  88.8634567
   1.1121287  54.4238434  87.4262695   5.2629457  53.9441910  11.0885906
   5.8337984  53.3321342  10.6241074   5.3883238  54.7786407  10.6366959
  37.4032211  43.4857941  64.0746765  37.9854660  43.2851868  63.3418846
  36.9264603  44.2672043  63.7948036  42.9619064  26.0910740  51.9827919
  43.0309677  25.1378136  51.9302711  42.4512939  26.3370819  51.2114372
  16.4582214  65.1372757  67.5519791  16.4798946  64.2744751  67.1380463
  17.2618122  65.5650711  67.2562332  52.0632210   6.6094680  86.6878357
  51.9210815   5.7321815  86.3323135  51.9532814   7.1928911  85.9369965
  53.9265785   4.5658784  31.6356564  54.7632141   4.4705601  32.0908318
  54.0795593   5.2618318  30.9965343  35.7858009  36.8363647  67.7588882
  35.5363083  35.9332695  67.9548416  36.7112236  36.8865089  67.9982986
  20.9637833  69.3934937   1.7731884  21.7336597  69.9407425   1.9282205
  20.8319626  69.4284058   0.8257520  22.2673512  56.2161751  50.5617676
  22.7545490  55.8843536  51.3159332  22.0609875  57.1225967  50.7899017
  28.6894398  65.9046402  21.7009792  28.0095673  66.0125122  22.3660870
  29.5116272  65.9553833  22.1884880  51.4035721  58.6399918  14.4064150
  52.2305412  58.2211952  14.6450882  51.3227005  58.4908562  13.4643688
  82.2815628  30.9664726  65.0536957  83.1968994  31.2383347  64.9867706
  81.9308929  31.0865803  64.1711807  78.2878418  11.7358265  25.7735786
  78.5555420  12.0677433  26.6305504  78.9975815  11.9926109  25.1848907
  10.2119331  52.5078583  25.0625877  10.0720644  51.8201599  25.7135410
   9.7705860  53.2753754  25.4264050   7.0298100  11.9266109  56.8162422
   7.8124199  11.8388977  57.3603554   7.0631237  11.1740561  56.2256622
  44.1956367  40.2922554  64.4180908  44.2243767  40.9226074  63.6983299
  44.6604195  40.7250938  65.1342392  77.7225647  23.6400051  30.0948963
  78.3813553  23.4791088  29.4193687  77.9820099  23.0741844  30.8220596
   3.7512670  57.4650307   1.2020887   4.6070132  57.3933258   0.7792546
   3.7286007  58.3576241   1.5470452  44.9687309  42.7866707  10.1830940
  44.4565506  43.5926895  10.2481661  45.3331604  42.8052521   9.2981768
  70.4786301  61.6510544  57.9203987  70.4838486  60.7412300  57.6230316
  70.6152191  61.5947189  58.8661270  52.2931900  69.9716263  20.6546803
  52.6943703  70.7039719  21.1226120  51.8364143  69.4749985  21.3336105
  45.7282257  11.9785032  82.8910599  44.9741478  12.1161890  83.4643326
  45.8539238  11.0296154  82.8843918  62.9865875  44.8597641  79.9890442
  63.8512001  44.6480064  79.6371460  62.9186783  44.3372040  80.7881393
  22.2003269  55.0066452  29.6208515  22.6770477  54.2804527  30.0228653
  21.4164314  54.6020584  29.2493038  75.0052185  53.3973007  50.9818993
  75.4152679  53.0486908  50.1903419  74.7988739  54.3063126  50.7643013
  74.6490173  29.0428944   8.1768246  74.9303818  29.9325161   8.3904676
  73.6933060  29.0777569   8.2171974  65.9164810  52.5351868  37.3663559
  66.2997055  53.3756065  37.6174850  65.6284485  52.6637840  36.4626236
  63.0966339  57.0858002   3.1810937  63.2611122  57.0763283   2.2381790
  62.6288071  57.9067001   3.3343816   4.1010590  27.9142685  58.3982811
   3.7515223  27.0340157  58.2596779   4.0444403  28.0482311  59.3443680
  40.0519676   3.1937304  85.7802505  40.2762070   3.9875047  85.2945862
  39.1417580   3.0167160  85.5427322   6.3118100  12.4965534  63.2807999
   5.6291533  11.8278170  63.2259979   6.8974147  12.3015423  62.5491791
   2.4647186   7.9517450  85.2956848   2.1599374   7.3427334  85.9683304
   2.7417362   8.7276945  85.7829208  60.0820160  64.3412323   2.0381153
  59.5729103  63.7836151   1.4498031  60.2252388  65.1464005   1.5407072
  41.8199120  57.7715721  62.8520546  42.1783981  57.8238182  63.7380524
  41.4411964  58.6366158  62.6955185  43.8677139   5.5574179  21.1560688
  44.1492615   6.2449045  21.7596607  42.9790993   5.8088713  20.9043350
  44.5297890  71.2470779  46.6371384  44.7103043  70.4392242  46.1564980
  44.4846764  70.9753799  47.5538597  28.0025921  66.4080505  81.9536743
  28.6384048  66.0333710  81.3440857  28.1983356  65.9888077  82.7916183
  64.4046097  49.1633911  80.4507904  64.8859406  48.7517662  79.7330704
  64.3043289  50.0758858  80.1796341  48.0354195  67.2713928  32.5959396
  48.8883934  67.7043839  32.6303902  48.1247177  66.5194168  33.1814194
  70.7574005  65.5688629  10.0554094  71.1595306  65.2263794  10.8536711
  70.3849792  64.7989807   9.6255074  33.0473900  49.4234047  39.7794342
  33.8406105  49.8969650  39.5288925  33.1613312  48.5500793  39.4045296
  79.4666824  12.3023062  21.3397408  78.9809570  11.8356228  20.6596584
  78.9251709  13.0658827  21.5396194  65.4530487  16.4555874  78.6507339
  64.9833755  16.7067490  77.8554001  64.7784729  16.4302921  79.3293610
   9.6652355  16.3676357   4.5563145   9.5487366  15.7919970   3.8004711
  10.4167500  16.9144707   4.3273392  20.5332394  10.1522684  86.9737091
  21.3303509  10.5224428  87.3529434  19.8287563  10.7073479  87.3081055
  22.4637394  62.6193504  39.6531296  22.9416580  63.4213676  39.8642998
  22.0821037  62.3416481  40.4858780  29.3625717  44.2435265  10.9565353
  29.4335155  43.7887192  10.1172791  28.8879795  43.6328545  11.5205193
  31.8251019  23.4506302  84.6323624  31.2046909  23.6579609  83.9335556
  31.3386669  22.8735466  85.2210770  66.6321106   0.4823032  74.4160461
  66.7352066   1.4056948  74.6461563  67.5264206   0.1428572  74.3811798
  50.1617661  31.2850285  28.2160435  50.3250732  30.7233410  28.9737167
  49.2077866  31.3239994  28.1479645  43.4883804  11.2497358  69.9491577
  42.7853394  11.8982878  69.9124374  44.2699776  11.7278128  69.6720581
  23.8819695  55.6256104   0.4472778  24.7153473  55.3042603   0.1031165
  23.9950199  55.6143188   1.3977115  66.0635529  52.8970490  78.6750107
  66.6328125  53.6663704  78.6927719  65.4049835  53.0708351  79.3475571
  42.9775620   0.4207451  61.9133453  43.7224731   0.7585287  62.4105797
  42.3375320   0.1718719  62.5801697   0.3667716  58.4518242  68.6237488
  -0.1777800  59.1669312  68.2946320   0.6208708  58.7297401  69.5037689
  55.4591637  42.3086700  18.9682350  55.0849876  41.4311104  19.0464344
  54.7201805  42.8625832  18.7166100  56.7900276  10.2606134  55.3833694
  57.2943382   9.7598190  54.7421913  56.0419197   9.7004004  55.5900726
  21.7885876  11.3392105  13.4441462  20.9426098  11.7863970  13.4681988
  22.2306061  11.6196337  14.2455282  78.9330673  33.9352722  57.2612991
  79.3723679  34.3157997  58.0218582  78.6082611  34.6898041  56.7699585
   5.2721329  58.6579475  24.9496212   5.4921918  57.8534508  24.4799519
   5.9924731  59.2560921  24.7507019  86.2878571   4.8581324  76.2775269
  85.5067978   4.5293159  75.8324966  86.9153748   5.0186415  75.5727615
   0.5979546  68.1744843  83.8076706   0.1155189  68.0388031  82.9921417
   1.4040444  67.6705627  83.6957703   1.7842615  10.1742926  22.8778820
   2.2328618   9.6543236  22.2110825   2.0113070   9.7499933  23.7053204
  66.3158951  23.0150070   8.9903841  66.5264664  23.2678146   8.0915070
  66.3574905  23.8332653   9.4853134  -0.1017161  44.1236687  32.9016647
   0.4378227  44.6175308  33.5191040   0.0056420  44.5832787  32.0689201
  50.9816742  22.1678352  14.0236082  50.3960609  21.4197006  13.9070616
  51.8602715  21.7880993  14.0136452  23.0723381  63.9878426   7.5751486
  22.1394978  64.1600037   7.4470811  23.1485977  63.0348167   7.5286460
  52.4838142  25.7773647   7.1353097  51.6258011  26.1909676   7.0405645
  52.3414612  25.0724640   7.7670398  81.7236404  12.6099062  61.0227051
  81.6284332  11.6621828  60.9278984  82.1927261  12.7219801  61.8495216
   0.3470002  21.6666889  15.8243456   0.3332554  21.1907005  16.6546936
   1.2020183  22.0967331  15.8089151  70.7467728  60.6246529   6.3103309
  70.8649139  59.7095757   6.5651121  70.7015305  61.1002846   7.1397634
  50.5044556  36.0463028  76.0381622  50.9865112  36.4982185  76.7307129
  49.6391106  36.4554443  76.0424728  20.6810932  55.8697243  37.4135323
  21.6115036  55.9772186  37.2160187  20.6034737  54.9649696  37.7162399
   6.5139079  68.9201279  77.3986816   6.9710708  69.3778839  76.6932068
   7.2003579  68.7089691  78.0314789   5.8249412  18.4062347  11.3318195
   6.4301114  18.2290974  10.6116648   6.1813869  19.1857014  11.7579746
  62.1819115  39.0647545  72.0645370  63.1294937  38.9397430  72.1164017
  61.8820419  39.0018959  72.9713821   6.1076031  58.4004593   9.4274845
   5.6746325  59.2541199   9.4222727   5.6178298  57.8874130  10.0702419
  33.1942940  64.3416748  48.5118370  32.4176521  63.8857307  48.8361435
  33.9261169  63.9147835  48.9572983  79.3730316  43.6637878  35.3192062
  80.3283539  43.6456490  35.2620697  79.1025925  42.7740173  35.0924911
  75.1860886  23.5437508  16.4788265  74.4263000  23.2495117  16.9811935
  74.8311234  23.7732105  15.6200018  51.6198425   9.9607897  54.9800987
  51.8987808  10.8280792  54.6864433  50.9961548   9.6715326  54.3140869
  11.9984760  47.3926888  83.1136551  11.0476723  47.4719276  83.0366745
  12.3067112  47.3204460  82.2103271  29.2921696  49.8758583  20.3364716
  29.2811928  50.8273659  20.4401073  29.6049709  49.5467453  21.1791286
  37.0835228  45.8917503  73.8092041  36.2571945  46.1040916  74.2431717
  37.7397614  45.9460258  74.5039215  33.1414337  29.3512192  26.9201374
  32.5978661  29.3257446  27.7076130  32.9112968  30.1783466  26.4969025
  79.8145905  57.3646622  16.9545135  80.6897430  57.0751457  17.2124100
  79.5201797  57.9138412  17.6811180  45.6731262  50.0366325  66.1444855
  46.0600739  50.5720329  66.8371964  45.1347466  50.6479263  65.6417923
  45.2130051  57.8298340  43.5043488  45.1965981  57.9954834  44.4469643
  44.4340630  58.2740898  43.1695061  34.8832855  19.4899502  18.4426098
  35.6380920  19.9242706  18.8399296  34.5293579  20.1361675  17.8315697
  70.9748535  17.9894638  42.0678711  71.1161499  17.9459400  43.0135841
  70.0437088  18.1903553  41.9738159  79.0494766  17.7541771  28.4938297
  79.4116669  16.9445648  28.1338558  79.1287231  17.6511478  29.4421635
  21.6389523  46.0160446  61.7061005  20.7053890  45.8825836  61.5421524
  22.0060577  46.2220078  60.8464203  18.3581829  32.0685921  60.8406258
  18.8210258  31.4508114  61.4066238  18.3289051  32.8808975  61.3461342
  14.3364611  17.1286144  13.3105040  14.3333769  17.6250896  12.4921312
  15.2632074  16.9736366  13.4931345  46.8138275  17.6443405  15.0365753
  47.3838654  17.8951626  14.3096800  46.1925735  18.3683491  15.1146069
  27.2603607  63.9706039  51.0027580  26.8957424  64.3849869  51.7847900
  27.3226585  64.6797562  50.3628769  86.3029099  49.4320564  50.9333076
  85.6409836  49.9644775  50.4921570  87.1235428  49.9037933  50.7910042
  87.0914764  64.3815536  23.5623646  86.3900223  63.8975220  23.9981499
  87.1452408  63.9916954  22.6898079  82.9272690  48.2587013  50.8914146
  83.0129929  48.4100647  51.8326759  82.0080109  48.4460793  50.7014351
  15.8246918  55.4318733  65.9609604  15.7310553  54.5383911  65.6305695
  15.2595263  55.9571609  65.3944855  51.4453697  67.6241074  44.5277977
  51.1727219  66.8772354  43.9948044  51.5634956  67.2614288  45.4057198
  11.5113621  49.7054672  76.7869644  10.6999626  49.5573540  76.3012390
  11.2617931  49.6072464  77.7058182  50.1833534  33.1468887  26.1070442
  49.5429916  32.7358704  25.5263252  50.3239098  32.5038261  26.8019848
  76.6560211  68.4330368  39.1666183  75.7038269  68.3691635  39.2407074
  76.8426285  68.1889038  38.2600784  50.1548042  20.0719872  20.0061169
  49.2939186  19.7879429  20.3134098  49.9651451  20.7221794  19.3297195
  22.8821869  65.9006729  79.1962891  22.4025383  66.5382156  79.7251663
  23.6466331  65.6761169  79.7267914  12.2915525  12.5726309  34.2364388
  13.1377192  12.8969536  33.9281387  12.4442329  11.6467056  34.4250717
  45.4377403  40.5884056  53.3306999  46.1080093  40.5003281  54.0083504
  45.9308510  40.6492729  52.5125504  59.0961456  62.7548370  34.5298729
  59.2493973  63.6886597  34.6738319  58.1500015  62.6841316  34.4032021
  28.3581886  50.1011353  30.0531158  27.8687878  49.6348038  30.7307968
  28.4273834  49.4740372  29.3332596  78.6605530  62.0898247  65.8090210
  78.9193573  61.1716576  65.8878937  79.3514404  62.4888191  65.2801437
  63.2837982  28.0768814  21.1480999  63.5127525  27.2593327  20.7060280
  63.9728508  28.6894264  20.8907528  15.3280258  12.9626369  73.8112106
  15.1075230  12.7953968  72.8948898  15.0960398  13.8809252  73.9496307
   3.1931639   1.8865354   2.3556705   3.0677183   1.1514785   1.7555149
   2.7722561   2.6269524   1.9188055  86.2302704  23.8846779  64.0126877
  87.0321579  24.3782864  63.8407707  86.0762405  23.3901062  63.2077599
  37.1607361   6.2059288   8.2966290  37.8258514   6.2662716   7.6109076
  37.0359497   7.1086826   8.5893669  82.2036285  29.9100571  16.6474838
  82.9465866  29.7295303  16.0715866  81.8062820  29.0529785  16.8016281
  61.7521133  43.6690331  34.1664505  61.7965660  43.5276680  35.1121101
  62.5545998  43.2727280  33.8270493  78.5451355  49.8284531  66.3886032
  78.0407639  50.6320076  66.2615814  78.7774582  49.5489845  65.5030823
  17.7270565  66.7736130  18.3412380  17.0154114  67.4107132  18.2788715
  18.4752312  67.2803726  18.6569214   0.6060928  35.9370461  21.5790272
   0.0081584  36.0482368  22.3181782   1.4793805  35.9890862  21.9674759
  73.9724808  23.0869350   6.4966474  74.0303421  23.8920860   7.0110569
  73.7681122  22.4068279   7.1384563  12.9660969  53.5857849  44.9460793
  12.1106539  53.7678108  45.3350716  12.7897139  53.4994125  44.0092430
  44.5603752  58.5145569   9.6082802  45.4726753  58.6067390   9.3336086
  44.5925407  58.5569191  10.5640011  78.6451416  24.8012905  22.4367599
  79.2831879  24.4561501  23.0612640  77.7949066  24.5672913  22.8090057
  14.0317154  50.5546150  55.6021309  13.6893463  49.8143501  56.1031532
  14.6918898  50.9461021  56.1740952  31.7885380  59.3914070  39.1325912
  32.3855629  59.0829010  38.4509621  31.8430233  60.3458557  39.0846710
   1.9944613  68.3226547  17.9441376   1.0650868  68.5224686  17.8320122
   2.0082057  67.5732956  18.5395393  13.0320358  51.3606491   2.3616996
  12.2144318  50.9018822   2.5548069  13.5051146  50.7703819   1.7751719
  63.7176399  20.3742676  62.1362877  64.6269226  20.1453094  61.9438744
  63.6779556  20.4149780  63.0917969  36.1471596  29.4276409   3.2747464
  35.8869781  29.4125557   2.3537099  36.8485947  30.0777302   3.3148663
  85.4017487   2.1576006  86.5350037  85.2628098   1.4405429  85.9163284
  84.8468018   1.9389400  87.2836304  11.7031021  11.9337540  15.0308256
  12.0242329  11.9885101  15.9308853  12.4169312  12.2870655  14.4999294
  83.9873276  39.9556274  75.8222198  84.7621613  40.3439522  76.2285004
  83.6184387  39.3908157  76.5012894  53.9823189  19.3789616  86.2144547
  53.9902534  20.3048477  86.4571533  54.0991974  19.3793812  85.2644196
  31.5546455  68.1695633  44.0122833  31.4063873  67.2852859  43.6771660
  31.9018936  68.0363541  44.8942757   3.8611372  17.5343685   3.2452223
   3.8120029  16.7554474   3.7993884   4.6486096  17.4032784   2.7170806
  77.0059433  70.9597473  71.9433441  76.5559769  70.1415939  71.7326584
  76.6345673  71.2277679  72.7838669  57.7049294  15.4564533   5.1575184
  58.6364326  15.2465200   5.0907435  57.4060402  14.9766121   5.9299498
  61.1892815  30.5694714  33.0020256  61.5453796  30.7329826  33.8753471
  60.2555237  30.7634239  33.0839386   2.8746374  18.9170990   9.5677443
   2.8336978  19.5460930  10.2881069   3.3300910  18.1601601   9.9363031
  81.7171783  34.0062447  31.1659832  82.0764694  34.8877983  31.2660122
  80.7902603  34.0989799  31.3861294  47.6235161  24.4734249  28.3344536
  46.7244263  24.3845539  28.6506310  47.9387169  23.5733204  28.2526588
  64.1849365  30.7735806  57.2913475  63.8057098  30.3109360  58.0385933
  65.0052490  31.1364346  57.6254997  56.5874329  47.3336678  71.8858795
  56.9878807  47.2899857  71.0175705  57.1358147  47.9495926  72.3718262
  33.4248276  51.2032623  50.4699020  33.7036285  52.0361176  50.8504982
  32.6560822  50.9514847  50.9816322  83.1156998  39.5094986  82.1448517
  83.2093048  38.7471352  81.5736465  83.7200012  39.3424873  82.8681412
   3.0890851  22.6450462  16.7144508   3.0502024  21.6890202  16.7415524
   2.8778632  22.9187469  17.6070328  14.8367252  18.9127216  15.4523392
  14.9217854  19.3959198  14.6304417  14.2392597  18.1937008  15.2467289
  65.6178513  37.3508453   9.9550905  64.8771057  37.1991768   9.3681364
  66.1401749  38.0204697   9.5134764  23.1602020   3.0428755  80.7036972
  23.1661263   3.9941251  80.8101044  24.0694141   2.7801683  80.8470535
  80.6567993  68.0531693  84.1153259  81.5623016  68.1236191  83.8131104
  80.5289536  68.8225708  84.6702194  55.3319206  53.6572762  67.5859604
  54.5859947  53.0581093  67.5572891  54.9484482  54.5069046  67.8034821
  52.2902832  44.2286758  59.6970634  51.6548500  44.6325760  60.2880974
  53.1098709  44.6900024  59.8750610  29.7893448  45.0931625  72.7607269
  29.5815754  44.2389946  72.3819656  29.0329952  45.6398811  72.5479736
   7.5973077  37.4642105  84.5732498   8.3089714  37.6264572  85.1924744
   6.8158145  37.7981873  85.0136566  18.7297611  28.0494690  85.9856110
  19.6787281  28.1038589  85.8727646  18.3912029  27.9072304  85.1016617
  50.8708534  55.1187935  87.6951294  51.6829338  54.9959946  87.2035217
  50.4080658  55.8116417  87.2239304  57.8829765  35.0128746  57.0657768
  56.9752960  34.9977112  57.3692856  57.8159485  35.0807915  56.1133461
  86.6735764  44.2178230  48.2043991  87.4593506  43.9074516  48.6543617
  86.0529785  44.4060059  48.9084473  82.5685883  31.4364395  74.1060333
  83.3984604  31.3066730  73.6469955  82.8133392  31.5035057  75.0289764
  61.1951675   5.4054403   2.1952126  61.4107819   5.7333841   1.3221740
  61.9083328   5.7186213   2.7515826  62.8567162  13.4446869  70.7284775
  62.7222214  13.3734055  69.7834625  63.3702965  14.2450333  70.8376160
  53.8308296  23.6534767  30.3649292  53.8963699  22.9488277  29.7204094
  52.8966637  23.7075615  30.5665131  53.7713127  28.8510036  74.3364944
  54.0047989  29.7791958  74.3232803  52.8939247  28.8192844  73.9551620
  51.2694626  59.1617317  87.7824707  51.9033241  59.7633629  88.1729736
  50.9219398  58.6656990  88.5236969  86.6428146  20.4693546  22.0847683
  87.2917709  20.9954166  21.6174965  86.3056946  19.8633575  21.4249592
   8.6804543   1.9816741  51.7087212   8.4092255   1.1523318  52.1022415
   9.2528877   1.7274494  50.9848976   9.8484316  33.5010643   1.4418761
  10.1086769  34.2265015   2.0095432  10.3836193  32.7636070   1.7350706
  28.2558060  68.9064026  69.0739822  27.6943302  68.4818954  69.7226562
  29.0127392  69.2105331  69.5747681  64.5669632  53.6832619  14.5909233
  64.6052628  52.7277336  14.6325493  65.3675461  53.9743042  15.0274820
  17.8773136  49.8947411  80.6252289  18.4924736  49.1733513  80.7571564
  18.4331150  50.6560364  80.4586563  30.5897846   7.4560213  11.6512604
  31.5454235   7.4534655  11.7058449  30.4032631   7.5990844  10.7233734
   6.0576415  39.0569153  26.0792675   5.6026206  38.2894745  26.4259949
   6.6563506  39.3169785  26.7793732  56.4731979  41.3071022  40.2407379
  57.0750122  40.5629730  40.2228470  55.6614761  40.9500542  40.6010971
  47.5100212  70.6449280  82.7972946  47.6078682  70.0488434  82.0547714
  47.2530861  70.0797958  83.5258789  69.3542557   3.4175072   1.0293076
  70.2176971   3.0692718   1.2516316  69.4749832   4.3669748   1.0164090
  44.2347183   1.9321003  33.4790802  43.5106087   1.5321232  32.9975052
  44.8754501   1.2277180  33.5767555  25.3450737  20.8214817  77.5487823
  24.6635952  21.1783848  78.1183853  24.9208183  20.7307510  76.6955490
   9.2999573  18.7986355  84.5063477   8.9674377  18.9799080  85.3854370
  10.0550261  18.2278538  84.6488571  16.2630844  51.1277924   0.3068138
  16.3283844  50.9760284  -0.6360199  17.1413727  50.9444427   0.6403176
  71.4688187  13.0964441  17.4399166  71.9060287  13.8789234  17.1040497
  70.7591095  13.4344358  17.9860897  64.0990753  19.0933151  78.5455704
  63.8320389  19.4209003  79.4044113  65.0505066  19.0081978  78.6069260
  39.4939499  50.6803741   4.9431796  38.6134834  50.3428879   4.7785220
  40.0511475  50.2077141   4.3248315  22.9385929   0.3872409  87.9984283
  22.6489315   0.3131873  87.0891190  22.1881046   0.7624958  88.4590607
  85.9759750   9.1466846  34.7468529  85.5907898   8.5979424  34.0636635
  85.8541031   8.6458473  35.5534134   3.0166090   7.4250045  75.7860870
   3.2866035   7.9308901  75.0196609   2.2763865   6.9015765  75.4789658
  69.5121918  27.1820240  80.8405762  68.8493271  26.8730392  80.2230301
  69.2550430  28.0828419  81.0371323  86.1993561  29.3662014  67.5051117
  85.9611053  29.0827122  68.3877792  86.6379089  28.6074886  67.1200714
  76.2221451   0.4844678  83.8589706  75.4119492   0.1052525  83.5183716
  76.8562088  -0.2316104  83.8210907  77.6700058  54.9527550  58.2276955
  77.4557190  54.0263748  58.3378448  78.5497971  55.0403404  58.5944748
   0.8922160  55.7626953  27.8380699  -0.0012534  55.4868813  27.6334457
   1.1033633  56.4094505  27.1647491  31.4504452  12.9136238  25.8987255
  30.9333668  12.2388020  26.3385830  31.7685623  13.4720001  26.6081257
  31.3408394  39.7422943  86.3822327  31.0195370  39.9852676  85.5139236
  30.7014084  40.1173058  86.9878159  80.9733582  28.6803532  79.5524750
  81.6938629  28.0839424  79.7559357  80.8820038  29.2218513  80.3364792
  55.1952057  46.5632248  83.2142868  56.1138039  46.7500229  83.4079666
  55.2258034  45.9151077  82.5105515  60.6333466  61.5991516   5.6716781
  60.1559143  62.2635574   5.1748290  59.9498749  61.0475273   6.0522132
  71.8873825  30.1748028   1.2303221  71.6306458  31.0830441   1.3897380
  71.3090668  29.8825703   0.5257723  25.3577728   1.1683892  33.7047005
  24.7336178   0.4433171  33.6741371  25.5479889   1.2815796  34.6359558
  43.4886932  45.2071724  48.9225693  43.3345490  45.8030167  49.6556702
  44.4415779  45.1717262  48.8390083  82.8728714  54.1461945   1.1408614
  82.6948776  54.9502220   1.6288078  82.8105774  54.4052162   0.2214815
  86.7499313  33.3901672  78.6768417  85.8682098  33.5851517  78.9942932
  86.9096756  34.0443192  77.9965515  16.7243061  31.5641251  27.2086582
  15.8659935  31.7260799  27.6001987  16.6776791  31.9812298  26.3483791
   0.7988473  59.5016212  87.1939316   0.7835059  58.5576782  87.3519287
  -0.1166759  59.7714767  87.2662354  69.8242416  44.2216682  56.1663055
  69.4691010  43.9989433  55.3057823  69.1671371  44.7994843  56.5543556
  42.6308250  63.3134422  75.7893219  42.9540443  62.4936943  76.1631851
  42.3431053  63.0774612  74.9074173  33.5190620  40.0346375   4.9183493
  33.5756607  40.9451294   5.2082295  33.2787170  40.0921974   3.9936049
  43.0398140  61.1778755  44.8188667  43.8221741  60.8987389  44.3432312
  43.2672043  62.0390167  45.1695175  31.0402412  52.0891800  66.6693573
  31.1622429  53.0027733  66.9276123  31.1401730  51.5949020  67.4829483
  62.3332596  35.0457687  79.3916473  63.2410774  34.7741852  79.5270615
  61.8367615  34.5579109  80.0486984   1.2559601  14.3916006  64.7184677
   2.0652671  14.3234396  65.2250366   1.3420669  15.2156925  64.2392120
  43.0357208   0.5096257  83.0679626  42.9371490   1.4597626  83.0066833
  43.2617264   0.2344727  82.1794586  11.6283150  42.2445374  77.7856445
  10.8654804  42.2926636  78.3618393  11.5659142  41.3810806  77.3772659
  19.3051529  35.0129585  87.9141617  19.1579285  35.5708389  87.1504059
  20.2012100  34.6934433  87.8082199  17.2767792  42.0868683  86.6952362
  16.8369904  42.7815552  86.2051010  16.9907570  41.2772789  86.2721634
  63.6737137  49.4844437  50.7959518  63.0176620  50.1541290  50.9892120
  64.3478088  49.9463310  50.2974625  48.1913109  54.5856056   3.7523289
  47.2376175  54.5177917   3.7981803  48.5057373  53.7193031   4.0109549
  38.4036903   5.9046984  80.8428268  38.2636986   6.0973930  81.7699203
  38.8181648   5.0419054  80.8374557  70.0519867   0.8944000  27.0310612
  70.3584747   0.0403112  26.7263832  69.5859146   1.2632366  26.2807503
  57.4495697  69.4211502  77.4054718  57.4431458  68.5904694  77.8810349
  57.9784927  69.2472916  76.6268539  34.4790955  63.1815758  59.0296440
  34.9460564  62.6215248  59.6497421  33.9840355  62.5720673  58.4822426
  48.7294235  51.6732979  37.2425804  49.3264656  51.4060669  37.9414101
  49.2512932  52.2568550  36.6918144  12.6696939  43.8602791  72.3987808
  12.4214640  43.6743011  73.3043289  12.0066566  44.4781227  72.0907440
  40.9714050  59.6207237   2.8749652  41.5815315  59.7676239   2.1521955
  41.3922768  58.9484291   3.4108014  19.3043346  25.7328281  14.0020285
  18.5409527  25.6556110  13.4297380  19.0575104  26.4007034  14.6417561
  37.1407013   9.6818314  49.9812660  36.5831375   8.9045954  50.0167770
  36.6696625  10.2886114  49.4101486  17.6607933  56.5208321  73.2382736
  18.4200096  56.8926582  73.6872330  17.5920506  55.6299934  73.5816574
   4.4737892  11.9586678  85.1331406   4.9924827  12.0845623  84.3385696
   4.4070759  11.0084763  85.2275696  35.7014580   3.8682401  19.3634892
  35.2532539   3.1654274  18.8929558  35.5799866   4.6411233  18.8120098
  41.4223900  17.4194336  22.3025131  41.9740143  18.1703320  22.0832138
  40.6667557  17.7999744  22.7502193  26.6121006  47.1941719  49.8665657
  26.1265373  47.7327118  50.4914169  25.9963818  47.0461273  49.1487885
  16.1501617  59.6666603  51.6889687  16.7800236  59.3707390  52.3461876
  16.0314770  60.5983925  51.8734016  58.5609474  48.8025055  84.5672607
  57.9046249  49.1550179  83.9662476  59.3905106  48.8994026  84.0996399
  58.7362747  62.0368881  24.0913506  59.0088615  62.5281715  24.8663120
  57.9260368  61.6016083  24.3564568  36.4702187  48.5667381  37.0456123
  36.5666580  47.9782295  37.7943382  37.0497208  49.3025360  37.2431107
  71.3183365   7.0164194  50.0542679  71.4875107   6.1745429  49.6313515
  71.3475342   7.6532807  49.3402748  63.2373009   3.8499100   4.0001631
  64.0691147   4.2269611   3.7135477  63.0973511   3.1056271   3.4147668
  26.9710808  46.2535973  21.6045895  26.3144188  46.6009521  21.0009556
  26.7400818  46.6315117  22.4531479  68.6254044   4.5081625   8.4376554
  68.0320358   3.9037812   7.9917097  69.5010529   4.1929603   8.2138090
  34.3824806  45.2058907  87.8143387  34.2889557  44.3591042  88.2507324
  33.5313225  45.3592606  87.4041748   4.5939693  25.1989403  64.6954880
   4.4608717  24.5989552  65.4293365   5.2616367  25.8111687  65.0047226
   2.1681054  69.2346954  11.1394043   1.7299265  69.2400742  11.9904051
   2.6712682  68.4204254  11.1342306  46.1913948  43.6933479  41.0142746
  46.2565842  43.9939537  40.1078415  46.1130219  42.7418098  40.9459953
   9.4306364  31.6604462  73.4330215   9.9350262  30.8881664  73.1772766
   9.5741653  32.2861710  72.7230148  38.8699646  44.4299393  42.0870018
  39.7337418  44.1462021  41.7876434  39.0517464  45.1309280  42.7129478
  13.9853487   1.3513021  89.3874741  14.3909082   0.5437275  89.0719223
  13.4409800   1.6469457  88.6577606  46.5216522   4.2937841  21.5440311
  46.8560104   4.5782194  20.6934261  45.7150421   4.7949820  21.6640892
  82.6109619  63.6999512  13.8842545  82.5814972  63.2723503  13.0283794
  83.1315613  63.1097221  14.4290810  16.1005783   5.8146930  75.5756073
  16.1318970   4.8663726  75.7018585  16.4048176   5.9469585  74.6777344
  14.6059656  14.2079506   9.4817600  15.1170740  13.9374075  10.2445230
  14.1387262  13.4167280   9.2136421  26.7538700  52.4685135  53.3427162
  26.2515240  51.6543999  53.3094673  26.1014557  53.1577759  53.2182121
   4.2928796  65.5104980  80.2085342   3.9480600  66.3869247  80.0376434
   4.9101238  65.6324158  80.9299011  52.0759659  42.4931870  15.1904945
  51.9769669  41.6816673  14.6926346  53.0162430  42.6715622  15.1732616
  66.3102036   6.9889441  81.4252090  66.9773483   7.4767599  81.9080963
  65.6438751   6.7816796  82.0804062  16.8942032   7.9485340  13.0166502
  17.2908707   8.2816429  13.8215876  17.6340389   7.6323361  12.4980993
  40.4157944  17.5629482  79.7215958  39.5545387  17.4687023  80.1285248
  40.3324471  18.3338394  79.1603394  71.1137314   1.5586001  37.6980934
  70.8361435   0.8380803  37.1323814  71.3316803   2.2677288  37.0932236
   5.8291473  13.1008406  87.2229156   6.0791535  13.9726486  86.9168396
   5.2815385  12.7485838  86.5212936  59.8362617  26.1857872  82.8730545
  60.2359619  25.7628307  82.1130676  60.4956055  26.1112957  83.5629425
  49.8707962  36.7500839  67.5044937  49.1345482  37.2072639  67.9108887
  50.0611572  36.0255318  68.1003265  49.7175941  65.7053375  70.7409439
  49.7430344  66.3251190  70.0119324  49.6894646  64.8447571  70.3228073
  75.3940582  70.1850052  74.3188248  74.6829681  70.6411057  74.7688751
  76.0321274  69.9977722  75.0073318  35.0116615  38.7591896  36.5411911
  35.3603783  38.9452209  37.4129829  34.9101524  37.8075829  36.5218811
  11.9770565  37.7154922  84.8618469  12.4682035  37.4807892  85.6492004
  12.5518436  37.4667740  84.1379776   7.0481071  24.2587547   8.1694279
   6.1336460  24.0152836   8.3133526   7.0033584  25.0603275   7.6481690
  78.9208374  33.0539856   7.0769749  79.0270157  32.1111183   6.9506278
  79.7570496  33.3422737   7.4428630  66.7513428  13.0365620  55.9593582
  67.0706024  12.5510044  55.1987457  67.1594009  13.8989210  55.8815460
   6.4314551  13.1278019  29.8107224   6.4138222  13.7805033  29.1107922
   6.7804928  13.5979700  30.5679188  13.4601126  60.2121773  76.8043518
  12.5833969  60.4731827  77.0862732  13.9882727  60.2464180  77.6019135
  17.3659859  68.9980850  33.4298935  18.2811451  68.7350693  33.5275574
  16.9983997  68.3626480  32.8156204  18.3097076  41.6956673  68.1875839
  18.3677979  41.0875473  68.9244995  17.7378387  42.3967552  68.5001068
  59.2260971  63.9958801  62.8586044  59.7922592  64.6120377  63.3234138
  58.3745270  64.0831833  63.2868996  23.0407257   6.8415389  25.5621109
  23.6979885   6.4706926  26.1509323  22.9175644   6.1724138  24.8888092
  72.8360901  10.4199085  41.5643539  73.4356308  10.3873653  42.3098221
  72.0872421  10.9250021  41.8811226  74.3672943  21.6811428  51.0579185
  73.6655350  21.0907860  51.3322258  75.1182861  21.4256916  51.5936317
  72.7966843  29.2066460  12.5469141  72.4859009  30.0895290  12.3465052
  73.5982971  29.3437405  13.0517416  33.7052040  64.0391541  23.5881577
  34.2507172  64.3575134  22.8689232  34.2557564  63.4011345  24.0420837
  31.4187946  62.2222290  18.9090881  31.2514839  62.6079254  19.7690163
  30.6123505  62.3755989  18.4167900  43.0658379  61.4368019   1.3529607
  43.1031303  61.0957718   0.4593500  43.2487602  62.3717842   1.2603315
  41.0422974  68.4919815  15.1579132  40.7591362  69.0301895  14.4187355
  41.5483322  69.0890656  15.7089643  56.4346085   8.5713911  49.6889572
  57.0766411   9.2509212  49.8945427  55.6438942   9.0540056  49.4479523
   3.1558068  37.9976997  80.8131714   3.2261088  38.9483490  80.7262421
   3.4663346  37.6568718  79.9743347  20.7544441   6.4480577  33.8671341
  20.4667492   6.8148913  34.7031326  21.4603138   5.8450899  34.1003914
  14.5092983  60.8667831  46.4678612  14.0894079  61.6140480  46.8939171
  13.9420776  60.6656456  45.7235260  59.4130554  69.2591782  31.3883305
  58.6325989  69.8115005  31.4336567  59.9024811  69.5972137  30.6383820
  14.6226273  25.2542439  13.4845810  14.8069935  26.0877781  13.9175510
  15.4412708  25.0272160  13.0435467  44.0834618   9.3751431   7.8132558
  44.5260315   8.9051847   8.5200109  44.7931824   9.6865244   7.2514992
  82.6034927  16.5528812  40.0804672  81.9316330  16.0392780  40.5288506
  82.4725189  16.3600922  39.1520767  64.5245056  55.8514290  20.8495617
  64.4158096  56.6636009  20.3547955  64.9352798  56.1239624  21.6700630
  13.2667093  61.2908859  68.1783829  13.0418367  61.4171181  69.1001892
  13.3387556  60.3417778  68.0772247  36.2751770  12.6356373   8.0622044
  37.2098961  12.7148399   8.2526236  36.2200737  11.9235878   7.4248815
  33.5356407  42.0623970  25.1881351  33.1781502  41.3378143  25.7013721
  32.9384880  42.1469193  24.4448318   0.4667524   3.1145251  23.2050648
   0.2333662   3.0021222  24.1265469   1.0997043   2.4177408  23.0315838
  32.3374405  60.0049515  65.2447281  31.6537189  59.3385658  65.3131790
  32.8939171  59.7042389  64.5262985  70.6582642  30.3387470  85.6614609
  71.5936890  30.3663635  85.4603424  70.2654114  29.8902836  84.9126053
  41.2556953  38.6247368   8.9388638  42.1393356  38.7509270   8.5931978
  41.3802490  38.5194054   9.8820620  66.8762894   3.3353646   5.2959971
  66.5948639   2.6549671   4.6843681  67.3582840   3.9600759   4.7541037
   4.5480289  56.3048782  23.3472824   4.6956716  56.1940575  22.4080524
   5.0595708  55.6056633  23.7542896  64.0397339  63.6979179   7.0513163
  63.3563271  64.3568649   6.9289432  64.8569794  64.1961975   7.0439377
  77.3723679  52.6217461  49.8839607  77.7766037  53.0311089  50.6489677
  77.6474686  51.7060318  49.9289131  21.5490875  70.4138336  60.0321083
  21.6843567  70.8238754  59.1778221  22.0770721  70.9370346  60.6352043
  33.0421333  51.9928055  75.2624207  33.7592506  52.2867241  75.8241882
  32.7620621  52.7820702  74.7988968  76.1584930  46.1475334  13.1882830
  75.2617188  46.4440193  13.0329695  76.1344604  45.2076035  13.0088720
  37.3387413  69.8682098  46.0078506  37.7548103  69.3116684  45.3495369
  38.0305290  70.4685364  46.2858162  22.5632725  43.1425972  61.7707825
  22.4089489  44.0690804  61.9552803  22.7591763  42.7576675  62.6250000
  37.0153961   5.8518229  73.3882751  37.3432655   5.7113380  74.2765274
  36.6492615   6.7360706  73.4051666  67.2475586  39.4804955  32.2505875
  67.5790253  40.2382622  32.7324066  67.8334656  39.4002304  31.4979229
  63.4606552   2.4976737  41.5895500  62.5944710   2.2592976  41.2591972
  63.6271362   3.3652475  41.2209969  64.3128815  44.0525818  15.5404968
  64.0229874  44.8569679  15.9707928  64.4589081  44.3075218  14.6294994
  65.7260132   4.8685961   2.4646704  66.5164566   5.0877309   2.9580295
  65.7145691   5.4943094   1.7403889  71.0204773  26.4331779  26.3182316
  70.4464264  26.1891041  27.0442638  71.3696136  25.6011333  25.9987946
  47.6079025  55.7073441  39.7715454  48.2348099  55.8986206  39.0739594
  47.5991402  56.4990845  40.3094139  52.6896629  37.3181496  33.0155182
  52.4966660  36.4932785  32.5699081  53.6455307  37.3679161  33.0238838
  85.7765503  47.4601135  33.2688408  86.4540634  47.9887657  32.8472519
  86.1757507  46.5961227  33.3707695  57.1191139  49.2845535  60.9556885
  56.5590935  48.7437820  61.5126228  57.1721077  48.8032570  60.1299934
  87.0705490  35.0759087  60.1461411  86.5860138  35.6469078  60.7423096
  86.8352814  34.1892776  60.4195747  50.8362846  11.6469336  59.1159897
  51.4618645  11.9942636  58.4801903  50.8286819  12.2931299  59.8221092
  44.3632126  50.4991760  51.5078583  44.3581772  51.3077698  50.9956207
  43.6707001  49.9649506  51.1189346  40.8059883  57.2231102  29.6155853
  40.2419281  57.9242973  29.9417782  41.2950935  57.6238937  28.8969898
  54.5473785  64.0443115  30.5952816  54.7890434  63.9555702  31.5172119
  53.9941330  63.2834816  30.4183960  81.8836746  56.0556831  17.8265896
  81.2647400  55.3301277  17.9085350  82.3168335  56.0984421  18.6791039
  48.0469780  67.8288574  72.1746521  47.1995392  67.4414291  72.3936920
  48.6446190  67.0830765  72.1210785  38.1607780   0.9540140  33.6141205
  37.7836647   0.9204964  34.4932632  38.1906815   0.0400316  33.3313255
  66.1886826  29.9900627  28.5214596  66.2206650  29.0621185  28.7541161
  65.2551956  30.2013226  28.5069847   4.3579111  13.9531260  23.9893665
   3.6315994  13.6372080  24.5268593   5.1300249  13.8501682  24.5456676
  25.0454674  -0.0062950  38.8656578  24.6458836   0.8236578  39.1259346
  24.7285404  -0.6376638  39.5115395  19.3526611  53.9058952  35.7197647
  18.6900597  54.4948769  35.3587990  20.1765938  54.3829536  35.6208611
  44.4718170  67.2611237   8.5550575  45.3235512  67.6959076   8.5967760
  44.6541595  66.3533325   8.7977581  71.2316513  42.0329514   0.1373612
  71.8624573  42.3200874   0.7975609  70.7049637  42.8111153  -0.0450985
   6.1566048  59.4342651   2.8488355   6.3993549  58.6133041   2.4206655
   6.5999465  60.1112518   2.3375947  76.8522339  34.8253174  76.6841812
  76.2923965  34.7971115  77.4600830  76.2763596  34.5688782  75.9638748
   0.4793630  48.6647530  21.6296558  -0.2785196  49.2488785  21.6043110
   0.3789171  48.1084290  20.8572292  26.4515038  46.5587883  27.8066788
  26.5228939  46.4181328  28.7507935  27.3234005  46.3559990  27.4677067
   6.6494546   3.0184207   1.1761017   7.0805006   3.7311883   1.6476885
   6.3200068   2.4405854   1.8644346  67.0685120  52.6893959  18.3066044
  67.2682114  51.8671722  18.7541523  66.6582642  53.2341843  18.9782677
  27.1730404  69.4903030  19.2733250  27.8189621  68.8318863  19.5292683
  27.6746349  70.3022995  19.2005787  38.7929802   2.5122948  76.7177582
  39.0573387   1.9821249  75.9659119  38.2371521   1.9312080  77.2370071
   1.2296733  63.8001366   2.3146262   1.4303328  62.9251900   1.9823067
   1.9700285  64.0166931   2.8813787  27.4272175  12.5903215  23.5202560
  27.5074635  13.2285271  24.2291183  26.6608162  12.0669966  23.7547569
  70.6656342  53.8121948  22.5133858  71.1670303  53.0785637  22.1575489
  70.2475357  53.4582253  23.2983265  68.1327972  69.1660004  24.3079929
  69.0423203  69.3877563  24.1084538  68.1934586  68.4965286  24.9894333
  64.7947922  42.7858887  29.5000095  64.2596359  43.5001221  29.8459988
  64.2877426  42.4410133  28.7650318  74.8163605  14.9533052  14.0397205
  74.9959183  14.0168457  14.1235847  74.4167633  15.1962948  14.8748913
  43.5176392   0.6185634  80.1236496  43.2659492   1.5248660  79.9461594
  42.9596405   0.0975599  79.5462189   9.2438869   6.9004612  48.7474556
   9.7659264   6.0989022  48.7822418   8.6223793   6.8130689  49.4701729
  32.5376511  23.7586441  17.7488899  31.8337650  24.3310413  17.4437065
  32.3493767  23.6216068  18.6773319  46.1923714  50.5841103  47.8637772
  45.9548874  51.4390602  47.5047569  47.0834923  50.4314651  47.5493965
  43.6284103  44.5718803   6.8217921  44.5218277  44.7144623   7.1343703
  43.0769615  44.7482414   7.5840492  35.6332855  65.4341278  82.8795090
  36.2201576  66.1631393  83.0803833  36.2026978  64.6648178  82.8665924
  86.0506592   8.0557327   9.1608524  86.9905777   8.1572037   9.3108368
  85.9211807   8.3352785   8.2545853  65.7723160  45.3547401   0.1527836
  64.8558578  45.1596146  -0.0428134  65.9899292  44.7755280   0.8831199
  20.2941818  21.5083580  17.6705074  20.4306374  21.6088696  18.6125832
  19.6700230  22.1978149  17.4439983  62.3173332   9.9926777  38.1935234
  61.6584206  10.4595022  37.6795769  62.6350746   9.3053808  37.6079521
  66.2145996  19.6600018  75.3050003  66.5481110  19.2258492  74.5198212
  66.3746796  19.0339394  76.0111542   4.9585247  38.4414368  66.4936066
   4.0626130  38.1575127  66.3120575   5.0221400  38.4374695  67.4486847
  85.5876465  25.2013206  26.4590454  84.8144302  24.6452637  26.5547752
  85.3319473  26.0365639  26.8504753  82.4342651  48.9318619  13.6674156
  83.1864777  49.4025688  13.3084555  82.5198212  48.0437431  13.3207788
  66.8128662   0.0979231  17.1909676  66.3355408   0.8925267  16.9522362
  66.3570557  -0.2317319  17.9654312  37.2792473  43.3297386  52.5231133
  38.2281342  43.2084770  52.5568886  36.9682465  42.6275902  51.9517136
  65.3316269  70.6291809  56.9339409  65.6599884  69.8970184  57.4558144
  65.3163147  70.2959366  56.0367508  39.5987625   2.2914665  10.7468815
  40.5399590   2.1181023  10.7287645  39.4712219   2.9886906  10.1035748
  61.9039879  13.6281977  41.7420235  61.6024704  14.3975325  42.2251854
  62.5131378  13.1939240  42.3391609  50.2851944   6.4185681  72.4143753
  51.1044235   6.1647968  72.8394547  50.0184669   7.2188029  72.8668289
  18.3987503  19.7352982   4.3697743  18.7825832  20.1071110   5.1639152
  17.6349068  19.2479591   4.6784434  10.2447796   3.8160436  14.0272474
  10.7397442   3.4972699  13.2725115   9.5840769   4.3981051  13.6518707
  34.7137413  48.2468605   0.4085802  35.6246605  48.4240379   0.1739173
  34.6771812  47.2977180   0.5270117  12.3774061  50.7824249  74.3415146
  12.3575020  49.9034805  73.9629745  12.2099581  50.6454811  75.2739487
   8.9271727   2.7435451  34.1614265   8.1737261   3.1986139  33.7853088
   9.6440487   2.9241180  33.5533867   2.3884010   5.4931049  43.6679764
   1.9594028   5.6174226  42.8213730   1.8287579   5.9572859  44.2905273
   3.2072234  29.6578770  19.1688862   3.9336667  30.1242046  18.7553024
   2.4577324  30.2447433  19.0684700  16.4028912  25.3540878  32.1685181
  15.4464598  25.3174171  32.1572876  16.6730022  24.7807465  31.4511967
  79.6671448  28.7267075  88.1032257  79.2748337  27.8961334  87.8340225
  80.2988892  28.4848385  88.7804489  53.1773834  37.9687767  58.1429710
  53.8648605  38.0027161  58.8081436  53.4671326  38.5820351  57.4675522
  16.8777523  68.9309464   4.0654030  16.7143211  69.5954056   4.7347436
  17.5374813  68.3565979   4.4541311  40.7926292  50.5199471  80.3003693
  40.6565247  51.4608498  80.1889572  39.9234734  50.1747131  80.5043564
  65.3187485   6.8414502  19.5435600  66.2224884   6.8785152  19.2303181
  65.2753601   7.5080352  20.2291355  69.3818283  32.2800865  65.3666077
  69.5746078  31.5982990  66.0102158  68.5212784  32.0452614  65.0194016
  54.8411026  30.9650059  54.2675476  54.3641205  30.1734104  54.0183563
  54.5358162  31.1596355  55.1536369  52.5434761  50.3886681   5.2557764
  51.9586792  49.8330383   5.7710614  53.4192657  50.1824303   5.5824080
  74.3832245  28.1919956  51.4587784  74.2294769  27.4858456  52.0864296
  74.7149048  28.9162159  51.9895554  58.0082703  49.3396797  66.9035568
  58.8321304  49.6447334  66.5235138  57.4371452  50.1076050  66.8851089
  66.4371109  57.3794899  48.7475090  66.6557312  58.1150627  48.1753464
  67.0015869  56.6669121  48.4477959  50.3128929  27.0261211  71.0022812
  50.6971741  26.1495380  70.9896622  50.9092979  27.5412979  71.5455322
  41.3886337  66.1332703  84.6981125  41.3298187  66.6959229  85.4702530
  41.5641937  66.7358932  83.9754410  70.7333908  27.9898586  77.5452499
  71.5209961  28.4775486  77.7862320  70.8895645  27.1047878  77.8746338
  72.6846542  19.5491085   4.4746318  73.2556686  20.3173256   4.4786968
  72.9546432  19.0540867   3.7011383  19.0112743  63.9540939  46.2830391
  19.3918877  63.1005745  46.4900932  18.0970020  63.7639923  46.0727997
  74.8822327  60.3596611  66.4051590  74.9032288  59.8809357  65.5765381
  75.4134750  59.8310928  67.0006714  45.4346886   1.2468253  72.6647949
  45.8949432   1.7453486  73.3399811  45.9242249   1.4231356  71.8613586
   4.3686671  22.3418484  24.7596474   4.3430305  23.2080765  24.3531685
   5.0834184  21.8885441  24.3125687  38.9175453  53.1999474  46.8786240
  39.1539345  52.8122635  47.7212677  39.7454376  53.2600632  46.4019585
  12.6312008  40.7567482  82.8877258  13.2266207  40.8514099  82.1442566
  11.9990826  40.0956116  82.6056671  21.8483448  58.1124153  15.9768152
  22.7021275  58.1675987  15.5475807  21.2263432  57.9955559  15.2586994
  68.5903854  22.6314163  76.1209412  68.1489487  22.9569569  76.9054108
  68.9378357  21.7775192  76.3785629  37.9059067  45.0818405  33.1339149
  37.6910172  45.8853226  33.6076965  37.0703697  44.7862663  32.7723198
  43.7538185  64.7340393  36.2951469  43.8536186  64.3721542  37.1756630
  42.8375549  64.5707092  36.0714989  12.8540487  33.7900238   0.6705736
  13.5956831  33.2756424   0.9893581  12.4788494  33.2592773  -0.0321109
  18.6555672  66.1895523  82.4049911  18.5073700  65.3505325  81.9687424
  18.6973820  66.8263550  81.6915741  21.5396233  49.4490204  57.0763206
  20.6634998  49.8303833  57.1328964  21.4035721  48.5966873  56.6624985
  37.4857826  15.1738043  19.1549625  37.7727585  14.3091040  19.4485092
  36.6607666  15.3220301  19.6171398  36.8585129  58.1521759  75.1792603
  36.1870232  58.5302963  74.6114883  36.3835983  57.5302505  75.7305298
  86.5400925  25.9465466  24.0823231  86.3500290  25.2187061  23.4904175
  86.0872955  25.7193146  24.8944645  36.7587051  46.3856277  38.6952667
  36.3111801  46.1326065  39.5026932  37.5023422  45.7859001  38.6355629
  79.3743210  58.4098244  26.7154846  79.2513199  59.2266731  27.1990795
  80.1083527  57.9798851  27.1543159  24.6564598  37.7766457  82.6062241
  24.0912342  38.2112312  83.2448807  24.0671463  37.2038498  82.1154633
  70.7022171  14.1842413  10.6767130  71.4095154  13.5486355  10.5673161
  71.0203247  14.7825632  11.3527689  77.7224808  48.0177002  68.2848816
  77.7955093  48.8065720  67.7476807  77.2038040  47.4134331  67.7537766
  17.4196339  40.5804176  12.2404079  16.8071747  39.9553185  12.6281986
  18.0810604  40.0349998  11.8146544  80.0826645  10.8892870  17.9753036
  80.1968460  10.4116030  18.7968960  80.9248734  11.3202772  17.8298016
   3.1713402  34.1177902  60.3901558   2.3307154  33.7405739  60.6495590
   3.1629765  34.9998245  60.7618828  70.0906372  30.6376266  38.4002190
  69.8929825  31.5561218  38.2171021  69.3220825  30.1603127  38.0876045
  65.0162888  47.7824059  39.2959061  64.6029968  48.2639008  40.0125580
  65.2882080  48.4603653  38.6773109  41.0690651  58.9582710  85.8277054
  40.7811813  58.5531616  85.0096283  40.3606567  59.5586548  86.0599289
  72.2065430  59.7109222  76.0895386  71.3539581  60.0410728  75.8060989
  72.8377151  60.1724281  75.5373917  53.4188461  20.5556393  13.3220301
  53.8050346  20.4827957  12.4492273  54.0734863  21.0297184  13.8347940
  50.1213684  56.4233704  38.7324181  50.1953583  56.5171165  39.6821365
  50.8098259  55.8007126  38.4988441  71.0969925  35.9473228  22.0039597
  71.3304062  36.8159790  22.3313541  70.9376221  36.0785027  21.0692787
   8.2192268  67.0533524  72.3092346   7.4847641  66.5437164  72.6513901
   8.9432640  66.8594284  72.9045486  30.3727264  58.8428764  43.9065094
  31.1532135  59.3924370  43.9776001  30.0515976  58.9967117  43.0180016
  52.3235359  41.1135330  84.4875870  52.7278595  40.5664864  85.1610031
  52.9258957  41.8501740  84.3838882  75.9274979  31.2721558  79.3113937
  75.6826477  32.1970253  79.3412781  75.2266235  30.8549042  78.8104935
  36.0446396  69.5404510  80.8897705  35.2229385  69.9108429  80.5675049
  36.6277847  70.2940750  80.9804459  22.0072937  28.7963753  22.3971653
  22.5758190  28.0434341  22.2356377  21.9073334  28.8212318  23.3488064
  37.6233635   1.1093714  12.7811031  37.9924393   0.3387318  12.3496761
  38.0391045   1.8515946  12.3423586  84.8516083  22.3319435  81.9691849
  85.8004990  22.2627621  82.0743179  84.4931564  21.7574615  82.6457367
  52.9647179  29.2596645  69.4710846  52.7698822  30.1019726  69.0602417
  52.7153435  28.6094761  68.8143463   4.9269361  52.4838486  71.1015244
   5.8317051  52.1743965  71.1446915   4.7141562  52.7282104  72.0022202
  11.2527609  27.3069572  37.8694878  10.6058741  27.9756241  37.6444244
  11.2253942  27.2592659  38.8251076  84.3320389  48.0992584  85.4080505
  84.6156311  48.3876877  84.5405197  83.8814926  47.2697830  85.2492599
  84.5770645  19.9705944  87.7577667  84.6216125  20.9178944  87.6278839
  85.3935394  19.7517662  88.2069016  35.9156685  41.4902992  23.9693222
  36.4545097  42.2814064  23.9747066  35.1224709  41.7375298  24.4446621
  37.7015686  56.4913025  27.9745865  36.9553528  55.9299622  28.1850376
  37.6829491  57.1753845  28.6438522  11.6157503  55.5369949  84.8197708
  11.3637190  54.6395378  85.0372238  11.8884058  55.9181137  85.6544189
  71.4000931  31.5175953  78.5464478  71.3109589  32.3003769  79.0900879
  70.7371445  31.6231117  77.8641052  16.1623421  44.8153076  58.7565575
  15.5244017  44.2828445  59.2316856  16.6013432  45.3265305  59.4363823
  26.5933418   2.9555035  25.0229931  25.7586689   3.0358708  24.5613747
  27.2420216   2.8460462  24.3276768  20.9234581  22.8382568  50.0495682
  20.6840038  23.4055195  49.3166924  21.8514824  22.6482449  49.9121017
  30.2459450  50.1882401  55.3751106  29.8623085  50.1069260  56.2482910
  30.6954384  49.3552704  55.2324677  83.0171127  58.8916740  64.5928268
  83.5046692  59.7146759  64.5583649  83.4968414  58.3553429  65.2240448
  48.1409912  44.8630333  17.1061230  47.5438118  44.9598007  16.3643360
  47.8324356  44.0796089  17.5613918  75.0927124  26.1623249  21.7022629
  74.7826691  25.9559345  20.8204975  75.2447586  25.3090553  22.1085224
   9.4383211  -0.2781736  38.4854088   9.4287634   0.6431332  38.2259216
   8.7904272  -0.3359538  39.1876373  60.7051506  21.5137310  42.4542961
  60.4382133  21.6800556  41.5502434  60.1592407  22.1009903  42.9771156
  32.5170898  12.8680897  23.4242363  31.7503529  12.9615202  22.8588905
  32.1675491  12.9262457  24.3134327  41.1060333  65.2474670   0.3941676
  40.5335464  64.7625656  -0.2002763  41.5332870  65.8983841  -0.1626000
  64.6558914  50.1999626  65.5581818  64.0667648  49.6762886  65.0151215
  64.3986816  51.1057281  65.3859482  19.0944977  60.6794930   0.5139760
  19.6940136  61.4236145   0.4583059  18.2291603  61.0761032   0.6145900
   3.8119566   6.5826793  48.5334358   3.8572454   6.9612613  47.6554489
   3.3747711   5.7403235  48.4087868  69.7700653  44.7441559  49.0911713
  70.4748459  45.2072296  49.5440331  70.1484070  44.4990425  48.2467690
  32.2635269  71.1586533  43.3872871  33.1327629  71.3305054  43.7494011
  31.9315929  70.4220276  43.9005508  83.5811462  24.2966309  33.0983658
  83.8748245  24.6917763  32.2774849  84.3065872  24.4399414  33.7061691
  51.8172607  44.1457977  11.6520672  51.2222672  43.4100037  11.5077820
  52.4815445  44.0541573  10.9690142  44.4283714  56.0029144  19.1686859
  44.7870789  55.2689438  19.6675320  43.6508751  56.2689247  19.6595745
   6.6736131  42.6040916  72.0248337   7.5493941  42.4575386  71.6673965
   6.6565423  42.0929718  72.8339691  58.9778976   4.6975765  37.2531319
  59.7395020   4.6560993  36.6747971  59.0590134   5.5423903  37.6957855
  61.9100304  68.9390717  19.6509686  61.6702156  69.4445496  20.4276390
  61.2442169  68.2535477  19.5963573  52.5012169  49.1288719  85.4465637
  52.1288605  49.7407761  84.8116150  52.8987083  49.6884041  86.1137619
  48.0364723   4.7574368  77.2816162  48.4300461   4.5020814  78.1159592
  47.2776413   5.2868528  77.5268250  18.2944107  32.7417488  85.5944290
  18.9126797  32.6693497  84.8672867  17.5556965  32.1903763  85.3365097
  37.6618652  29.7007828  26.1247311  37.3473167  29.7099953  27.0287266
  37.4767456  30.5811462  25.7977390  73.5404510  13.7418318  11.1423559
  74.3508911  14.1211767  10.8024769  73.5571060  13.9406700  12.0785275
  52.0857887   3.2557478  56.9412766  53.0097237   3.4282739  57.1224174
  51.6135597   3.7612667  57.6028519   3.4109838  33.2001839  65.1891632
   3.2195275  34.1080551  65.4244308   2.8228176  32.6814117  65.7379532
  10.5410929  40.4329758  71.3999786   9.7798109  40.0529556  71.8384628
  10.1723471  40.9419518  70.6780396  66.6225433  39.7755280  83.3666000
  67.3338013  39.3850708  82.8587723  66.5192719  39.1944427  84.1201935
  43.6127815   0.0008088  69.0028763  42.8728790  -0.5993530  69.0955200
  43.2129097   0.8695464  68.9624863  27.3980961   3.9858363  82.9524384
  28.1340866   4.1586013  83.5395508  26.7568054   4.6634603  83.1664581
   8.7270775  -0.1758884  30.1565704   7.9128985   0.3259665  30.1180096
   9.1964197   0.1864546  30.9080067  72.8758011  32.4357834  58.3684235
  72.2427216  32.3967552  57.6515388  73.6183853  32.9190483  58.0061340
  65.0502472  71.4254532  22.1541882  65.2260284  70.8246689  22.8783360
  65.3948441  72.2672348  22.4523258  36.9484367  55.8804245   7.8699727
  37.7026100  56.0756950   8.4261446  36.5449638  55.1124458   8.2745094
  68.2584076  23.4452896  26.8182564  68.8624039  22.9261475  26.2873039
  68.3532028  23.0923729  27.7029572  15.9712505  63.9415207   8.4242115
  15.2397757  64.1852112   8.9914761  15.9160700  62.9881744   8.3584595
  69.9917068  40.4210815  72.1614227  70.9310608  40.4961891  72.3293533
  69.5793381  40.8516273  72.9103012  57.1607056  13.4582758   7.6946535
  56.2165947  13.3502264   7.8096228  57.3631630  14.2823324   8.1375666
  70.5177460   4.4394808  83.4606934  71.3463058   4.7360611  83.8372040
  69.8482742   4.7939444  84.0458374  34.9996910  62.9002800  11.0531359
  34.5595818  62.4213181  10.3509045  34.6420250  63.7865143  10.9993067
  38.2875099  51.1467133   1.1026696  37.7689362  51.0688286   1.9034475
  37.9880409  51.9627113   0.7018033  38.6370354  59.9212456  86.1581802
  38.1728287  60.3101311  85.4168854  37.9434319  59.6498833  86.7594376
  50.2700691  46.0128746  57.8822098  49.5781975  45.3547974  57.8152275
  50.8681908  45.6650887  58.5436668  33.4738655  67.3108749   3.3267350
  32.7247810  66.8134460   2.9986060  33.7586937  67.8361282   2.5789318
  82.6079025  18.0258865   3.4933805  81.8557053  17.5234699   3.8064356
  82.4225464  18.9261703   3.7605236  21.3574867   1.6961944  12.6646595
  21.7368183   1.3362734  11.8629141  20.5327606   2.0919108  12.3827610
  17.5686359  11.6008615  60.5177917  18.0884914  10.8184090  60.7015038
  16.6686401  11.2810898  60.4546509  85.6363220  17.1608562  53.7808456
  84.7143478  17.2312584  53.5333672  85.6685715  16.4098377  54.3734360
   0.0800107  18.3623581  29.0009880   0.5839651  19.0770512  28.6117897
   0.7215838  17.6662273  29.1424675  11.4597750  48.7456894  25.3890972
  11.8837175  49.5579300  25.6661663  11.4251137  48.2109642  26.1822567
   1.6142229  24.2195091  49.7372398   1.4898791  24.1954918  50.6860275
   0.7349057  24.3540134  49.3837700  47.3965950  58.2889328  62.6050148
  47.3085175  57.8265991  61.7715111  46.8159599  59.0453529  62.5218506
  47.6358910  48.2315636  71.5817719  47.8370781  47.4426575  71.0783997
  47.1096191  47.9185295  72.3174820  34.8568115   5.8422179  52.3461189
  34.7092056   5.4425902  53.2032890  34.7070847   5.1322117  51.7218552
  31.7026443  66.5757828  58.0000534  30.8725700  66.4559555  57.5386963
  31.6751671  67.4805069  58.3114319  43.8006592  33.6665115  78.8214417
  43.2065239  34.3794899  79.0557327  43.7632370  33.6278229  77.8657532
  57.0029945  26.0472183  50.0691528  57.4511223  25.2994308  50.4644127
  56.0781593  25.9068928  50.2721786  59.4262543   0.8830994  36.0948067
  58.9772835   1.0145077  36.9299049  59.1358566   0.0199841  35.7999649
   9.9832373  67.3301392  67.6528320   9.5746174  66.9583511  68.4345169
  10.2548523  66.5691910  67.1396027  19.6394577   0.4237204  61.8063545
  19.6267776   0.0049055  60.9457359  18.8710976   0.9945573  61.8062706
  76.8036652  25.4972572  52.3836517  77.5110245  26.1370773  52.3029976
  76.3167038  25.5738754  51.5631485  53.9714851   4.5740504  83.2563705
  54.1826553   4.6656485  84.1854782  53.3676071   3.8322690  83.2199936
  27.1928806  52.0799942  73.7086868  26.9239578  51.1820374  73.5148239
  27.9725437  51.9837456  74.2555771  18.0908871  15.5481501  80.3118896
  18.3237534  15.0330601  79.5394363  18.8096771  16.1727867  80.4088516
  67.0030518  16.0545425  55.9950485  66.2652512  16.0169716  56.6037140
  67.6972275  16.4931870  56.4869232  58.3943253  33.9631538  51.5557480
  58.8268700  34.6795349  51.0910568  58.7557106  33.1692543  51.1615982
  11.1485243  41.8781433  24.9526005  10.5297365  41.1483078  24.9266205
  10.7118816  42.5435448  25.4843998  20.6031590  35.8517685   9.1617613
  21.3781509  35.8779602   9.7229519  20.5307446  34.9350510   8.8960276
  48.4477768  66.6578217  83.6747742  48.4440041  66.0889816  82.9049454
  48.7816086  66.1037750  84.3803406  30.9410343  62.3575592  21.4430122
  30.3348579  62.3931007  22.1829586  31.6973896  61.8745728  21.7759972
  81.5802994  71.1519547  23.0708618  80.8647156  71.5526352  22.5772648
  81.3552551  70.2222900  23.1069221  86.7934341   5.3985052  17.3255959
  86.6182861   4.7619853  18.0187016  86.4575500   4.9851022  16.5302906
  16.5432911  58.6204529  69.0350418  16.8694038  57.7700424  69.3294678
  17.1175461  58.8582191  68.3070755  64.7648697  41.1069717  31.8291531
  64.9212799  41.7765427  31.1632347  65.5758209  40.5990257  31.8531761
  67.6627426  23.3308315  68.9117661  67.7234802  23.0407009  69.8219147
  68.0619507  22.6220531  68.4072876  41.0714035  69.9911423  38.8410797
  40.4989357  70.3959961  38.1894608  41.1978874  69.0962524  38.5257874
  57.9254303  70.4655151  35.6366196  57.4433022  70.6786270  36.4355965
  57.2486687  70.3724060  34.9661331  43.9928017   9.2207441  49.4688797
  43.8551369   9.1610575  48.5235138  43.7543793   8.3551559  49.8007584
  46.4458656  32.5546761  74.1783752  46.8317108  33.2529488  74.7073135
  45.6110535  32.9146042  73.8787537  58.3028679  12.6635780  86.1305771
  58.4423256  13.5296049  86.5136948  58.5925560  12.0525150  86.8080063
  51.8222160  38.2505531  10.1101589  51.2812271  37.9825859  10.8529644
  52.1489868  37.4291115   9.7431698  47.3719864  57.1479187   7.4330783
  47.3920746  57.3049507   6.4890609  47.5521622  58.0037270   7.8221288
  68.6658478  19.4531479  70.9714813  69.2918472  18.7313900  71.0300064
  68.9198074  19.9268227  70.1794128   9.8934488  47.9070892   1.3798424
   9.8135061  47.0281029   1.7502863  10.7554846  47.9141808   0.9638183
  16.5436745   9.1878290  76.9587173  16.6639061   9.8192787  77.6679764
  16.3553219   8.3613062  77.4032516  23.8456306  64.4213257  81.3947449
  24.4339848  63.6808891  81.5424805  24.2047081  65.1243057  81.9361496
  37.3959274  65.7310486  32.9884758  37.4842796  65.2589874  32.1604767
  36.4701538  65.6446152  33.2158508  77.6237335  66.8267441  47.4331284
  77.7772446  67.7249298  47.7262535  77.5007401  66.9013519  46.4867973
  81.0470963  10.4641676  40.5132751  80.5365372   9.9220047  39.9119301
  80.5811234  10.4010925  41.3470154  43.6073380  66.0321503  53.2313576
  44.3010368  66.6874695  53.3059807  43.2089653  66.0049515  54.1012955
   1.4508516   7.5208840  17.5758553   0.8404125   6.8583398  17.2523880
   0.8903131   8.2013674  17.9486427  50.6097908  41.0432663  89.2732620
  50.3299980  40.4329529  88.5910110  49.8290863  41.1756401  89.8110428
   6.4408712  54.1697807  50.7122116   6.0393658  53.3600159  51.0273361
   6.7363877  54.6153488  51.5061684  61.6749229  47.1804085  80.3113937
  62.1860123  46.3722839  80.3556671  60.7671814  46.8859406  80.2370377
  77.3414459  29.6441460  41.6224556  77.6102142  30.5135269  41.9193954
  76.8669434  29.2730560  42.3663445   5.4589906  68.2188644  22.8662834
   6.0066762  68.1914291  23.6508331   5.8966279  67.6335983  22.2480850
  86.5440521   7.8402514  80.1287308  86.6276627   7.5100980  79.2341766
  85.6027985   7.8263187  80.3021774  53.1117477  14.5180912  51.8943748
  53.0983810  14.5130644  52.8514671  52.1969490  14.3940611  51.6414070
  34.1342735  62.7132111  31.1395016  33.5294762  62.0706749  31.5104485
  34.8951187  62.1985054  30.8703957  16.3483715   3.5066738  51.0456390
  16.8138485   2.6703703  51.0329514  15.9849415   3.5651221  51.9292297
  68.5370941  61.4720116  78.1209106  69.2789154  61.6495438  78.6991959
  68.8792343  61.6218109  77.2395859  67.9096375  53.2200279  40.9748268
  68.7499237  53.2617645  41.4313469  67.8173218  52.3001823  40.7266464
  48.6358490   4.8971314  74.4086533  48.8664093   4.9554935  75.3358383
  49.1139145   5.6171150  73.9971848  45.4007301  34.7064514   6.6921453
  44.5569305  34.6594124   6.2426767  45.3461075  34.0376472   7.3747497
  58.9216766  20.2969742  53.8314171  59.0085220  19.4009247  53.5061760
  59.2277260  20.8448429  53.1086388   6.3110967  10.3630638  13.5502558
   6.5083547  10.7099829  12.6802168   7.1452842  10.4012728  14.0181265
  33.4600563  29.2915821  22.8423367  34.0309410  30.0598850  22.8484364
  32.5909729  29.6405239  22.6444454  18.1336956  36.1853638  70.8397751
  18.6769600  36.7864647  70.3300934  17.2654800  36.2515450  70.4422150
  48.6550636  17.7788219  85.0052643  48.1069298  18.3714600  85.5196228
  48.8958092  17.0833988  85.6173630  71.9701691   9.3527346   5.8328910
  71.5739594   8.7313232   6.4437084  71.2270355   9.8182058   5.4490662
  51.1086807   3.1718385  20.2272549  50.7215919   2.6619427  19.5156364
  50.3621216   3.5913057  20.6549568  77.7818756  19.2381630  82.3352356
  77.5505981  19.9126816  82.9738007  77.3506622  18.4462795  82.6565018
   2.6400931   5.6686721  81.3781738   3.2923729   5.6993027  80.6782990
   2.3167930   6.5672307  81.4437637  65.8153763  20.9765167  17.6035995
  66.0423203  21.7222023  18.1591930  66.2846527  20.2376270  17.9909706
  52.9905090  27.8922100  11.6629229  53.3589973  28.3698864  10.9197721
  53.2614479  26.9849434  11.5226011  26.6426010  54.5615311   0.6221506
  26.4045658  54.2004547  -0.2317796  27.0975475  53.8460274   1.0663514
  47.7437744  12.0853949  18.1935635  48.3115654  12.2270956  18.9510365
  47.9130402  12.8356028  17.6236763  60.1964417  21.2901363  38.1914597
  59.7078743  20.6542969  37.6687317  60.9235268  20.7886963  38.5604248
   7.2858639  26.3681297  56.6872063   7.4053168  26.8925781  57.4789848
   6.4099188  25.9930725  56.7782288  41.7490692  11.7272110   0.6481506
  42.0893707  12.5107498   1.0799986  42.4841881  11.1141644   0.6502850
   8.0519590  13.4604521  82.9868469   8.5455723  14.2723408  82.8710251
   8.6220713  12.9077034  83.5213318  32.3059349  68.0123978  54.4838181
  32.5361824  67.0951004  54.3362427  33.1477852  68.4601440  54.5677261
  70.8770065  37.3533897  13.0979624  70.3548126  36.5604782  13.2197876
  71.6010590  37.2608109  13.7171574  42.0762749  53.0649109  14.3908472
  41.3012924  52.8200302  14.8964863  42.1367798  52.3977928  13.7070913
  74.2341919   0.7370394  18.9132938  74.8687057   1.0695041  19.5481853
  73.8203964   1.5221276  18.5546265  22.2018108  21.1053467  88.5210190
  22.0068340  20.1906414  88.3172302  22.6878719  21.0688362  89.3448181
  33.8582649  39.4398384  80.4338455  33.3912659  38.6523209  80.1546326
  34.7824974  39.1921654  80.4076767  57.2762337   5.6311221  54.8317528
  56.5863724   5.3188334  55.4172440  56.8064957   6.0382862  54.1038818
  10.8224115   2.9667997  79.7589722  11.1778784   3.4535894  79.0153961
  11.5009680   2.3262839  79.9723587  40.4804993  37.9615860  80.8083191
  40.2017899  37.1619759  80.3620300  40.5744095  38.6067390  80.1074677
  62.2088432  11.8017206  27.7241840  62.4203949  11.5848703  26.8161888
  62.4959602  12.7090521  27.8268776  80.0262756  11.0523682  75.3936462
  80.4676361  11.7714081  74.9415207  79.5402069  10.5988512  74.7049637
   7.0416374  69.7664108   0.7774144   7.9366679  69.4468079   0.6633803
   7.0417147  70.1751251   1.6429700  48.0093994   2.7323465  45.6172104
  47.0936394   2.5077946  45.7821007  48.4319458   1.8937666  45.4315453
  63.9537697  59.1020050  42.4702301  64.7243195  59.4305725  42.0070534
  63.4387856  58.6602135  41.7950706  47.6312447  61.6316299  12.7153645
  46.9351082  62.0048714  13.2560253  48.2529449  62.3496170  12.5961504
  44.9857140  46.0463371  41.3206596  45.1883430  45.1203880  41.4540482
  45.4352570  46.4954300  42.0365219  10.4897470  50.5641937  83.5803146
   9.7536707  50.0261002  83.2889709  11.0784302  50.5933266  82.8261032
  21.5032654  11.4798603  67.9395752  21.2899456  10.6455698  67.5216217
  21.3609619  11.3233690  68.8731079  82.1191177   9.5306997  89.1098709
  81.7035217   8.8524075  88.5774841  82.8297501   9.8635178  88.5617218
  29.6817017  59.3231239  41.1685562  29.4401646  60.1945496  40.8546944
  30.3267403  59.0103683  40.5342522  80.4778976  55.1967430  85.7512589
  79.9028549  54.4324455  85.7887344  80.1621323  55.7685928  86.4509048
  68.7452698  52.1259613  27.6599903  67.9066315  52.0914345  27.1998653
  69.1189117  51.2525253  27.5427761  64.3761749  51.0995750  28.9388580
  64.9058914  50.3079796  28.8439465  64.9667816  51.7361221  29.3416290
   3.5270615  62.7575798  84.5160294   3.1632440  62.0379257  85.0317459
   3.4137666  63.5301704  85.0696564  75.7183380  27.5329647   5.5731468
  75.5330353  28.0151939   6.3789687  75.9253082  28.2113018   4.9302964
  35.4957771  70.0010452  73.2304764  34.9726295  70.2815323  72.4795609
  35.0161743  70.3274460  73.9918365  22.7584953  52.2878342  31.1697006
  23.2786350  52.2176895  31.9701786  22.0428905  51.6643105  31.2936516
  27.9648037  64.9189835  72.1922455  27.6137543  65.3109665  72.9918365
  28.8796844  64.7292862  72.4001846  83.8490219  38.8408127  19.5916729
  84.6714706  39.3303146  19.5776005  84.0517502  38.0460281  20.0850868
   9.6491690  43.3637695  86.3826141   9.6168737  42.8266869  85.5909500
   9.7866182  42.7363129  87.0922852  76.1894608  16.5206108  75.7578812
  75.8004150  15.6604767  75.9161301  76.3919373  16.8562355  76.6311493
  28.5248222   0.1395597  18.8063755  28.7940731   0.6331207  19.5810585
  29.3275318  -0.2827125  18.5004768  44.0107231  65.2018585  32.8623810
  44.0473595  65.9921036  33.4012680  43.4281044  65.4322510  32.1387024
  75.2285919  13.8177805  85.8330765  75.3118820  12.9720469  86.2735596
  75.5842667  14.4494495  86.4581528  50.2968903  17.6820202  41.8600197
  51.0554810  18.0977020  42.2698784  49.5763321  17.8454571  42.4685516
  26.9970264  50.7687225  61.6376762  26.5703583  50.5429344  60.8111115
  27.2729397  51.6782379  61.5241699  73.9723816  58.5412788  40.0398865
  73.1745148  58.1327820  39.7040596  73.9878540  58.3089943  40.9683456
  43.8799591  41.4102249  22.4955730  43.8833084  41.8236809  21.6322803
  43.3759193  40.6056366  22.3738422  33.7667542  52.2145920  61.3081055
  34.4115982  52.8552589  61.0081825  34.2067757  51.7458229  62.0172348
  75.4188232   8.7213573  31.8896008  75.2588730   8.2962885  31.0470066
  74.6079636   8.5911512  32.3813057  76.0664597  30.8376045  50.8655624
  76.5332718  30.1863232  50.3419724  76.7515259  31.4269524  51.1811295
  20.0059013  24.4946404  34.2314148  19.9651356  23.7550068  33.6251869
  19.5915909  25.2158012  33.7575951  83.7251205  62.5172920  40.5581894
  83.2889099  63.1893692  41.0818939  83.2357254  61.7154236  40.7418480
  28.5920620  12.0778322  77.2163239  29.2323704  12.6385870  76.7783890
  29.1207085  11.4471016  77.7051468  21.3355885  21.2686882   7.7933564
  21.7549343  20.4585552   7.5034151  20.6637058  20.9824448   8.4121218
  39.5549049   9.3712234  16.0115223  39.7022400   9.8826580  15.2159357
  40.4328880   9.1325064  16.3088264  67.3831100   6.0176015  77.6184464
  68.1483994   5.7128143  78.1059647  67.7394485   6.6198368  76.9653320
   8.9749775   4.6320577  11.5197983   8.0489187   4.5268893  11.3016529
   9.2758665   5.3411560  10.9515762  18.5089722  49.8501167  77.6650391
  19.1458931  50.0556831  78.3493652  18.4787655  48.8935928  77.6454697
   3.2841325  60.5431175  75.8116760   3.6206019  61.2377815  75.2455750
   2.9932494  59.8608665  75.2065659  48.4898758  57.1683578  36.8581696
  48.8243637  58.0296822  36.6082230  49.1095657  56.8523445  37.5157051
  30.8999786  64.5748444  69.7829971  30.4562740  63.7768478  69.4956589
  31.3492317  64.3219376  70.5894928  22.4410686  48.8731079  68.3851547
  21.5964546  49.0266609  67.9617462  22.8211384  48.1391945  67.9022980
  72.1548996  51.1168289  51.3885727  72.0166855  51.9554863  50.9483681
  72.2705765  51.3464813  52.3105888  75.7900925  36.4672470   5.3730011
  76.1416016  36.4689980   4.4826808  74.8655319  36.2441597   5.2650414
  76.4379044  19.1113014  31.6417007  76.3843842  19.2386227  32.5888824
  77.2715530  19.5106144  31.3930874  69.3342361  68.8052063  57.8446045
  68.7076569  69.2715607  58.3979187  68.9836578  67.9167099  57.7821236
  52.2162933  14.7485619  28.0793018  51.6532021  14.5052958  27.3444691
  51.6102066  14.9092798  28.8025284   2.4608657  51.5203438  87.7754517
   2.0345831  51.1999893  88.5703659   2.5326178  52.4658051  87.9065475
  13.8156786  63.3271255  47.5779228  13.8915081  63.4744835  48.5206680
  13.2371531  64.0256958  47.2720795   9.6836138  52.3602333  45.8626289
   9.2149611  53.1874657  45.7517967   9.7844820  52.0210724  44.9732323
  84.3188934  53.1680832  22.1324921  83.5026245  53.4502754  21.7198143
  84.9483643  53.8548470  21.9125824  76.0148315  26.7876072  50.0208321
  75.2397995  27.1107807  50.4803047  75.6917572  26.5316620  49.1569214
  84.2275696   9.5977640  37.3899117  83.6992493  10.3757238  37.5684776
  84.6245422   9.3791370  38.2330284   9.0745630  11.4606256  17.8778305
   8.4868565  11.9776297  17.3268871   9.0079832  10.5712109  17.5303535
  46.1662178  54.6817017   7.3574972  46.9654579  54.1560593   7.3236208
  46.4729462  55.5737762   7.5198312  80.4820862  40.2493744   6.9769559
  80.2636414  39.3880463   7.3328052  79.9590225  40.8618698   7.4941492
  55.7473869  37.0639114  21.4315968  55.4830742  37.9336281  21.1316586
  55.5418739  37.0602531  22.3664665  58.0863762  46.8907890  82.1027527
  58.8952293  47.4022408  82.1228027  57.5345383  47.3403397  81.4627457
  44.7697372  40.3302956  69.3317947  45.6265068  40.6483383  69.6164474
  44.2118645  40.4208527  70.1043320  40.1484375  21.9416409  31.8863125
  40.7990189  21.9710407  31.1848030  40.6571999  22.0519505  32.6895714
  76.3529739  40.1198311  87.3980103  76.0094833  40.8206749  87.9521484
  76.6703491  40.5681000  86.6140747  71.3653107  48.0248489  64.4669800
  71.3838425  47.2091255  64.9674606  70.5130234  48.4107056  64.6693420
  84.6682816  38.3708572   2.2121596  84.7054138  38.9554939   1.4551567
  85.4187698  37.7872009   2.1010635  69.8654480  37.5094528   6.5214415
  69.4964218  37.8403664   5.7025723  70.4397125  36.7923126   6.2528138
  76.6171570  28.0869160  11.9924355  77.4618225  27.9336452  12.4158478
  76.5576019  27.4053040  11.3230391  15.8517790  36.8663902   3.2338393
  16.3749123  36.2632408   3.7618299  14.9832106  36.4653740   3.2021005
  71.8489609  48.5695877  72.2935791  72.1910019  47.8732414  72.8542404
  70.8982620  48.5048027  72.3841934  82.8902740  55.5168076  33.0958786
  82.1501770  55.9464493  32.6670532  82.7540054  55.6799812  34.0291710
  74.8948364  15.3787746  17.2672920  74.1096649  15.3803434  17.8147659
  75.2226105  14.4810581  17.3211842  18.8593464  39.4550972   6.1491542
  18.9585571  39.4788437   5.1974058  18.8001270  38.5234261   6.3606157
  62.6760674  14.8038416  65.4847565  61.8442459  15.1414099  65.1525650
  62.5894623  14.8483696  66.4369965  27.3998680  39.4266930  70.4691467
  27.2294807  39.5225945  69.5321274  26.6897144  38.8684540  70.7858200
  67.3710861  64.6557846  52.1612015  68.2690125  64.3264084  52.1228790
  66.8329010  63.8718834  52.2711296   2.5154223   2.2023616  15.2014093
   1.9242849   2.4603305  14.4941320   3.2269208   2.8415837  15.1640358
  51.5051537  27.1928978   2.5406308  51.8604012  26.6862774   1.8103106
  51.8630447  26.7706375   3.3215556  14.5594559  10.9137926  67.6030350
  14.3397417  10.3860579  68.3707886  14.8272190  10.2752447  66.9421310
  77.5984421  52.0776291  13.5480862  77.3201065  52.2442513  14.4486399
  77.3238144  51.1771088  13.3752451  84.7535477  13.7753115  82.5832443
  84.4715881  13.6510429  83.4894943  85.2890015  14.5684195  82.6056213
  63.5373993  48.8004799  44.2731628  64.3738556  48.9024925  44.7272224
  63.0166473  48.2442665  44.8525352  78.8297653  20.4988365  14.7142954
  78.4311981  21.0854015  15.3571920  78.1068344  20.2461071  14.1400814
  41.9801788  11.1005173   7.8895311  42.7934799  10.6293917   8.0706692
  42.1548309  11.9978046   8.1734400  81.3000259  50.2134056  76.8099442
  80.7638702  50.4871178  77.5541534  81.2818069  49.2568703  76.8405533
  54.1487617  63.3353348  65.6150970  54.8206787  63.8618774  66.0481186
  54.6246643  62.8422012  64.9468384  13.2144089   5.4416285  87.9548798
  12.3252373   5.7410755  87.7653046  13.4602871   5.9108343  88.7521362
  58.7301254  21.5096169  77.5183105  58.7477150  22.1165390  76.7783356
  57.8637924  21.1048069  77.4755249  60.4898987  48.4450302  82.7148056
  61.3137131  48.0220795  82.9570389  60.6407661  48.7732658  81.8283920
  11.1986990  53.1979218  31.8356113  11.2121286  54.0777855  32.2123032
  11.5321836  52.6336250  32.5331688  62.8630562  31.9875278  12.3248463
  62.8278084  31.0403233  12.1914692  63.7748070  32.1628532  12.5576668
  74.0693283   5.1895103  32.0471230  73.6895142   5.6889644  32.7699776
  73.3266830   4.7259760  31.6600246  21.2699966  50.2552452  16.1155434
  20.8716927  51.0861740  15.8564262  22.1870365  50.4715462  16.2843151
  39.2661781  62.6801224  87.7524719  38.9988632  61.9648132  87.1753159
  39.3804398  63.4295082  87.1680145  67.0347748  46.0450134  67.9775543
  66.0892563  45.9379463  67.8737946  67.1517334  46.9775429  68.1590424
  11.3196516  10.6587830  70.5508728  10.8275862  10.7814932  71.3626862
  10.6985559  10.8834295  69.8580475  63.0216751  44.0522614   8.9157906
  62.5569839  44.4691772   8.1902065  62.8705406  44.6324768   9.6619406
  55.7084351  29.5850735  85.0738831  56.6077423  29.3403492  85.2920227
  55.7817917  30.4675865  84.7105408  39.7199020  23.8570747   6.5291181
  39.5399094  23.9693871   7.4625096  40.0997543  24.6922340   6.2562532
  40.4027672  69.8516006  26.3923779  41.2623405  70.1086044  26.7260208
  39.8223457  69.9162750  27.1507721   0.5646399  65.1817169  74.4978104
   0.2885502  65.6510696  75.2850266   0.0282050  64.3889847  74.4910889
  19.8151817  31.1450253  31.3656330  20.5399361  30.6218204  31.0232601
  20.0577564  32.0493698  31.1667576  73.2694473  32.4107094  43.0974579
  73.2434082  33.1779442  43.6692123  73.4405441  31.6773586  43.6883469
  48.0138130  47.3492508  84.8496323  47.2534981  46.7906914  84.6878815
  47.9191246  48.0691948  84.2259827  45.8840332  24.8868980   8.4878082
  46.5862923  25.4852238   8.2327156  45.7323341  25.0765247   9.4136915
  58.1654282  26.5883179  15.2708120  57.7290344  25.7791080  15.5372133
  58.8183746  26.7441483  15.9531660  18.9599056  69.3332596  30.1948338
  18.9167023  69.7002411  31.0778370  19.8524494  69.5176239  29.9022465
  63.9804192  47.2452240  27.3972492  64.1428223  48.1739426  27.2319069
  63.0559387  47.1217117  27.1820526  49.4769058  46.0123367   6.4674535
  50.1386299  46.3097534   5.8430376  49.0347710  45.2897034   6.0218630
  58.9146004  44.3291016  82.1472778  58.7972717  45.2788315  82.1253510
  59.8248177  44.2063789  82.4168701  78.2717667  69.3713074  28.5786285
  78.3507080  69.7398071  27.6987381  78.9403915  69.8269958  29.0900173
  23.1235771  26.6584396  87.8397675  23.7435093  26.5937805  88.5662231
  22.5481491  25.9011822  87.9478302  81.3024902  68.6973114  10.5466413
  81.0768051  68.3465271   9.6851006  81.2511063  69.6471024  10.4394903
   7.5484242  29.7802296  28.9297771   8.3051662  29.6845074  28.3514957
   7.2314930  30.6681881  28.7645092   4.3158422  44.7715530  18.1989803
   4.8015847  45.3880730  17.6510849   4.1378574  45.2562141  19.0049915
   4.4313731  19.8892746   0.7266796   4.6073895  20.6792812   1.2376989
   3.5704811  19.5971107   1.0262413  29.9866219  40.4840088  11.8981218
  30.1253223  40.4034691  10.9544544  29.6305141  39.6353455  12.1611576
  42.4752579  20.3338947  78.8585663  42.2247391  19.6547108  78.2323227
  41.6947136  20.8814812  78.9430237  55.7636299  66.7722015  69.0496140
  54.9883347  66.6479340  68.5021591  55.4218941  66.8145294  69.9427338
  46.4985161  36.2019958  35.6381111  46.4840126  35.5123749  36.3017731
  47.4080429  36.4998741  35.6220665  62.7606010  58.8042297  23.2001133
  63.0234909  59.6018181  22.7407913  61.8665352  58.9802628  23.4931908
  54.1252289  47.0254059  75.5578232  53.2148972  46.7303543  75.5361176
  54.2244682  47.5544701  74.7663193  81.6205215  20.5428581  14.5501919
  80.7318573  20.2058754  14.4364033  81.8563995  20.8914318  13.6904907
  13.4283524  38.9020424  39.9567375  13.7996187  38.3292427  39.2856979
  13.0190401  38.3041916  40.5822525  38.0023308  45.8749428  53.6244431
  37.4496307  46.5719337  53.9779434  37.4938927  45.5102158  52.9000816
  55.2526093  38.7684746  16.6631622  54.6321640  39.1583977  17.2789917
  56.0995979  38.8309059  17.1046886  20.7358627   0.4362215  48.9060402
  21.3414783   0.1498731  48.2223244  21.2533779   1.0283147  49.4517822
  44.4900551  70.8940353  28.7503204  44.7558327  71.8123550  28.7025032
  45.2857590  70.4273987  29.0059319  74.8945465  53.6418839  38.7891197
  75.8046799  53.8416557  39.0081749  74.9522858  53.0728951  38.0215569
  22.9024887  61.8052635  34.3187294  23.2710590  61.9222946  35.1943398
  22.6903191  60.8731041  34.2707977  70.7838898  65.1439056  27.6207390
  71.0710526  65.6597595  26.8673038  70.3868713  65.7836838  28.2117462
  58.6665077  56.5017662  48.8739281  58.3598251  55.6180611  49.0770149
  58.1546707  56.7628937  48.1083794  84.0378494  51.0935860  49.9670525
  83.7928925  51.7945595  50.5710945  83.7683258  51.4140663  49.1063042
  11.9866018  44.9077492  36.0472755  11.3223047  44.8099747  36.7294655
  12.1360359  44.0174255  35.7291183  26.0712509  24.2902260  14.4496975
  26.3399525  23.6336040  15.0922546  26.8648434  24.4712639  13.9460430
  83.7966003  22.1659088  76.1088409  83.4822845  22.0622044  75.2106857
  83.0029907  22.1490746  76.6437607  61.2604027  40.3033943  75.4472961
  61.0277100  40.1201553  76.3575211  60.6706772  41.0110397  75.1871262
  74.1516876  36.9465027  33.7762642  74.3820953  36.6852531  34.6678314
  73.1949234  36.9229279  33.7594643  56.2823830  71.0183258  38.0547104
  56.4054375  71.2658386  38.9711304  56.0073471  71.8271713  37.6230164
  82.0744858  30.9550953  69.9724655  82.0248337  31.8653545  69.6805878
  81.3078995  30.5360146  69.5813751  66.1439819   9.3845263   6.4043074
  66.7899399   8.7971334   6.7966652  66.4216995  10.2600861   6.6735644
  66.7243195  20.8419399  21.4839230  67.2314682  20.4152985  22.1745815
  67.0799789  21.7294788  21.4390793  23.7002602  64.4710388  18.6208897
  23.2412090  64.3076019  19.4447784  24.0036659  63.6076164  18.3403950
  48.6516571   8.6237545  69.2409897  49.2549706   9.1127462  69.8005753
  48.0763016   9.2916346  68.8679810  80.0083923  53.4335747  59.4199028
  80.9264526  53.1715508  59.4888306  79.5267334  52.7391930  59.8694153
  53.5973434  68.7901688  65.7648163  53.0649338  69.1109390  66.4927444
  54.0595131  69.5655060  65.4462433  52.6486053  69.1695404  29.4291763
  52.8421059  68.3723145  29.9223461  53.4530182  69.6855545  29.4828358
  61.4789162   4.7569385  11.3177404  62.2846222   5.0578065  10.8975582
  61.7089844   4.6708651  12.2428846  10.6548471  63.8985405  37.4685059
  10.3007936  63.3623695  38.1780128  11.5869751  63.6819763  37.4468689
  54.2112999  61.3501968  46.1834335  54.7649765  61.9592705  46.6720085
  54.2496033  61.6637802  45.2798691  71.9628067  70.6680145  26.5088730
  71.6518707  69.8295288  26.1675510  72.8725204  70.5031586  26.7568054
  31.0577736  31.4418278  81.8217316  30.2830505  31.8887863  82.1627121
  31.2036304  31.8373184  80.9623489  38.7603951  49.0404320  55.8643913
  38.3167610  48.6291466  55.1225929  38.8300095  49.9633179  55.6201324
  38.4614830  23.5798855  14.4244909  38.0264473  23.5351486  13.5730362
  39.1151466  22.8811913  14.3964825  13.8870373  23.6698303  15.5815449
  14.1622343  23.9747162  14.7169380  13.3037968  24.3571758  15.9034433
  56.2662201   6.9325519  37.1946373  56.5773125   6.1496315  36.7402267
  55.3444405   6.7521048  37.3790054  62.4264870  58.4693336  50.3957596
  62.2700500  58.3935242  49.4544754  61.5942650  58.7796097  50.7526436
  67.1144104  20.0445633  32.4223938  67.3215027  19.9522724  31.4924335
  66.1585236  20.0106831  32.4594154  39.5473289   4.4548650   8.8011808
  39.1932945   3.7738001   8.2293053  39.1183472   5.2593360   8.5095758
  78.7944717  37.3725815  45.8385201  77.9459457  37.6334114  46.1965599
  79.4297409  37.9085350  46.3133049  68.9705811  30.9884090  14.3855000
  68.6636353  31.5550194  15.0932922  69.9101410  31.1625767  14.3296175
  81.5423431  18.3358116   6.4479332  81.0974121  17.8830509   7.1643648
  80.8800125  18.4050713   5.7603636  33.7377243  42.6438217   6.0456653
  33.7510223  43.5378494   5.7039495  33.6100616  42.7496147   6.9883962
  85.8652878  12.9405575  10.1638823  85.2080841  12.3274670  10.4931879
  86.3663101  12.4340611   9.5246115  86.3150177  40.4465485  76.9846954
  86.9678650  39.9064674  77.4300385  86.7969055  41.2263527  76.7091675
  41.1892776  17.5282059  87.1546097  40.7864799  16.6969318  86.9036789
  40.4493599  18.1094799  87.3303375  65.1641922  55.9334869  88.3045959
  66.0348282  56.0219231  88.6924210  64.8160934  55.1244202  88.6793976
  78.3187790  46.6696396  75.9064484  77.8736420  47.0340080  75.1413803
  78.9833527  46.0855103  75.5412445  86.7971802  36.7089272  43.3050270
  86.3660812  37.1072693  42.5489120  87.3275604  37.4135666  43.6770592
  15.9245071  61.7111359  26.3071060  16.7640190  62.1611862  26.2127209
  15.5555124  62.0601883  27.1184235  38.1037674  56.5465622  86.5581665
  38.1798477  56.4838371  85.6060638  38.6046257  57.3293915  86.7874069
  62.9013176  43.0032806  70.4185944  63.7927551  42.6620674  70.3469009
  62.3425674  42.2286377  70.3556747  25.0340328  13.7405863  18.1265240
  25.5837135  13.3847809  17.4283199  24.4946365  14.4020100  17.6931629
  65.0836105  70.8597183  47.3750381  65.7578125  71.5083389  47.5774879
  64.7371902  71.1316147  46.5251541  48.4219666  52.5363045  23.9415703
  47.6759567  52.7331085  24.5081120  48.1780281  52.8986130  23.0898323
  16.9204922  29.0156307   7.6783729  17.8149300  28.9427319   7.3453608
  16.4277096  29.4076214   6.9574423  47.9872208   1.8141084  76.2330780
  48.2072945   1.7295127  75.3053741  47.7736855   2.7404399  76.3450775
  40.2154274  25.7749214  14.1653252  39.5647202  25.0884743  14.3122988
  40.9125023  25.5823879  14.7924194  63.3548508  20.1056271  16.5663052
  64.1452866  20.5824661  16.8194237  62.8320656  20.7469273  16.0849934
  53.3851624  60.6099243  88.8573380  53.4195976  60.5490990  89.8119812
  53.7527428  61.4711456  88.6587982  83.5691605  50.9499664  84.1400986
  83.1019592  51.0501022  84.9695129  84.4745102  50.7723465  84.3951035
  52.5339470  19.2287579  71.1258240  51.9945717  19.9306717  71.4899979
  51.9099541  18.5374775  70.9044800  50.9659004  47.2068901  39.2297592
  50.1474266  47.0061417  38.7758522  51.0745354  46.4908485  39.8556328
  62.0602646   8.1178112  30.1887074  61.1135712   8.2542553  30.2260132
  62.1745186   7.1832008  30.3609867  70.9843063  13.5709801  22.1503391
  71.2600174  13.2850399  21.2794456  71.7406464  13.3962631  22.7103920
  45.8900604  62.6667213  17.7349072  45.1990356  63.3288727  17.7184620
  46.4802246  62.9187469  17.0246792  31.2814293  54.0701714  30.3784332
  31.3742943  53.9586067  31.3245640  32.0758400  54.5333786  30.1127663
  61.0791321   2.4537289  62.7416573  61.6593971   2.0486369  62.0971260
  60.3890686   1.8056889  62.8834000  58.5390167  49.1564789  63.6980858
  58.2725601  49.9745331  63.2785416  57.7382202  48.8228683  64.1026382
  80.2291870  61.0618858  14.0753593  79.8984222  61.4142494  14.9015970
  80.0205536  61.7348175  13.4273844  56.9204826  63.0176468  69.0607910
  56.1850853  63.1136703  69.6659393  57.6738815  62.8438416  69.6250763
  46.1507721  49.8398323   6.7444677  46.2680779  49.9446526   5.8002834
  46.8594170  49.2538185   7.0102639  74.2688980  32.7185516  11.9068470
  75.0798187  32.5978317  12.4008751  74.4294891  32.2790833  11.0717964
  18.3904419  46.8431091  78.6017914  18.7375278  46.1281204  78.0683594
  17.6651516  46.4496841  79.0869827  15.1454601  57.5816231  34.0264320
  14.8228903  57.3429298  34.8954582  14.8059826  56.8979759  33.4488373
   9.9205313  38.9432983  58.2018852   9.8405037  38.6558762  57.2923698
   9.0987949  39.3999825  58.3819389  19.7041416  62.6929588  85.0927811
  19.4777336  62.7403259  84.1639481  18.9899254  62.1932030  85.4882202
  67.7812958  36.2277679  60.8847618  68.3274002  36.9962769  60.7192612
  67.9297333  36.0227699  61.8078918   4.9275861  16.5340748  47.0734634
   5.8131008  16.4160671  47.4172211   4.3846245  16.6663170  47.8505974
  27.5711365  57.0985909   1.4040858  26.9765396  57.7621498   1.0542580
  27.4167976  56.3272591   0.8586911  65.9667511   2.0543778  87.2116013
  65.5128403   2.4223647  87.9697418  66.6363068   1.4828514  87.5874786
  72.7088165   0.3877749  42.3769951  73.3054504   1.1047029  42.1618919
  71.9044189   0.5946721  41.9012108  53.3482056   1.5569903  31.1699028
  53.0859566   1.6270978  32.0878029  52.5355911   1.3628166  30.7027988
  54.9754715  50.8203964  44.0067024  54.1807823  51.0095177  44.5056343
  55.6214104  50.5749321  44.6690788  74.0709229  65.1887512  34.4811058
  73.1882935  64.8210983  34.4361305  74.0932541  65.8440247  33.7837143
  75.9011002  17.6891956  19.1370487  76.2743988  18.2108707  18.4266014
  75.1501694  18.1996403  19.4399948  77.8459015  39.7879677  43.8520622
  77.4917603  40.1244698  44.6752167  77.2833557  39.0444069  43.6354980
   2.7263556   2.1464620  32.0588226   2.0372536   1.9129845  31.4368420
   3.0114703   1.3095890  32.4256783  26.9545307  69.0296402   3.1118023
  26.1682396  68.9063339   2.5800400  27.3609829  69.8209457   2.7584407
  35.6813469  40.0402031  87.5386581  35.9913750  40.6831017  88.1764679
  35.6471214  39.2168999  88.0257263  17.4992390   9.7512960   7.7088156
  17.3993702  10.5213385   8.2685413  16.7914104   9.1659479   7.9782219
  72.0758896   3.7681680  36.4827843  72.4259338   4.4800706  35.9471588
  71.5655060   4.2084355  37.1624184  48.1317940   1.6947453  22.1132202
  47.7105179   2.5541708  22.1253262  48.0438156   1.3976185  21.2075653
  64.7204819  32.6574936  88.5011673  64.2923584  33.3309937  87.9726486
  65.4105988  33.1250191  88.9716873  24.7150211  68.7716904  70.4197769
  23.9211311  68.6414108  69.9011230  25.2239437  67.9725189  70.2835464
  59.2995796  39.1688957   3.6126082  58.6698151  39.5780182   3.0191033
  58.9232254  39.2931671   4.4838991  42.3409576  56.3683319  54.5319519
  42.0715790  55.7087250  55.1711578  42.7905693  57.0352173  55.0509338
  43.1141472  11.8225746  19.9980240  43.2223206  12.1708698  20.8830223
  43.0359573  12.5985928  19.4431229  57.9258766  44.7078171  55.4375305
  57.4074173  44.3304749  54.7268639  58.6818314  45.0998917  55.0004501
  18.9512444  64.3708878  19.0734520  19.7782097  64.5588226  18.6295605
  18.4218597  65.1564941  18.9363060   6.4725423   1.6732293  43.6453056
   6.9271312   2.3096108  44.1972122   5.6306992   1.5372546  44.0800972
  61.8008080  44.8951035  83.1526337  62.7303658  45.1143951  83.2164154
  61.3803482  45.4379425  83.8195419  72.9083405  55.7792435  79.6349487
  73.3501053  55.4003677  78.8749924  73.1807175  56.6968689  79.6374741
  23.0183430  15.1182661  54.0152931  22.1179447  14.8976393  54.2537041
  23.0082932  16.0677452  53.8943787  36.6017227   3.5050993  25.1846352
  37.4298706   3.8758612  25.4894924  36.1799889   3.1760607  25.9784260
  35.1232567  67.5066376  66.6804352  34.5429802  67.6919250  65.9420776
  34.6920052  67.9134445  67.4319458   3.7838612  17.8824863  24.2319889
   4.0175347  17.2745266  24.9334259   4.1817250  17.5065365  23.4467525
  22.4338684  53.2030258  40.7469864  22.2246494  52.7312012  41.5531120
  22.8501263  54.0121193  41.0441818  64.9433289   6.9209309  78.9942474
  65.3391418   6.9034348  79.8656006  65.5184860   6.3742809  78.4589005
  36.6760674  50.9066162  16.4914742  36.9825706  51.6388817  15.9566116
  36.3974228  51.3104820  17.3133526  48.1985054   9.4575939  63.7682533
  47.3558998   9.3439894  63.3285484  48.7186317   8.7046976  63.4874535
  17.0197830  57.6688690   2.9790621  17.4158478  57.3313904   3.7824748
  16.9133625  56.8976250   2.4222016  40.5494270  63.6651688  54.5384903
  40.3990593  64.1745300  55.3348389  40.1562157  62.8119888  54.7220650
  75.8124313  27.8291321  64.1314697  75.8082809  27.5973740  63.2027588
  76.7386475  27.9385109  64.3468857  10.1504250   2.4126127  22.6917667
  10.5946865   1.9884119  23.4258747   9.2834959   2.0074084  22.6699638
  24.8765068  50.3066559  10.2283926  24.0875359  49.7648125  10.2157393
  25.4722843  49.8484230  10.8211012  86.1496277  54.4102249  51.5879364
  85.3917542  53.9718208  51.9747925  86.9024353  54.0346680  52.0445137
  19.1072407  20.9153500   9.3859596  18.7046318  20.0750618   9.6051664
  19.3583069  21.2883358  10.2309914  25.2088623  69.3539276  79.1190872
  25.9339104  69.8908997  78.7994080  25.5499325  68.9377441  79.9107361
  60.6091614  31.0065422  24.0658035  60.9731674  31.1094589  23.1865196
  60.0162430  30.2585735  23.9935360  65.7434235  47.1284027  29.4989376
  66.2919922  47.8327484  29.1536808  64.9889603  47.1020470  28.9104538
  29.0751057  58.3250847  77.7053375  28.8358955  57.3983917  77.7212906
  29.0539722  58.5937538  78.6238098  86.6901779  60.9542274  55.2694206
  87.0222549  61.3893585  54.4841728  86.7964630  61.6025352  55.9655762
  76.7800293  45.6212311  88.7076569  75.9847565  45.5239754  88.1839066
  77.3219452  46.2326965  88.2089920  84.8429413  24.6761131  43.5981445
  84.9853897  23.9936275  44.2540092  85.0580063  25.4917412  44.0506172
   9.3164740  29.7751083  70.8003311   8.4816084  29.9332638  71.2410278
   9.0868483  29.6924934  69.8747559  39.7979774  39.6600914  83.0266190
  39.5030594  39.8463478  82.1352386  39.4731369  40.3962173  83.5451050
  11.9118338   7.2711725  34.1653786  12.8209934   6.9972377  34.2862968
  11.6086502   6.7682095  33.4095116  38.8501396  13.1549120  73.9818802
  39.7348976  13.0229092  73.6412735  38.4533272  12.2840700  73.9617157
  65.4799118  18.8285789  14.5226183  64.5951004  19.0363579  14.2223253
  65.7141800  18.0327282  14.0451517  82.7686996  22.1031818  30.2734909
  83.6533585  22.4572563  30.3642521  82.7546463  21.7150517  29.3986263
  11.6515646  53.6594925  58.3414688  12.1204033  54.4838791  58.4710999
  11.0167837  53.8509598  57.6510887  29.4523392  59.3555794  80.0947800
  29.3932648  59.0830116  81.0104523  30.3819294  59.5390282  79.9589844
  37.0546074   3.5853748  83.1152725  36.8847160   4.3055158  83.7225342
  36.2422180   3.4954453  82.6171112  32.5398598  37.6684532   8.8135376
  31.6978283  38.1202736   8.8689861  32.5000229  37.0025520   9.4999924
  30.2157326  58.2284012  64.4850540  29.8525486  57.4737053  64.9484787
  30.7705135  57.8472862  63.8044662  86.7491989  20.3450985   0.4481538
  86.4670868  19.9850063   1.2889740  86.8800201  21.2778282   0.6188377
  55.5613594  37.1659889  39.0303764  55.8208084  37.1086388  38.1107941
  54.8046722  37.7522049  39.0296364  59.1830063  30.8635445  39.8773651
  58.8529510  31.4388485  40.5675278  58.4292755  30.3269539  39.6320190
   1.8298318  62.7141113  72.0647659   1.8053452  63.5139351  71.5394897
   1.0067067  62.7230759  72.5532455   8.4403877  35.9251251  62.3259964
   9.3006182  35.9596519  62.7443771   8.0913954  35.0668488  62.5664215
  39.0200539  41.5209198  38.2970238  38.4778137  41.6378784  37.5169411
  39.3587761  40.6288300  38.2217140  21.3252563  36.9057579  22.5929832
  22.0086117  36.3467140  22.2232170  21.3175716  37.6793175  22.0292645
  44.0830421  36.4420013  85.5827103  44.7785263  37.0981369  85.6276932
  43.2795525  36.9514809  85.4775238  44.7967529  24.1239605  73.3400192
  44.5419502  24.9984875  73.6341476  44.9920959  23.6473732  74.1468277
  46.9450607   7.5380216  52.4241791  47.2985497   7.0206404  53.1477776
  47.2090950   7.0611176  51.6373634  29.9260674   7.4821043  78.2411957
  29.6430893   7.3005085  77.3449936  30.8351326   7.1838112  78.2704163
   7.8234591   7.5378036  15.8310299   8.6088600   8.0827179  15.7815685
   8.0976229   6.7670226  16.3279839  14.7082443  25.6930199  28.7795773
  14.9080610  25.0195274  28.1294136  15.5186291  26.1960163  28.8602085
  69.8869934  52.3225098  37.3404541  69.1123123  52.1078453  36.8208275
  70.3930740  52.9135742  36.7829971  84.7305145  64.7065659  85.6270599
  84.7159729  65.1320877  86.4843521  85.6574020  64.6773071  85.3898773
   3.2905540  71.7217178  33.4995041   2.9393210  70.8772430  33.2171364
   4.1864958  71.5283127  33.7753944  65.5154343  21.7665424  30.0571346
  65.7741013  22.4751930  30.6463165  66.2508163  21.1542969  30.0815487
  60.0753250  14.4566946  53.2292747  60.5320854  13.8320255  53.7926521
  60.6524506  14.5637865  52.4731712  16.7810097  55.5437698   1.4911149
  15.9416857  55.0846596   1.4597805  17.4339523  54.8458443   1.5439852
  22.6881428  64.4343262  16.1594791  23.2641296  64.7133942  15.4477234
  23.2366695  64.4782257  16.9426918  59.2437897  20.8300915   1.6133940
  58.3648796  21.0327435   1.2929631  59.8303146  21.1937561   0.9500900
  86.9561386  17.9596882  71.8007431  86.3301086  18.4832420  72.3009491
  86.7354584  17.0532455  72.0149689  74.2101746  10.1611032  76.1081696
  74.9792862   9.6067486  76.2400589  74.5124207  10.8544178  75.5214844
  49.8316422   8.8631220  53.0126877  49.0152473   8.9626369  52.5229645
  49.9269638   7.9179139  53.1298523   0.4140413  21.6747189  82.4234848
   0.8270290  21.3730812  81.6143570   0.4952256  20.9340649  83.0243835
  46.8169098  21.8937168  22.1435680  46.8084373  22.0000515  23.0948067
  47.7437820  21.9279137  21.9069901  62.2037888  65.7779388  59.2637405
  63.0472145  65.4158859  58.9921112  62.0939713  65.4782791  60.1661682
  42.0602798  30.7072811  18.8334732  41.2283020  31.1639690  18.7090721
  41.9407654  29.8669891  18.3909168  82.2209854  37.7532387  73.9298859
  81.8965302  37.8280373  73.0324631  81.8370972  38.5017929  74.3865356
  68.3155594  65.4309006  15.4465866  68.6768112  66.3007584  15.6171188
  68.4756317  65.2836075  14.5144310  10.1138830  26.3370018   1.5469270
  10.1162004  25.3879871   1.6718115   9.3281088  26.5083561   1.0278616
  20.1416168   8.3423843  76.8146667  19.6289272   8.7341833  77.5216904
  20.0167160   7.3994961  76.9223404  22.2277088  42.5134239   7.1356845
  22.7745228  43.2899170   7.2551975  21.3472748  42.8603363   6.9917440
  13.5837669  55.3714828  70.2063293  14.0752115  54.8082008  69.6084824
  14.1961775  55.5573196  70.9181213  25.9287720  22.7931290  82.5897369
  25.4807320  23.4401894  82.0449371  25.2510777  22.1533489  82.8080139
  70.3224792   1.6680076  63.4125328  69.3687363   1.6974151  63.3367348
  70.5794754   2.5787139  63.5567436  62.8720932  70.9267120  40.5328445
  61.9335136  70.7388535  40.5362816  63.2814102  70.1071320  40.8103027
   8.2088385   1.3710114   4.8394032   7.2673311   1.2108598   4.9038029
   8.3688602   2.1018727   5.4364514  57.8790321  53.7363548  54.2596054
  58.1748505  54.5284424  53.8109169  56.9514656  53.8933830  54.4362297
   3.4039159  61.8116112  46.5161972   3.1506782  60.9143066  46.7328568
   2.5782189  62.2954254  46.4966774  68.4745865   5.9116096  32.0282097
  67.9244537   5.6379347  31.2942581  68.7894592   5.0922966  32.4100647
  69.0181503  36.0996056  41.9040680  68.7126236  36.8538513  42.4080505
  68.2456436  35.5412064  41.8165474  74.2605438  43.5995331  45.4369278
  74.2576904  42.6807556  45.1684685  75.1514130  43.8992004  45.2558632
  40.5933075  31.7388783  23.6020641  41.1105919  32.5065613  23.8456078
  40.5442009  31.7763615  22.6468601  54.7383499  16.8402119  56.2066536
  54.7938843  16.6721249  57.1473427  55.3754883  16.2407188  55.8182068
  38.1711731   5.5049753  75.9157257  38.2451401   4.6010580  76.2218170
  39.0212593   5.8962841  76.1168747  38.1471138  64.4744034  36.3241119
  37.6227798  64.3801727  35.5288620  38.5340271  63.6094666  36.4597893
  38.9453278  20.3888664  75.4580307  38.4974060  20.2906208  74.6178284
  39.0273056  21.3351574  75.5765381  75.9799957   1.1400439  57.9564590
  75.4133911   0.3789427  57.8303146  75.9047546   1.6327258  57.1392479
  19.4975300  61.5647278  28.4662552  20.4184704  61.7682533  28.3029232
  19.0219193  62.0484619  27.7909584  74.5753555  33.8461609  34.6423340
  74.4933472  34.7002907  35.0665627  74.8751144  33.2610016  35.3380089
  82.9024506  39.2733307  26.8211021  82.9940720  40.1301193  27.2379398
  82.3885193  39.4446373  26.0319500  21.1870022  70.2582245  72.5912476
  21.5519447  71.1394348  72.5105515  21.3267841  69.8614349  71.7314453
  58.1861229  25.8344154  12.3826170  59.1062431  25.6038151  12.2544203
  58.0512009  25.7648602  13.3277044  14.4746475   6.0940924   1.4401672
  14.1780567   6.6770906   2.1390083  15.0621653   6.6337867   0.9112207
  39.8556328  30.6680717  87.8511658  40.5120239  31.3398724  87.6666031
  40.3649406  29.8748398  88.0173645  73.5597916  33.0044098  30.4777241
  74.4862900  33.0048370  30.2372513  73.1942902  32.2464333  30.0215302
  18.8959007   6.9537258  11.3744822  18.8040161   6.1358809  11.8632755
  18.8397446   6.6912327  10.4556923  70.6306458  12.2843933  65.8337936
  71.2906952  12.9226933  65.5633545  70.4621964  11.7660322  65.0469284
  71.2623825  59.7864952  63.5601311  71.7384949  59.0206184  63.2392235
  70.4382172  59.7774277  63.0734062  15.9885178  46.2516975  49.6928749
  15.1772528  46.0997276  49.2081223  15.7420073  46.8634415  50.3865891
  49.7429085  27.3001366  58.6868095  49.2610016  28.1166515  58.5552826
  49.6768227  26.8451195  57.8472710  28.3217278   2.7665443  27.2109737
  27.9970531   3.6115258  27.5221386  27.7894268   2.5750384  26.4388237
  72.3618088  64.3146591  47.7452812  71.9490356  63.9782562  46.9498634
  73.2944260  64.1356277  47.6252594  82.6724396  53.1228027  64.9923782
  82.4547043  52.2669601  64.6231155  81.8402405  53.5954704  65.0084457
  13.4750967  40.9585419  13.2323046  13.1394510  40.0901070  13.4545670
  13.9175444  40.8365479  12.3923111  78.1580734  17.4984875  13.3146839
  77.2847061  17.8385544  13.5091734  78.4301910  17.0616188  14.1217327
  86.1758575  30.7173729  75.5525589  86.2313232  31.3968124  76.2245102
  86.0664444  29.9031200  76.0437317  11.3706865  54.5743942  77.4010849
  11.9896812  55.0222168  76.8244247  10.6586809  54.3015099  76.8224487
  21.6862068  28.9298916  16.0357933  21.7636414  29.5879059  16.7266293
  22.1949577  28.1851215  16.3562965  37.8721466  52.5940781  39.8457794
  38.7655754  52.2864609  39.6928482  37.8860397  52.9351196  40.7400551
  46.8342514  71.3379517  64.1422272  47.2239952  71.1874924  63.2810059
  46.3772049  70.5215302  64.3442230  75.4740829  21.4018841  12.4712648
  75.7149963  22.3256474  12.4016037  76.3045731  20.9315987  12.3981276
  79.8277512  15.4966526  29.9024086  80.6499252  15.0088968  29.9510174
  79.9113541  16.1744442  30.5731106   3.7765470   2.8729556  54.7581596
   4.6271095   2.4596825  54.9064217   3.1825325   2.4198084  55.3565216
  46.1216965   7.1040840  25.5354538  46.9059639   7.6470351  25.6152077
  45.8410873   7.2204962  24.6277428  20.9982300  11.4517193  44.0011673
  20.3256874  11.6009398  43.3365974  20.5909309  11.7311621  44.8210754
  42.0154037  29.2447395   6.1046762  42.1248360  29.1858292   7.0537734
  41.3937798  28.5487423   5.8915925  62.4901237  52.0787582  87.4082947
  62.4857903  51.1229515  87.3568268  63.4106636  52.3199997  87.3051682
  33.8062134  44.0309601  65.4000931  34.0942688  43.3217239  64.8254318
  33.3808975  43.5870171  66.1337509  57.9635544  60.0178070  58.1190834
  58.6404495  60.6190758  58.4297638  58.4174995  59.1823006  58.0090942
  55.5771179   4.0015340  10.8989859  56.5097466   3.9196692  10.6996527
  55.1732483   4.2356963  10.0633488  52.0197754  53.8732491  30.2022324
  52.0101242  53.8110199  29.2471066  51.6195488  54.7220192  30.3910084
  54.0154762  68.6102676  44.7832489  53.7943344  67.6799088  44.8251839
  53.6994629  68.9691772  45.6124382  11.1200914  45.1059074  33.3550301
  10.8369150  44.2751617  32.9730644  11.1946554  44.9255943  34.2921333
  84.4947510   7.6900649  59.5239868  84.6463242   6.9521685  60.1145515
  85.0232162   7.4907937  58.7511635  35.2101555  36.5099907  81.5463715
  34.8562622  36.8025475  82.3862534  34.4376259  36.3218193  81.0134354
  33.8984909  66.1053391   8.9330244  34.1694870  65.3319626   8.4383793
  33.5201683  65.7537613   9.7389374  24.7425060  37.9884758  78.9426117
  25.4146404  37.9866753  79.6241302  25.1216717  38.5079231  78.2336426
  38.2309113  21.8459206   8.2060966  37.4442062  21.4722080   7.8090286
  38.8847885  21.8253231   7.5073471  17.2165947   3.2078578  75.2720718
  18.0073948   2.7061133  75.4698639  16.7162495   2.6437545  74.6824341
  39.2922249   8.0183401  67.3442001  39.9852715   7.3605728  67.2870865
  39.7108192   8.7717752  67.7605515  20.5018578  69.4120255  88.2848434
  20.7157021  69.9403839  87.5158615  20.7875328  68.5278549  88.0549164
  11.7479372  27.1469784  12.9451599  11.1190653  26.9670620  13.6440029
  12.5787077  26.8065319  13.2770452  85.4110489  61.8646584   6.2796745
  86.2380142  62.1403427   5.8842492  85.2922363  62.4557762   7.0231066
  37.0495110  68.6145325  19.0128155  37.0122490  69.2522507  19.7256680
  37.9571533  68.6460495  18.7104568   4.1775537   5.1703310  68.2228394
   3.5793233   4.6701655  67.6676941   4.2691879   4.6402965  69.0146103
  81.2081833  61.7862816   2.7916899  81.5983124  61.9842453   1.9403168
  80.5233765  62.4461365   2.9006002   8.4832172  17.2320881  71.2551193
   9.2653818  17.3714256  71.7890091   8.0172882  18.0674953  71.2902756
   1.3027101  49.9625435  75.5720215   1.9829700  49.2951622  75.4821472
   0.5711586  49.5046539  75.9860229  53.7935715  65.3126907  15.6748190
  54.4556122  65.3104858  14.9834929  53.7076836  66.2336273  15.9212580
  81.1569519   2.2240586  33.7777061  80.2430573   2.3119941  34.0484581
  81.5378799   3.0877714  33.9362106  59.0186348  67.1238632  16.5980701
  59.5374680  67.0015335  17.3931046  58.1125870  67.1527710  16.9054317
  63.6777229  17.1802158  76.4804382  63.7569656  17.9637928  77.0244598
  62.7357750  17.0766525  76.3453827  73.0132446  15.8049507  37.5610390
  72.4568253  16.3067799  38.1566887  72.9644089  14.9064665  37.8874931
  82.1417084  14.9344912  12.0896168  81.9288406  14.8973360  11.1571255
  82.3241730  14.0261164  12.3300161  28.4327774  44.7994690  26.1475735
  27.5325909  44.4743042  26.1349220  28.9564323  44.0675354  25.8215561
  55.2894363  63.8253136  47.8142700  54.5091591  63.6930161  48.3526878
  56.0107307  63.8609161  48.4425201  79.9340210  48.9988289  12.4631710
  80.4229126  48.9793968  13.2858734  79.3408966  49.7445335  12.5545826
  76.0035324  26.4500294  72.0761871  75.5997391  27.0156536  72.7344055
  75.7212143  25.5667839  72.3136826  33.9980621  29.8077526   4.9156508
  33.2321968  30.0890770   4.4151144  34.7190704  29.8366871   4.2867317
   4.2700620  30.8445721  71.3528519   4.8819137  30.1441307  71.5792389
   4.8082404  31.6359291  71.3340912  74.4892502  26.2736397  53.3410721
  74.2465439  26.1717815  54.2613716  75.2132645  25.6603317  53.2150192
  16.0738869  65.9561996  47.7122154  15.9959440  65.5711517  46.8393478
  15.5527210  66.7578506  47.6677704  33.0879135  60.6303368   2.3077664
  33.3635025  59.8304558   2.7555113  32.1546173  60.7064972   2.5062432
  75.9718018   4.4636207  10.9128265  75.5221252   3.8900628  11.5333576
  76.9004288   4.2646413  11.0323849  17.1187420  29.9023571  24.3851166
  17.7899494  29.7117596  25.0403938  16.8495731  30.8016109  24.5725250
  73.7995300  50.6152458  30.1332016  72.8933716  50.3130836  30.1949177
  74.0902481  50.3255272  29.2684612  11.1943293  26.4577408  10.1709080
  11.3938932  27.2654915   9.6976805  11.3985338  26.6585560  11.0842562
   8.7445698  65.5623474  21.8896294   8.8863039  66.2295074  22.5612278
   9.5128603  64.9946289  21.9500923   4.3830123  32.1568565  55.2829094
   3.9467835  32.6399307  55.9847488   5.1691542  32.6687012  55.0925789
  22.1648998  15.7662621   9.5678587  22.1250381  15.6069832  10.5108719
  22.3116341  14.9013834   9.1848640  54.8550491  26.3428860  83.3717499
  55.6181450  26.4413586  82.8023453  55.1950684  25.9109478  84.1553650
  32.7940178  61.3866768  44.5133247  32.0765953  61.6952515  43.9598656
  33.5868530  61.6275368  44.0341263  54.8354988  17.5397739  71.8795090
  54.7125168  16.6016445  72.0244980  53.9474487  17.8954334  71.8462601
  24.6067696  43.8075485  80.5457611  24.6602020  42.9533653  80.9744263
  23.7529068  43.8054352  80.1131592  87.0957489   7.1508136  38.4082260
  86.6209869   7.2711511  37.5858192  86.4101715   7.0814476  39.0726128
  84.8939209  43.6262016  13.2815266  84.9429321  44.4843102  13.7028103
  84.1676254  43.1844940  13.7215490  18.6028194  59.0731735  53.3511238
  18.9419460  58.1961021  53.1723213  19.3014603  59.6626129  53.0670586
  61.4682426  34.6586533  57.3669739  61.9210587  33.9129105  56.9731979
  60.5593681  34.5648422  57.0817032  45.2496948  60.0690842  62.7007217
  44.7864075  60.9014053  62.6067238  45.3215714  59.9404564  63.6465149
  46.6125031  11.9355545  75.8450928  47.1190834  11.7128439  75.0640640
  46.0723686  11.1624422  76.0087509  13.6561069  24.2871914  25.0840416
  12.7968016  24.0001354  24.7751312  13.5077505  25.1725979  25.4161205
  52.3535652  30.4475346  13.8504257  52.1729355  30.5627422  12.9175100
  51.8279839  29.6888733  14.1042480  52.2746544  66.3069839  72.3698730
  52.4204712  66.8851395  71.6210709  51.7730179  65.5742188  72.0125809
  51.8278961  41.3889656  62.5120354  51.8190384  41.9468918  61.7343025
  52.1763000  40.5527191  62.2029419   7.6951089  64.3206406  75.3139801
   8.0196209  63.6320915  74.7336197   7.6378222  65.0965729  74.7564087
   1.4819113   5.8540092   4.2354989   0.6316338   6.1665664   4.5446391
   1.2710088   5.1305981   3.6452208  72.7273331  32.2845650  68.6044617
  73.4289246  32.9357071  68.6074219  71.9346390  32.7857132  68.7960510
  37.2987137  49.0042763  40.0639992  37.8138123  49.2229309  40.8405914
  36.6386185  48.3874550  40.3802872  42.5916672  58.9793930  65.2157974
  41.9061737  59.0645561  65.8784256  43.2923737  58.4987183  65.6564713
  78.8450699  24.1723766  13.1435995  78.4664536  24.1002789  14.0197744
  79.4912415  24.8745308  13.2189436  51.5558243  37.6154060  78.1082306
  51.0638847  38.1342964  78.7446136  51.7975693  38.2406960  77.4250031
  44.8745613  67.3838425  78.8595581  45.4920273  67.8553009  78.3003616
  44.8687744  67.8776855  79.6795044  66.9846191  69.5792389  30.3786564
  67.7705688  69.8694305  29.9157162  66.2677002  69.7620087  29.7713242
  74.1070709  13.9439459  49.1604919  74.4194870  14.8444824  49.2480125
  74.4194946  13.5041304  49.9511795  76.0153732  38.5895805  57.4499207
  75.3139420  39.0370674  56.9766579  75.6307831  37.7538071  57.7141151
  86.3117447   1.4276775  75.8294754  85.6546402   0.9240959  75.3490067
  85.8395157   2.1982431  76.1448441  74.4207993  40.7595253  45.5907822
  74.0999451  40.0385170  45.0490913  74.0639038  40.5824280  46.4611244
  50.3509102  62.8755341  47.6895027  50.1108398  62.5556984  48.5591583
  50.8953323  62.1801186  47.3204117  57.2616005  58.4598198  83.3388824
  56.4032173  58.7854767  83.6097183  57.5091515  57.8386879  84.0238266
  30.5113564   1.0994425  41.5597076  30.9322834   0.8683621  42.3877487
  30.7966995   0.4204721  40.9483070  65.9528580  59.5063591  74.0578308
  66.2065277  60.1540527  73.4002762  65.0646896  59.7576065  74.3113327
  66.9725189   3.4649270  39.6950798  67.2391586   3.3270071  40.6039886
  66.1504974   2.9818256  39.6106873  67.7126541  65.7085571  78.2511597
  68.6067123  65.3734055  78.1835327  67.5950317  66.2379761  77.4624252
  79.0754547  36.3103867  78.2630615  78.7736893  37.0458641  78.7962112
  78.3781128  36.1781120  77.6208344  35.1513863  68.3029099  15.3654003
  35.2000313  69.1203537  14.8697796  36.0588341  68.0040436  15.4241142
  70.9350128  16.1627388   3.3919454  71.7906723  16.1639175   3.8209779
  70.8937302  15.3187685   2.9422331  43.1291122  65.8903122  76.5268936
  43.7575684  65.8674927  77.2485275  42.9161186  64.9711533  76.3656158
  31.8641071  42.5097542  17.4282169  32.2704086  41.9774704  16.7442436
  30.9334526  42.2909622  17.3808365  12.6280928  12.4509897   3.6318958
  13.1040125  12.4045477   4.4610972  11.7889709  12.0276766   3.8133156
  25.8628235  60.9938698   1.8076302  25.0739822  61.3681259   2.1999207
  25.6418705  60.0750275   1.6555148  83.3083191  23.6871796  58.8356819
  82.9920959  24.1760139  59.5954704  83.0660477  24.2288570  58.0845985
  16.0382175  64.5578995  42.4341202  16.6318913  64.7980499  41.7227058
  16.3247299  63.6843147  42.7005730  27.4375553  69.4980621  49.5589523
  26.9147530  69.5426941  48.7583809  28.3241825  69.3030853  49.2554550
  61.7641335   4.6889110  33.9318199  61.6686935   3.7569628  34.1282806
  62.3401642   4.7148609  33.1677856  18.3223743  15.7010098  71.6550369
  18.8848991  14.9811411  71.3694000  17.6151943  15.7226906  71.0103149
  55.4126244  49.0085030   9.4388103  55.5139275  49.2232742   8.5115328
  54.4922752  49.1913834   9.6278639  86.8398819  29.4595203  32.1769829
  86.9273529  28.6104031  31.7438755  86.4007263  29.2622871  33.0043068
  71.4897079  69.9474716  66.6980896  71.5191193  70.9041748  66.7071152
  70.5849762  69.7378387  66.4662628  29.5370293  61.9606934  38.0019226
  30.3363686  61.9963646  37.4765549  28.8546562  61.7019615  37.3825226
  83.5037766  67.6190567  88.7814560  83.9611282  67.0170593  88.1943893
  83.3092651  67.0946198  89.5582199  77.9721375  46.8190956  18.3262501
  78.0205383  46.7064781  17.3769321  78.0453415  45.9314079  18.6767921
  60.8431549   8.1223764   6.1154075  61.1841698   7.2689710   5.8477511
  60.8138657   8.0795469   7.0711999  80.0167160  65.5131454  15.3501625
  80.7247849  65.9282455  14.8576555  80.4277267  64.7571182  15.7693577
  51.8944778  54.3872147  77.3407135  52.7479591  54.4050598  77.7737045
  51.6843529  55.3084068  77.1874466   2.8373315  11.5981016  50.9962883
   3.4202926  12.2145462  50.5531349   2.5213759  11.0236282  50.2988739
  58.3336411  36.6276703  36.8129692  57.5269089  36.6655350  36.2991791
  58.0856552  36.1671333  37.6146202  67.5748444  71.0759354  39.9722061
  66.6360550  71.1883545  40.1214676  67.8176346  71.8112106  39.4094849
  86.2684631  48.9749527  10.4256353  85.6526642  48.3876076   9.9874048
  86.9887009  49.0746460   9.8030977  15.2061529  59.7658920  86.1959839
  15.6424923  58.9318810  86.3699646  14.8081236  60.0070343  87.0324402
  58.2584267  61.1910553  19.4767933  58.1970291  60.2544746  19.6646252
  57.8140755  61.2962570  18.6355362  28.3673668   8.9583254   1.4099463
  28.2023506   8.3149385   0.7207038  28.8094521   9.6801224   0.9629549
  52.0277328  63.5058327  23.8394413  52.1116028  64.3383026  23.3744850
  51.8410149  63.7548180  24.7446346  43.1855164   0.6033698   3.9082947
  43.7956085   0.1697097   3.3116724  42.7810783   1.2909379   3.3792267
  63.7705498  12.8257923  38.3481331  64.2675400  12.6324415  39.1430244
  62.9454346  12.3538599  38.4608078  78.3868866   5.5021319  14.9241819
  78.0300293   4.6259751  15.0698986  77.6379471   6.0875330  15.0365868
  51.5742455  33.9951324  45.1911011  51.2405701  34.6233025  45.8316422
  52.0918159  33.3778648  45.7081451  35.6602669   1.4988422  15.8294706
  36.4634247   1.9670709  16.0573521  35.2245522   2.0661469  15.1934271
  10.9756088  69.1807556  47.1528587  11.3985062  68.4775696  46.6599884
  11.2638855  69.9840012  46.7193565  64.3336334  26.1016350   5.4238091
  64.3459396  26.3929939   6.3355060  64.4182816  26.9071903   4.9137626
  32.2896347  41.3263664  78.9953384  32.5779533  42.2152519  78.7880020
  33.0375061  40.9301720  79.4424973  14.7853031  63.8639603  30.4366722
  15.4045553  63.1346054  30.4083710  14.0679102  63.5478821  30.9859219
  49.5644760  42.0647049  59.9360504  49.2132492  42.0141754  60.8250465
  50.0215530  41.2329636  59.8114738  68.1975708  39.4963303  66.4272156
  68.7161102  39.7294197  65.6571426  67.9797058  38.5731430  66.2987900
  73.2798080  61.7108383  87.8082962  73.9128876  62.1986961  88.3350220
  73.2433853  62.1850471  86.9776154  26.9530773  32.5006294  10.0716047
  27.8889332  32.4823112   9.8714266  26.6406269  31.6270542   9.8360825
  84.9188461  41.2660637  16.5810299  84.3680420  41.5269585  15.8429356
  84.6010208  41.7921944  17.3147907  51.1367989  70.2826538  43.9596634
  51.3805923  69.4881592  44.4346161  51.9713326  70.6657028  43.6893616
  31.2755394  33.3712997  79.8622131  30.5489750  33.5736122  79.2727966
  31.2871742  34.0972328  80.4860077   5.2280107  65.8810196  45.3264732
   4.3519650  65.8929291  45.7120018   5.3263927  64.9930725  44.9828110
  13.3273983  53.6993713  13.0810423  12.7008877  54.3313599  13.4336157
  12.9054165  52.8491821  13.2049084  38.5894241  26.3679276   8.1760092
  38.2759056  27.2534485   7.9921875  38.8886719  26.4035721   9.0845308
  53.5028648  18.5698109  75.2311783  53.9003029  17.8420277  75.7092972
  54.0786743  19.3141785  75.4060822  86.5327835  69.2487488  74.5936661
  86.8288193  68.4770660  75.0764618  86.1736984  69.8283920  75.2654648
  15.4704733  35.5708084  70.2651978  14.8691759  35.3170090  70.9653854
  15.7307997  34.7429810  69.8612595  14.1359463  55.9056053  77.4134521
  14.7829018  56.5216866  77.0697632  13.8824940  56.2722015  78.2605667
  21.6508732   3.0712318   5.7892256  21.9926357   3.8522761   6.2244263
  21.1019421   3.4115431   5.0827589  53.0026436  47.6192284  30.9261742
  53.6960182  47.4191628  31.5550117  52.2839050  47.9559326  31.4612217
  72.4093170  65.3787384  17.1809883  72.1608124  64.9272308  16.3743801
  71.6870804  65.2053909  17.7847652  21.8707829  28.7695923  73.9100494
  21.9143467  28.1949615  74.6743317  21.0270538  28.5670643  73.5058975
  52.2365494  63.3127327  71.6821518  52.4746246  63.5967064  72.5647049
  52.1358986  62.3636246  71.7549210  28.6038628  61.6409187  78.5809937
  28.3169613  62.2882614  79.2250900  29.0713329  60.9825096  79.0950012
   5.2746773  49.4850502  27.8515644   5.2347217  48.6167526  28.2524319
   5.7906313  50.0084572  28.4648075  57.9386520  33.1135826  26.4559784
  57.6932945  33.7571869  25.7912922  58.4977608  33.5979156  27.0634766
  38.7695389   4.5176868  61.5624199  39.0284424   4.1506662  62.4076996
  38.0141830   5.0704980  61.7625885   0.7053699   3.8492768  12.8571358
   0.6604370   4.3935308  12.0710058   0.4202256   4.4270177  13.5650482
  35.6428490  23.2422981  23.7383251  35.8726616  23.5366898  24.6196613
  34.7566376  22.8914547  23.8264713  24.7211609  38.8751564  13.8490782
  25.2561245  38.1024361  14.0305948  23.8223763  38.5462036  13.8345747
   0.7801098  21.9346752  34.9372368   0.0755955  21.7235775  34.3245964
   1.5651586  21.9837170  34.3917770  48.7250061  30.0438347  70.2743683
  48.8041153  30.6265144  71.0296555  48.5869446  29.1762981  70.6545715
  13.0095768  44.4002800  39.4865456  12.1157942  44.3031044  39.1580009
  13.4912033  43.6750755  39.0886154   6.9113250  29.2680950  65.8210983
   6.5143747  29.9972496  65.3446579   6.4689503  29.2674942  66.6699448
  61.4346123   9.9236774  43.0129128  62.0089569  10.3397188  42.3700523
  61.7795753   9.0353365  43.1028252  24.1836300  47.2520828  78.9762573
  23.6259937  47.3561134  78.2052536  25.0738201  47.3740387  78.6462326
  53.0569763  53.3185577  26.4939690  52.1031723  53.3707924  26.5552940
  53.3126183  54.1244164  26.0451107  23.0623837  65.2359772  36.0056648
  23.1702118  64.3401794  36.3252716  23.9535751  65.5344238  35.8241653
  70.1504440  48.9946976  20.1381397  70.7858658  48.6869164  19.4918098
  70.4648209  48.6411858  20.9702625  73.7814560  43.0913658  84.0583496
  73.7914352  43.1348724  83.1021957  73.6181488  43.9923058  84.3374176
  73.5682297  50.5696754  19.1722641  73.9169388  49.6887970  19.3089352
  73.2536392  50.5651436  18.2682457  66.4982986  31.7285709  58.1515961
  66.3455963  32.4840584  58.7191811  67.2932053  31.9501705  57.6665688
  80.8265991  11.2938662   1.7595575  81.4544754  11.7494745   1.1988238
  81.0926208  10.3752308   1.7198790  62.6472855  59.1833229  71.2198105
  62.9626923  58.3732567  70.8191299  62.7051392  59.8346329  70.5207596
  39.1095428  40.7444458  19.8565369  38.3153458  40.4263420  20.2858334
  38.7936592  41.2033844  19.0781879  47.5512772  69.9797211  57.6283493
  48.1889725  70.4359589  58.1773720  46.7027473  70.2024384  58.0112686
  13.7913132   6.2894487  16.3177414  13.7513514   6.7572045  17.1519108
  13.4786854   5.4081292  16.5221214  30.3749962  46.4172096   6.0018106
  30.7784328  46.8109970   5.2282481  29.4923630  46.1801720   5.7171946
  74.1220322  54.5695152  44.8382568  74.9900055  54.2174416  45.0354500
  73.5152283  53.8927193  45.1382065  43.7047997  24.9083233  16.1067142
  42.7923393  24.7717457  16.3616543  44.1298637  25.2306633  16.9014778
  73.0324631   2.5598242  16.8010788  73.6098251   2.1530318  16.1550140
  72.4123611   1.8696382  17.0363464  48.2776489  39.4163361   2.9830053
  49.0699501  38.9048729   3.1469793  48.2503510  39.5172577   2.0315316
   7.6802106  58.3086014  59.8498001   7.0640631  57.6810074  59.4720154
   7.5592275  58.2234039  60.7954941  52.5763969  25.9480934  18.4430313
  52.1965065  25.4868450  17.6952572  52.8623428  26.7888241  18.0857658
  43.1179771  25.5281277  78.3769760  42.7928238  26.3497868  78.0090256
  44.0706024  25.6208515  78.3652802  14.1142931  58.1965675  72.5373001
  14.4300213  58.7576294  73.2456512  13.4454603  57.6475906  72.9465866
  40.1534882  67.9281616  47.1753502  40.1484146  67.6636810  46.2554283
  40.6178894  68.7651367  47.1813774  64.4145889  38.6033287  34.0581093
  64.3989334  39.4093666  33.5420761  63.5049515  38.3054237  34.0646477
  75.1110382  50.1354904  51.3477821  75.3419571  49.4380302  51.9613419
  74.3696671  50.5802078  51.7586708  66.6347427   8.5263557  86.1708374
  66.2837524   7.7400517  86.5888824  65.9443359   8.8066778  85.5700226
  45.4404030  40.8525505  41.1551895  46.1056862  40.2444000  41.4773445
  45.2897263  40.5845146  40.2487221  62.3281288  62.5583191  66.4357376
  62.4840546  62.2209244  65.5536499  62.9337959  62.0669327  66.9906616
  55.1647987  61.9706612  43.6761971  55.5450325  61.7502174  42.8258667
  54.2286148  62.0678520  43.5019875  79.9858475  65.6097794  30.7156372
  79.8557053  65.0036621  31.4449654  79.2063065  66.1651917  30.7237740
  60.5963173  26.6354733  54.9180260  60.8184204  26.9422703  55.7971039
  61.3477058  26.8852692  54.3802071  72.9297409  54.2105446  75.7225494
  72.6706009  55.0732460  76.0463181  72.1284790  53.8447456  75.3478394
  57.5718994  24.2373314  65.6407089  56.9660873  24.3551178  66.3723831
  57.0212097  23.9290123  64.9210434  14.0567446  53.8280678  47.5054779
  13.7030973  53.6637230  46.6313210  13.4026003  53.4625969  48.1010933
  50.3408508  22.0193233  51.7891769  50.5490074  22.2513008  50.8841400
  50.8685684  22.6182728  52.3173866  28.4676647  47.7357788  44.7204437
  27.5915565  48.0733223  44.9068031  28.9641228  48.5027618  44.4349670
  55.4980698  44.8176041  74.9908218  54.9509735  45.5745773  75.2003632
  54.9500618  44.0609779  75.1992416  14.4340925  49.2240372   1.1429461
  14.9320917  50.0128632   0.9285065  15.0750618  48.6382408   1.5457263
  57.3130074  59.5462837  72.1975632  57.7614288  59.5137978  71.3525238
  58.0186539  59.6147003  72.8406906  46.0202675   4.4761410  63.3857956
  46.7038918   4.0415606  62.8758621  46.1725464   5.4103556  63.2433662
  72.9297104  66.5792694  52.4618950  71.9934006  66.7668228  52.5280380
  73.0364990  66.1972351  51.5907631   7.9994702  15.0599537  22.7141666
   8.7562065  14.4897041  22.5785275   7.4486089  14.9139118  21.9451065
   6.4146938   6.6979127   2.1903572   6.7500930   5.9041295   2.6070676
   5.8792529   7.1148677   2.8654003  54.0666389  51.0313110  35.2020798
  54.3446617  51.8801918  34.8580780  53.2606087  50.8321915  34.7257385
   9.3097963  70.9665604  11.0271111   9.3745937  71.9215240  11.0356684
   8.4073191  70.7901077  10.7613478   2.8116319  24.1053295  85.9952011
   2.0887868  23.6796398  85.5342102   2.9688439  24.9106827  85.5023270
  22.0905647  71.6305161  37.4505882  22.8629894  71.4132690  36.9286728
  21.4487267  71.9396362  36.8112793   7.5560327  64.2911148  17.9511166
   7.2476506  63.4949074  17.5184631   8.4234104  64.0618134  18.2847462
  64.2423477   6.9792600  62.1014023  63.4748878   6.7129512  61.5951271
  64.5337753   7.7907009  61.6856308  80.1558762  40.5248413  21.7980747
  79.7090454  41.2265129  22.2716084  79.4665298  39.8894196  21.6050110
  13.8656435  65.3746109  81.6594162  14.5269575  64.7842026  82.0204163
  13.1455336  65.3413696  82.2891541  71.0119934  50.5556145  30.4657154
  70.5817413  50.8768806  31.2581177  70.6339798  51.0789223  29.7589722
  37.5415955  41.0555992  65.9306946  37.5703697  41.8025208  65.3327713
  36.6468315  41.0553398  66.2707367  41.7524147  25.3971767  21.8603268
  42.2285881  26.1332054  21.4759350  41.0140724  25.8013763  22.3160744
  46.3944435   1.4888846  61.0038223  47.1835594   1.6806155  61.5105438
  45.6798363   1.5624444  61.6364059  20.8302460  38.4179268  20.2207966
  20.6364155  38.0099907  19.3768482  21.7428017  38.1870308  20.3944683
  52.2885056  66.3454742  22.6660728  52.0311241  66.7327499  21.8294106
  52.5780296  67.0887985  23.1951008  61.9535789   4.7837129  30.5363350
  61.1187897   5.2303081  30.3952198  61.7469940   4.0777512  31.1488495
  45.7380753  11.8966331  22.4003201  46.5835114  11.7332468  21.9822559
  45.5970306  12.8375893  22.2957325  55.5649414  41.1668510  64.3798599
  55.4869537  40.7525253  65.2392044  55.2085037  40.5213585  63.7695084
  46.8390770  61.3122673  73.3892365  47.3619652  61.7779846  74.0418625
  47.1546745  61.6437416  72.5485458  85.0381927  28.3893166  26.6765003
  85.9759827  28.4578857  26.8556309  84.7012711  29.2733440  26.8221264
  45.9168892  52.3634377  21.3049107  45.8641853  53.3190422  21.2882614
  45.1846352  52.0927887  21.8587933  44.9817123  49.0320511  73.5930862
  44.0302963  49.0025673  73.6939392  45.1184311  49.3748245  72.7098846
  74.8787384  14.7275114  24.1714306  75.6552734  14.8300161  24.7216244
  74.5107803  15.6090126  24.1098461  68.0455856  51.1165276  35.3561707
  68.4749069  50.2647209  35.2765083  67.1387634  50.9528580  35.0970993
  45.5198326  58.6823158  77.8433533  45.7089958  57.7687035  77.6294327
  44.9532280  58.6356316  78.6134262   3.9260492  49.2414284  17.3689213
   4.1637855  49.9462624  17.9713516   4.6648951  49.1848335  16.7630043
  51.2419472   2.8713193  76.0071030  51.8484764   2.1360662  75.9190063
  50.5336456   2.5331919  76.5550156  62.7997093  36.2852669  26.9620342
  63.3746643  36.9774590  27.2884235  62.3990860  35.9157791  27.7489357
  54.1738129  45.9521103  63.9986877  54.4051285  45.1363564  63.5545349
  54.2456665  45.7460823  64.9306870  63.6795120  32.7713394   3.5846069
  64.3634567  32.1744614   3.2809846  64.0880127  33.6366119   3.5588942
  60.7361565  61.8028603  75.1173477  60.8622742  62.7465668  75.2160950
  61.1153717  61.5986900  74.2625198  75.5494232  40.0813522  30.5195255
  74.7272034  40.0510635  30.0303631  75.7608566  39.1634293  30.6896496
  31.0064716   5.1233487  41.9906845  31.1992168   4.7179956  42.8361282
  30.3237915   5.7660613  42.1833076  37.8800812   4.4104171  50.8890343
  38.4557304   4.9072976  51.4703865  37.0462646   4.8795218  50.9193687
  68.2383423  55.6349411  47.4246140  67.5336761  54.9871712  47.4327888
  68.2265015  55.9905281  46.5359955  63.3054581  18.3215885  37.3549500
  64.1159210  18.4684525  37.8426132  63.3261490  18.9732876  36.6541710
  58.8842278  16.1867599  76.0432892  59.0842857  16.7509727  76.7901993
  59.2350883  16.6571217  75.2870560  46.3030434  63.1393661  59.8550682
  47.2535057  63.0266113  59.8431015  46.1161041  63.5050583  60.7196808
   2.6466758  44.1252670  28.7822304   2.2519231  43.9233742  29.6305466
   1.9579110  43.9334183  28.1458111  79.9652557  24.9878635   6.5999899
  80.2457199  25.6858177   6.0080166  80.4719238  24.2233810   6.3259749
  44.4741058   6.6575379  27.6237106  44.5695953   5.7867751  28.0095673
  45.0539780   6.6469793  26.8622189  49.7929306   4.5011630  50.4155235
  50.0650940   4.4392314  49.4999237  49.5901375   3.6000125  50.6665916
  63.8075027  55.2032967   4.9899573  64.7123184  54.9959335   5.2235146
  63.8791008  55.9460564   4.3904457  45.6749763  26.2338428  78.6217117
  46.1446915  25.6817741  79.2468719  46.3491859  26.5305977  78.0104752
  84.2896423  26.2087994  46.1440086  84.8618240  26.9684219  46.0353279
  83.5093765  26.4214630  45.6319618  67.9745712   0.0205318  42.6514473
  67.3368835   0.6948969  42.4173126  68.4216003  -0.1820339  41.8296471
  64.6325989  48.7649803  19.4061871  64.9883270  49.1182594  18.5907841
  63.6985092  48.6514282  19.2306442  82.4711380  13.4035282  25.0941753
  82.1439362  14.2981539  25.0002880  82.7043457  13.1391659  24.2042542
  61.5391655  43.1573524  37.1109924  61.4916611  42.7272606  37.9648056
  61.2184792  44.0448074  37.2716713  75.2730331  63.3568878  89.1211319
  76.0074692  63.8844643  88.8072891  74.6175461  63.9981384  89.3956680
  15.2556925   3.0698698   2.1847377  15.1212931   3.9892333   1.9546524
  14.8459015   2.5818453   1.4705001  50.4148903  68.7117233  23.5119858
  49.8096733  69.2746277  23.9947720  49.8874321  68.3466873  22.8015175
  76.5596542  30.0376225  59.1209221  76.9750748  30.8992043  59.1574516
  76.2888184  29.9408283  58.2079544  15.8174982  28.1689148  32.4543266
  14.9502821  28.5441742  32.6071281  15.7031822  27.2311153  32.6082573
   3.2487295  19.5691128   4.8191252   3.3604653  18.7492466   4.3379097
   3.0137053  20.2103596   4.1484566  58.4903107  50.1421127  34.6126175
  59.0257683  49.4645386  35.0254326  57.5925369  49.8199844  34.6930275
  62.3475609  19.2261677   9.6618509  63.2552452  18.9816952   9.8423300
  62.3322945  20.1783848   9.7581873  26.3698082  60.0607300  77.6258011
  27.2446384  60.3779602  77.8500137  26.4438305  59.7781487  76.7142639
  62.3710899  22.9867935  33.5978737  62.3567619  22.9573593  32.6412315
  62.1607819  23.8955555  33.8127136   6.8989363  46.3465958  82.4449081
   7.8410439  46.3725128  82.6122208   6.4996986  46.5448380  83.2919846
  73.9741516  44.8521461  62.9767570  74.9002686  45.0496597  63.1164970
  73.5085754  45.5016212  63.5036888  54.5515900   6.5479050  19.1789131
  54.1891212   5.7673984  19.5980282  55.3763313   6.7054205  19.6385078
  79.2921143  58.5848503  55.7539673  79.8459854  57.9228325  55.3402100
  79.6322708  59.4186134  55.4293671  72.7723389  68.1523590  79.3293610
  72.1252747  68.7512589  78.9567261  72.3025513  67.6965332  80.0277557
  74.7359543  62.0349274   8.9154167  75.4744797  62.6222687   9.0761509
  74.6366272  62.0300140   7.9633961  74.2155533  34.6376801  14.8698034
  75.0178070  35.1557579  14.8048067  74.1758347  34.1532173  14.0452137
  36.0268326  59.7224922  48.9851265  35.6173553  59.7438393  48.1201935
  36.8395424  60.2166367  48.8776245  40.8516006  20.7851276  21.9427242
  41.4780922  20.9918442  22.6362724  40.8073769  21.5821838  21.4145412
  25.8147449  60.2001114  15.7368183  26.2385674  60.4831200  16.5470734
  25.7201977  61.0022583  15.2231493   3.2452106   3.5527875  22.2953529
   2.4892178   3.7785928  21.7533951   3.8306539   3.0792115  21.7044086
   8.3222790  35.7029839  20.8785324   8.8452749  36.4050713  21.2655487
   8.7786522  35.4843597  20.0660305  46.7327309   6.9361377  19.3838673
  46.6725998   7.8505325  19.1072826  47.6589622   6.7161655  19.2841663
   5.0235772   0.1925989  77.9597321   4.5084500   0.9710048  78.1717682
   5.5903745   0.4692937  77.2397232  59.7226906  27.6062489  51.6232224
  58.7884102  27.5402431  51.8206978  60.0980339  26.7956486  51.9671326
  51.4577026  49.3009109  56.2924728  51.7173958  49.1030617  55.3926697
  50.5125122  49.4437485  56.2430649  34.5332527  20.3041286  22.7250938
  34.2899094  20.1948700  23.6443748  35.4813919  20.1734886  22.7111549
  37.6813469  61.8668518   1.0123296  38.5240822  62.0745125   1.4159409
  37.6525040  62.4103279   0.2249074  43.2946281  48.0870590   0.2088333
  43.4325409  47.8074875  -0.6961818  43.1990547  47.2708893   0.6997158
  46.0717010  42.1285057  70.6216507  46.5033798  42.9727325  70.7526779
  46.4385529  41.5637856  71.3019028  55.2363281  47.0681572   1.7995548
  55.4591751  46.7114372   2.6593926  54.6207314  47.7769051   1.9865069
  71.6175079  42.8998756  31.6198635  71.9487991  43.5208206  32.2686348
  70.6652298  42.9563484  31.6987133  81.8576965  67.9651642  47.3001099
  81.7555008  68.5479202  46.5476608  82.6622162  67.4791412  47.1191101
  64.3021317  49.5551987  32.1993904  63.6150856  50.2215958  32.2098999
  63.9797516  48.8883553  31.5930710  38.8802109  35.7340889  80.5612030
  38.4849281  35.9152794  79.7084656  38.4381638  36.3336182  81.1623535
  24.1522694  32.4654655  10.8345737  25.0545025  32.4959831  10.5163345
  23.9811802  33.3511162  11.1548586  68.5547333  13.5325279  75.9247284
  67.7480545  13.4778061  76.4370880  69.1630249  14.0129976  76.4862976
   4.1460385  36.9523354   8.3116407   3.9298136  37.4582100   9.0949478
   4.4375420  36.1045074   8.6469669   8.2317200  11.2492867  49.3759346
   8.4521275  11.7463484  48.5881653   7.7250147  10.5034790  49.0546036
  58.7351036  11.5492811  58.6680984  58.2553024  10.8733320  59.1467552
  59.5854416  11.1519070  58.4803467   0.5110242  28.8394260  17.8831482
   1.3463179  28.7160530  18.3340321  -0.0956575  28.2559795  18.3389549
   5.0424914  33.8207397  41.5095673   4.3555541  33.7746353  40.8445702
   5.4429750  32.9513893  41.5008965  77.9370728  13.6699200   5.0768757
  77.4501724  13.8076687   4.2643571  77.8184280  12.7404795   5.2725649
   1.8477597  69.2597961  37.8405342   1.4054486  68.5550079  38.3136902
   2.2634854  68.8245163  37.0962639  67.4004745   9.4933681  72.5416489
  67.3521881   9.1041460  71.6684875  66.9292603   8.8788013  73.1042252
  56.1382332  58.1187859  37.7401199  55.6220627  57.4994659  37.2241325
  55.7080269  58.1352425  38.5950356  32.5346069  13.3878632   6.3041759
  32.0202484  13.3410540   7.1100755  33.2357521  14.0083485   6.5032382
  65.2065811  29.8216610  20.5157127  66.0923233  29.9497643  20.1761723
  64.6347733  30.1623058  19.8277969   5.4004002  68.0318451  43.3302345
   5.4674473  67.3650742  44.0137177   5.9917822  67.7288818  42.6412392
  78.4627762  19.4117432  33.7551765  79.1045380  19.4405117  34.4647827
  77.6474533  19.1456833  34.1802559  10.1683226  61.2072220  77.8106155
  10.6154985  60.3871460  78.0197678   9.5266714  61.3159180  78.5125427
  61.8872185  26.9082718  37.5469856  61.0368118  26.5114746  37.3583374
  61.6753235  27.7727108  37.8992348  20.5739536  42.1002541   2.5198007
  21.5195694  42.1821785   2.3959908  20.2250252  41.9922028   1.6350368
  17.7800980  59.1273308  13.6796560  17.4927139  59.9623795  14.0488882
  17.3716183  58.4654846  14.2376328  79.4948425  15.0267572   1.6628433
  80.3504486  15.1707258   1.2585682  79.6899796  14.8680201   2.5863988
   1.2985469  24.4749451  21.1389732   0.7213085  24.6812611  21.8741341
   0.7038023  24.2583523  20.4209213  76.2441254  36.3881798  14.9727068
  77.0188217  36.1231766  15.4685335  76.0638428  37.2803841  15.2688503
  79.6600494  69.3525162  34.2315445  80.1898651  68.7533798  33.7056580
  78.7557068  69.1089706  34.0338631  29.3667641  68.4719772  20.2204723
  30.0723972  69.0675735  20.4726257  29.8126907  67.6582947  19.9853020
   6.2851996  42.1201363  46.4415092   6.0827498  42.5922546  45.6338272
   6.6748405  41.2970734  46.1465836  30.9085979  23.7412987  20.1002522
  31.1634331  24.6330891  20.3368950  30.2247200  23.8547897  19.4402046
  54.4110565  44.2084427  10.1621275  54.6259308  44.2061996  11.0948963
  55.0351410  43.5970039   9.7711086  48.1749649  13.6733408  53.5947227
  48.3386650  14.5271511  53.9952736  47.8492432  13.1304703  54.3126564
  58.9506073  27.8564072  68.2911758  58.5128288  28.6707706  68.5389557
  58.5614281  27.1924877  68.8603668  41.1493721  62.3879509  64.1823730
  40.5393143  62.4235687  63.4456291  42.0159607  62.3856316  63.7758636
  28.3553944  30.5788288  71.8019562  27.5178909  30.2711639  71.4553070
  28.9966946  29.9489632  71.4729614  59.9285622  53.9462395  40.9633904
  60.7154541  53.7069016  41.4530373  60.2032547  53.9316139  40.0465698
  24.6674862  43.5859528   4.0241222  24.4232769  43.3359528   4.9152422
  24.1367054  44.3606300   3.8387208  82.1144562  21.4110489  12.0745630
  82.0621109  20.9305477  11.2483597  81.2382202  21.7771473  12.1946449
   4.5243464  47.5980034  29.5811138   4.2209764  46.7293625  29.8450527
   3.7875051  48.1778107  29.7737713  12.2210360  64.2974854  61.8841629
  11.4574060  64.8654480  61.7816238  12.8739796  64.8494186  62.3145866
  77.4001694  66.5648880  33.9448967  77.2741699  66.5450974  32.9962349
  77.4696732  65.6439819  34.1965446  35.6485252  55.0430679  60.7091255
  34.9983215  54.9931679  60.0084305  35.8424492  55.9769363  60.7898560
  62.7278938  12.2782450   1.1801411  63.4022408  11.9811258   1.7910507
  62.0030823  12.5562420   1.7401414  51.2826729  53.8045235  21.2035980
  52.0521622  53.2517128  21.0674973  51.4207153  54.1994247  22.0645428
  86.0158539  32.9553757  23.8960800  86.5617218  32.4530182  23.2911835
  86.6151657  33.2248917  24.5920830  35.2103920  33.4977875  80.9130936
  34.6320992  33.4653740  80.1510162  35.2943192  34.4306297  81.1105652
  77.2136078  66.5381622  63.0882378  77.0889053  65.6236115  62.8347015
  78.0507889  66.5460663  63.5522270  70.2293854  40.5551376  18.6927299
  69.8120651  40.5263481  19.5536880  71.1146011  40.8753166  18.8662300
  63.2739944  65.9627228  35.1155586  62.5250320  65.7400055  34.5626717
  63.2870331  65.2808685  35.7872276  51.5392342  15.4599113   3.5361445
  52.0044746  16.0518379   4.1272492  51.8796997  14.5912838   3.7501600
  49.5750351  51.5677834  43.8916016  49.0344810  51.4519882  44.6730270
  49.3336906  50.8366318  43.3229179  77.5069733  41.2341652  46.0979004
  78.1727753  41.3813705  46.7696609  76.6785660  41.2351379  46.5774651
  81.1195984  45.6400604  55.0302544  81.9851837  45.3248253  55.2902794
  80.5077286  45.0479622  55.4675903  30.6785831  14.6621771  10.4392223
  30.7852077  14.3082104   9.5562887  29.7614307  14.9331789  10.4794788
  76.6267929   2.0134361   4.0979705  76.3516541   2.3892252   4.9342194
  76.2402954   1.1377707   4.0901546  66.8289490  23.4553986  31.7397423
  66.9569626  24.4039783  31.7335854  66.2968903  23.2905693  32.5181885
   7.3159575  65.8654022  34.1812668   7.7079663  66.5212479  34.7578278
   7.8694825  65.0917206  34.2873688   8.7346592  68.1950760  14.5873117
   9.0603790  67.4904251  14.0273027   8.6452932  67.7925797  15.4511671
  21.6427212  47.9529457  88.4857712  22.1459274  48.4791679  89.1071396
  20.9583931  48.5435104  88.1708679  85.8049622  27.1166611   8.0418959
  86.2422256  26.9602890   8.8789062  84.8790359  26.9530582   8.2211351
  62.0512085  56.8848000  75.3302612  61.7620125  57.0446854  76.2286148
  62.4488831  57.7111626  75.0560074  34.4023094  29.9967346   7.7094507
  35.0595322  29.3713474   8.0147057  34.3929214  29.8892269   6.7583537
  51.8143196  49.2403870  26.3593521  51.3609924  49.8595428  25.7871876
  52.1880493  49.7843857  27.0526199   6.7130041  15.2068825  79.9318542
   7.2679067  14.7812605  80.5854263   6.8014417  16.1422081  80.1150894
  11.2484665  58.6530991  43.6584473  11.9808550  58.0368385  43.6664543
  11.0368652  58.7616005  42.7312546  54.0791359  65.6313171  81.6817322
  54.2664948  65.5453949  82.6164780  53.1238403  65.6639252  81.6309433
  45.8708763   7.7872429  39.4414024  46.6691780   7.4825435  39.0100021
  45.3324280   7.0010238  39.5317497  67.5243073  45.4056435  57.2890472
  67.2877655  45.6510162  56.3945808  66.7572861  45.6386642  57.8121185
   7.6838055  52.7151375  53.3468933   8.2132969  52.3092537  54.0332794
   7.2839518  51.9779816  52.8854294   0.2953297  42.5216217  67.6244431
   0.9385654  43.2092476  67.7966385  -0.5199475  42.8576050  67.9968262
  17.7042542  25.3553562  77.0368500  18.5576420  25.0351677  77.3291550
  17.1173096  25.1780472  77.7718964  52.0199509  62.1532326  55.9181862
  52.6692009  62.8519440  55.8374710  52.4756012  61.4562531  56.3902397
  73.4079666  39.2414665  69.7221222  73.7222672  40.1419144  69.6406174
  73.8165359  38.7780724  68.9909821  27.0091686   8.1595354  46.7159309
  26.5151367   8.8911972  46.3460197  26.6451950   8.0442019  47.5936852
  17.1435432  12.3772421  68.4476700  17.4352856  11.7082462  69.0669937
  16.3168011  12.0400286  68.1026840  16.9488525  38.4060059  79.1919708
  17.2228279  39.3228683  79.2150497  17.2825108  38.0356827  80.0091400
  11.2631559  60.3729248  47.1393471  10.9879942  60.5634422  48.0361328
  11.3270702  61.2314491  46.7209206   5.2063727  41.5943069   0.8604975
   4.9395299  40.6767540   0.8046356   4.9804420  41.8555260   1.7532201
  64.5066071  21.0042801  12.5386400  65.0705032  20.3146725  12.1883707
  63.6178513  20.7146626  12.3325529  29.4237652   1.8745534   5.1989336
  28.6758461   2.1517758   5.7280803  29.3073330   0.9300621   5.0959215
  57.4420471  33.8583641  78.8603668  57.4111328  33.5844650  79.7770233
  58.3561554  34.1015663  78.7137604  78.5285873  13.1770468  87.5070267
  77.9270935  13.8611736  87.8009720  78.3480988  12.4351835  88.0843430
  49.2869263  35.8274651  49.1562729  49.4607162  35.5705299  50.0618172
  49.0503807  36.7533493  49.2112045  51.0121117  65.2213440  29.8453827
  51.8834000  65.5012665  29.5648003  50.4193764  65.8744659  29.4734478
   2.5497169  70.8840942  59.6828156   3.0497694  70.1694870  60.0771713
   3.2144365  71.4725037  59.3248253  60.4849968  70.2760315  52.9136696
  60.4195251  69.7121582  53.6843758  59.7126694  70.8393555  52.9627457
   3.2815659  21.7172146  53.6229134   3.5153196  22.6434708  53.6832504
   3.1804368  21.5563354  52.6847649  20.1243515  41.1714478  10.5982332
  20.2994728  41.7009735  11.3761578  20.6416187  40.3765907  10.7281313
  24.6924133  16.8731804  14.5674992  25.0507240  17.2019424  15.3919754
  25.4394283  16.8623657  13.9690971  57.3450890  56.8865700  46.4500351
  56.5579147  57.3555412  46.1731606  57.3431854  56.0853348  45.9263458
  82.7888718  16.1614780  61.3708153  83.6390915  16.1923389  61.8094673
  82.1646576  15.9722204  62.0713654   1.8842238   0.9815089  56.9067917
   1.5026354   1.6373323  57.4903297   1.2281644   0.2856411  56.8669662
  74.7473526  23.5489082  82.2561493  74.9817963  23.3107548  81.3591843
  73.8279572  23.8097515  82.2021866  41.1678505   4.9182763  33.6291161
  41.4294472   5.5387754  34.3093948  40.2177658   5.0170445  33.5673637
  26.1533604  53.3337631  65.3326416  25.3366146  53.1171227  64.8829498
  26.1357880  52.8039131  66.1296234  24.4050636  44.0737801  40.2473183
  24.0029984  44.2203522  41.1035271  23.9739799  44.7033463  39.6693497
  25.2288990  61.3358536  12.0856304  25.6416779  61.5527153  12.9215832
  25.1609802  62.1735992  11.6275902  52.2083549  60.0275307  85.2245789
  51.3545456  59.6686668  84.9828033  52.5947609  59.3628807  85.7948074
  32.1505814  39.1646233   2.1846611  31.7099972  38.7697754   2.9371302
  32.2689438  38.4408760   1.5695069  14.0822945   3.3473194  86.3626938
  13.8529081   3.9359984  87.0817719  14.9241590   2.9714990  86.6200943
  65.5054626  32.9872665  11.7158670  66.2856522  32.4622421  11.5373039
  65.7310028  33.4937057  12.4961758  62.4609680  21.0234795  53.4893150
  62.4095001  20.5244350  54.3045044  62.1727486  21.9042130  53.7290497
  81.4667587  19.1892757  22.5641022  80.5150833  19.0980663  22.5169392
  81.6537094  19.2684975  23.4995193  81.5731506   3.1853766  41.8936424
  81.0075531   3.8206854  41.4546509  80.9926605   2.4545536  42.1061478
  60.0254021  23.7094059  80.2770844  59.5395775  24.0948448  79.5479431
  60.6262703  24.4002132  80.5563278  19.1830750  53.7990723  78.6368713
  19.8811245  54.0549355  79.2397766  19.5898705  53.8332939  77.7710953
  57.6560211  44.8163490  58.4898758  57.4950562  45.7459526  58.6515961
  57.7163277  44.7459068  57.5371780  65.7643433  57.0320396  63.1976471
  66.4964676  57.3046761  63.7507210  65.6313477  56.1091690  63.4141045
  64.0503311  50.5220222  38.0745506  64.8206787  51.0861282  38.0068817
  63.3869972  51.0715332  38.4919930  67.7452850  65.0187531  42.2554665
  68.5808868  65.2277756  42.6729622  67.6450043  65.6836090  41.5741806
  84.1302032  36.2053185  12.2667456  85.0560226  36.1287079  12.4974318
  83.9678040  37.1481972  12.2378311   3.3724749  63.9678688  12.1780281
   2.6910961  64.5780029  11.8957233   4.1143203  64.5271759  12.4083977
  14.1386080  28.4529610  11.1058397  14.6024723  28.2343426  10.2975903
  13.2771130  28.7514305  10.8143368  10.5231428   7.6940336  56.5584183
  10.4936628   6.8430023  56.1212616  11.4363985   7.9705977  56.4828720
  63.8868904  64.0419540  29.3288651  64.4898834  63.3473167  29.5936546
  63.0190697  63.7014771  29.5461216  52.1492729  14.4146090  85.7346268
  51.8904915  13.5218019  85.9630127  53.0387039  14.5013247  86.0775833
  17.7497826  27.9106483  62.7538300  17.0482903  28.5359001  62.5716133
  17.9527073  28.0415783  63.6800652  82.2184601  13.6035938   5.0688424
  82.7526093  13.6172476   5.8630280  82.8454590  13.4549580   4.3610206
   4.4249940  39.6743965  56.4604111   5.0354118  38.9373512  56.4407043
   3.6751227  39.3510551  56.9597855   3.1003218  32.9683418  26.0754910
   3.5141847  32.4623642  26.7747307   3.6139956  32.7623253  25.2945137
  56.8563957  16.8967896  83.0740891  56.8859062  17.8499794  82.9916763
  57.7457695  16.6507282  83.3284607  65.4511948  37.7953148  76.5960312
  66.2400589  38.2038879  76.9524002  64.7310638  38.3215485  76.9434738
   1.4568783  15.9213324  60.0638733   0.5561901  15.6165075  60.1737556
   1.3742218  16.8626747  59.9113121  10.1197910  56.5325089   3.1465838
   9.8743219  56.5240173   2.2214329  10.5779219  55.7027931   3.2804527
  17.1627827  18.3408813  13.2554121  16.4486160  18.9781780  13.2623587
  17.5555611  18.4118118  14.1254272  54.5396004   5.1933351  13.4356375
  54.1782875   6.0570269  13.2363310  54.7148361   4.8035531  12.5791359
   4.5741987  14.5051622  63.7127457   3.7477303  14.1999454  63.3385468
   5.2168884  13.8503046  63.4400826  14.0507402  47.6266556  12.9343414
  13.9194536  48.3587608  13.5368500  14.6202507  47.9786377  12.2502365
  17.6090221  69.2673950  38.0127563  18.5208321  69.4223557  38.2593765
  17.2079010  70.1364594  38.0200958  72.7631912  44.3829231  70.8520279
  72.6451950  43.6734352  71.4836426  71.9090118  44.8131142  70.8127136
   8.5924511  47.9209518  42.7319717   8.8002968  46.9868279  42.7109489
   8.0681543  48.0674400  41.9446411   4.8712354  60.4484673  17.2566776
   3.9199800  60.5077515  17.1681843   5.0953526  61.1274300  17.8930855
   9.5772438  23.4155502  16.2927437  10.1301794  23.3424969  17.0706635
   8.7680960  23.8160095  16.6107731   9.9946041  24.0579967  10.4114971
  10.5271950  24.8231335  10.6286268  10.6224785  23.3378506  10.3532248
  51.9973106  26.2331810  53.5375023  51.9500999  25.2772694  53.5528030
  51.7989807  26.4683018  52.6310730   9.7522011  71.5407867  55.4712715
  10.0824461  72.3927689  55.7563934   9.4415407  71.1232605  56.2746353
  77.5150299  58.5137939  57.7070999  77.0169830  57.8280678  57.2621727
  78.1576843  58.8019524  57.0588760  69.8300705  46.0558662  65.9529495
  69.7539062  45.5594826  66.7678299  69.5560379  45.4416618  65.2718582
  76.1428452   4.8453703  54.4284477  75.8861923   3.9719760  54.7243271
  76.7947159   5.1328683  55.0676994  62.4097939  64.6662140  42.1572762
  62.6546822  65.3945084  41.5864487  63.1915665  64.5018387  42.6845741
  60.2811661  71.7194290  12.0902500  60.0373650  71.8062897  13.0117950
  60.2932014  70.7751999  11.9336596  86.4564896  33.5308838  84.3344650
  87.1115952  32.9940872  83.8884659  86.0207291  34.0111427  83.6304016
  14.9093218  43.8810501  21.0584412  14.4830809  44.6577530  21.4207745
  15.2348413  44.1632690  20.2036781  26.4175987   0.1825344  26.1643715
  25.7253456   0.0746140  26.8165760  26.2287388   1.0253891  25.7518673
  20.7233028  59.4760590  58.2219124  21.3666306  59.0382385  57.6645279
  20.1426754  58.7736816  58.5147820  80.7659531  33.2835350  27.0624924
  80.0640259  33.3060303  27.7128925  80.4069901  33.7481880  26.3065319
  80.6411514  17.4073944  60.4296837  80.9046326  18.3176098  60.2943497
  81.4584045  16.9474716  60.6215210  27.8253002  36.4752846  32.9433060
  28.7083416  36.5165710  33.3104095  27.5853939  37.3896675  32.7930298
  80.2044754  46.8002129  15.6031504  80.3415985  46.6841774  14.6629562
  81.0069427  47.2207031  15.9121351  78.4934616  51.2474403  37.4989510
  78.1367722  51.9549484  38.0360146  78.6398163  51.6477737  36.6418915
  82.8182907  69.6717758  40.0471954  82.2520676  68.9357605  39.8150368
  82.4366302  70.0231476  40.8516197  30.5377712  25.2150211  16.3681831
  30.9098148  24.8894997  15.5485163  29.7966175  25.7564030  16.0964737
  62.6778717   7.7055988  67.0142822  62.3955917   8.6070824  66.8597641
  63.2170982   7.7554197  67.8035812  54.3328705  57.1388931  40.1715431
  53.9954338  57.8806496  40.6737061  54.5107689  56.4659271  40.8285828
   2.1597214  17.8949585   6.8836904   2.4208586  18.2885132   7.7162485
   2.5445268  18.4651585   6.2180867  22.6473217  54.3996201  14.4370584
  21.8008461  54.8462982  14.4232578  23.0582008  54.6393394  13.6064291
  52.8714790  64.7097473  44.7800560  53.7864914  64.9762573  44.8692589
  52.4331055  65.1018066  45.5352707  15.0371723  41.1256027  21.1079254
  14.0908966  41.0365753  20.9944801  15.2135563  42.0498619  20.9322548
  20.4528198  69.4133453  82.6661987  19.8331680  69.7170944  83.3295212
  20.6432648  70.1914139  82.1421890  50.6164665  44.2928886  63.7729378
  50.5345650  44.7581444  64.6054382  51.4830971  43.8880730  63.8090439
  50.5525818  38.9556313   7.8684912  51.1684341  38.3973274   7.3938861
  50.7705421  38.8224983   8.7909880  85.7768250  46.8265762  52.3364334
  85.1721497  47.5332451  52.5627251  86.2013855  47.1232109  51.5314522
  74.1214523  12.7065220  20.8462067  74.9507980  12.5016422  21.2779942
  74.1456528  13.6548901  20.7187538  72.7374115  70.4477539  47.0100670
  71.8623657  70.8357086  47.0059700  72.5814590  69.5057678  47.0777016
  82.1659317  63.0652199  70.7321701  81.9960480  63.0113068  69.7917099
  83.0745010  63.3598366  70.7949295  66.5356140  26.2083664  84.5769653
  66.7176590  25.6770287  85.3520584  67.1598282  25.8973179  83.9213486
  39.6365395  36.0900345   5.8966780  38.9684181  35.4758759   5.5922885
  39.1884880  36.6267090   6.5504847  45.7902641  64.3323212   2.6740668
  45.4166908  63.9718170   3.4782510  46.1260986  63.5696678   2.2031026
  25.6300602  61.0296898  42.1302757  25.7655239  61.0033531  43.0774765
  24.8363647  60.5140686  41.9874077  30.4781609  36.5977249   6.3896675
  30.6077118  36.4998932   5.4463344  29.6997471  36.0742302   6.5800886
  36.8359604  28.4246254  13.6197367  36.1812973  27.9309063  14.1135845
  36.3277664  28.9215775  12.9786396  20.3124790  50.8983994  79.6552200
  20.4934158  51.7495308  79.2563858  21.1772366  50.5286789  79.8333588
  35.2781067  40.5361290  71.8928757  35.5601273  39.6272545  71.7897110
  35.0774422  40.8270836  71.0033188  85.4144287  38.5494461  15.0819836
  85.3511734  38.6434326  14.1315117  85.1553574  39.4046974  15.4250011
  42.9767494  41.7885818  85.0608292  43.8909683  41.5049706  85.0595779
  43.0149345  42.7190552  85.2821732  77.0005035  64.0126419  32.6547623
  77.9383545  63.9394264  32.8317032  76.6232986  63.2164497  33.0289688
  71.0547104  24.3768349   2.9116538  71.6620178  24.9132099   2.4020271
  70.2228012  24.4463692   2.4433391  42.8760567  22.3959274  81.5517273
  43.0214882  22.5851688  82.4786987  43.3744965  21.5949631  81.3897247
  70.5048523  22.1730785  51.3301010  70.9277649  21.5386105  51.9087410
  70.0269547  21.6379757  50.6964493   6.2444263   2.8110001  37.3139305
   5.4480934   2.3193355  37.5148087   5.9338322   3.6872823  37.0861320
  83.0922394  40.4835472  71.7658386  82.6793976  41.2327156  71.3362579
  82.4910278  39.7556534  71.6078949  54.3025055  13.5399876  15.4572325
  53.8520164  12.7845392  15.0796251  53.7828789  13.7680225  16.2280884
  73.7566757  61.9793587   6.1785893  73.0242691  62.5941010   6.1349840
  73.5971756  61.3655319   5.4616442  19.8277874  20.4841690  74.1991501
  19.0873737  20.7036381  73.6335907  20.4529457  20.0509834  73.6179733
  26.5716915  57.3601761  69.1239319  25.8835831  56.7673950  69.4261703
  26.4364948  57.4217415  68.1783295  16.9015427  57.6410408  27.1368427
  16.3921776  56.9266205  27.5194416  17.7204132  57.6435509  27.6325016
  38.4239006  42.8208733  74.4565125  38.3848114  43.1270828  75.3625717
  37.5139313  42.6305618  74.2285461  49.3923912  22.3689899  18.7193756
  49.9732170  22.8495903  18.1295471  48.7689438  23.0258465  19.0293484
  40.1000633  28.1421833  20.3462830  39.8687248  27.7188988  19.5195160
  39.2705116  28.4822598  20.6815853  13.4303217   8.3474274   2.9132297
  12.8253908   7.6416101   3.1415107  13.5481157   8.8349667   3.7284980
  31.6599922  41.9553375  20.2048302  30.9634190  42.5814896  20.0074654
  31.8822498  41.5693855  19.3575554  77.2431259  42.7472496  15.9634647
  76.7754211  42.1464005  15.3834133  77.8470078  42.1875191  16.4515877
  45.1530952  25.1950645  11.5696726  46.0339699  25.1640148  11.9429464
  44.5914307  25.4488258  12.3020430  73.5942307  27.7923660  59.5791321
  73.7170105  27.3818760  58.7231789  73.1260452  28.6055145  59.3898544
  49.9117012  17.9666824  70.4336624  50.0313339  18.8298664  70.0376434
  49.3627892  18.1291275  71.2008286   0.3018027  62.9260559  57.0708084
   0.7499932  62.5174522  57.8113518   0.9836465  63.4300995  56.6266708
  50.0829468  43.5055389  26.3763027  50.0606537  43.9230652  27.2373524
  49.4339828  43.9845848  25.8609505   5.9712162  40.3650246  30.1976871
   6.8667560  40.2531891  29.8787308   5.8722668  41.3107948  30.3070354
  68.0271072  15.1481581  13.8454609  68.0815735  14.2228403  13.6066065
  67.3315430  15.4986076  13.2890368  23.7824345  48.9967880  29.5418205
  22.8973904  48.8050003  29.8518963  24.3095455  48.2602043  29.8513947
  15.2969694  17.4207726  64.8050079  14.5905142  17.7272663  64.2364883
  15.6412697  16.6451015  64.3622589  25.9486637  59.0004845  60.7165413
  25.1361732  58.6369934  60.3644562  26.0313339  58.6056137  61.5845718
  17.9196243  56.9445915  78.4185562  18.5417309  56.9457245  79.1460342
  18.2571812  56.2820663  77.8157806  76.3538284  38.2720222  76.3047333
  77.1226349  38.7761497  76.5712357  75.7081070  38.9334335  76.0560989
  63.9784431  11.1052094  11.0024748  64.1775818  11.7697077  10.3429155
  63.9903946  10.2782679  10.5205441  31.0749168  18.0132885   1.6805971
  31.9834347  18.3145809   1.6876721  30.9871407  17.4982109   2.4826093
  15.5618839  42.3608894  17.1718025  15.8241606  42.5995216  16.2827034
  14.7772779  41.8253021  17.0544567  74.8383713  20.7692432  57.4286346
  74.9411240  20.7146893  58.3787384  75.7293091  20.8823357  57.0974731
  10.3760700  33.3728218  22.3102322  10.9763374  33.5578423  21.5879593
  10.8759737  33.5869064  23.0979481  41.0703239   3.1458340  78.1199417
  40.3233948   3.0380528  77.5311127  40.6859741   3.1472507  78.9965820
  55.3039551  29.5907021  67.0823212  54.8386917  30.3563690  67.4192429
  56.1402435  29.9366322  66.7705765   4.6514797  48.2676277   8.8647566
   4.2609911  47.9561501   8.0482197   4.1743817  47.8016930   9.5514250
  86.5281143   6.8827462  27.3475685  86.7788773   7.6965203  27.7847424
  85.6134491   6.7493105  27.5961876  11.7340994  39.7703819   7.0424862
  11.0036993  39.2659912   6.6842422  11.3551292  40.2509766   7.7784500
  45.8522186  58.0662384  65.1660309  46.0711555  58.9331970  65.5076141
  46.4239197  57.9568176  64.4061508  54.7619476  22.1378460  85.8188324
  55.1072426  21.9108810  84.9554138  55.3335686  22.8405151  86.1282425
  45.5116005  66.2691193   0.4752222  45.7904396  65.8046799   1.2643846
  46.1265526  66.9984207   0.3966363  74.8720322  12.4401979  71.9973984
  74.0531616  12.7379198  71.6011047  74.8916321  12.8653202  72.8547897
  25.3573189  23.8147812   9.3653517  25.5331879  23.2919483  10.1476231
  26.2226238  24.0865669   9.0593929  18.0451508   6.3650765  19.1078739
  17.1743660   6.4417210  19.4978619  17.9695320   5.6338110  18.4948788
  49.0151482  21.7409725  85.0388794  48.2737198  22.1200027  84.5668106
  49.1501312  20.8874302  84.6272049  33.5197945   6.4698982  25.4838047
  34.1056099   5.9912601  24.8973274  32.8268356   5.8437595  25.6935425
  46.2088661  43.8283615  37.9243813  46.0887260  44.5376778  37.2929764
  45.3642960  43.3782463  37.9425240   0.9782076  17.3227997  23.8786945
   1.7167190  17.7525368  24.3101559   1.3813492  16.6629353  23.3145256
  69.8269348   9.6608229  46.0541992  70.0028305  10.2967138  46.7476959
  69.0090027   9.9598026  45.6569214   7.7130775  39.5169258  21.4470329
   7.2590404  39.4037971  22.2820683   7.2896833  40.2754555  21.0450325
  10.0301867  62.1233749  22.3073730  10.4160891  62.9777489  22.1140919
  10.6915054  61.4921646  22.0237160  54.7176361  36.4025497  85.6549759
  55.0776634  36.0275307  86.4587021  54.2581100  37.1911011  85.9435043
  28.3725491  22.0249386  75.0045013  28.9196548  22.6973400  74.5985641
  28.8062325  21.8330765  75.8359680  37.9012718  15.0030375  77.8380661
  37.6735497  15.6010971  78.5498962  38.1069679  14.1770163  78.2758026
  78.9957504   2.6930952  77.5356445  78.1360703   2.9167619  77.8922348
  78.8056564   2.1134264  76.7980270   0.8893167  39.1087952  85.6836700
   0.6522383  38.9417915  84.7714539   1.7665226  39.4890594  85.6373978
  37.3220634  57.1465340  63.5519447  36.6208878  57.4659996  62.9840355
  37.1393585  56.2127037  63.6559105  84.9535904  29.2742252  23.7645245
  84.7317734  28.5117474  24.2989922  85.9008713  29.2130527  23.6414490
   6.7869849  59.1339035  56.9113617   6.6895471  58.3617668  57.4686279
   6.3383303  59.8318787  57.3886147  38.6545448  66.1975021  73.5445786
  39.5860252  66.3307724  73.7201004  38.4154968  65.4415894  74.0809402
   0.9026961  48.0431824  15.8461647   1.8059692  48.0244064  15.5299730
   0.7485723  47.1606979  16.1833534  83.6447144  70.1958160  87.9797974
  84.1054916  69.8463135  87.2170639  83.5590744  69.4481049  88.5712585
  56.5212936  48.8066177  32.0578690  56.0433044  48.0461349  31.7270756
  56.3237686  48.8249168  32.9942856  27.0345440  59.4467163  38.6709061
  26.2234631  59.6681480  38.2133598  27.1062355  60.1040535  39.3630066
  57.5747566  23.3788643  57.0520554  58.3466644  23.8652058  56.7624626
  57.7995834  22.4607639  56.9011307  13.9750366  50.2822762  63.8358231
  13.4322147  50.1084328  64.6048203  13.3764210  50.6835709  63.2058563
  64.9455414  27.5869083  82.7016525  65.3742981  27.1618347  83.4444275
  65.5093918  27.3885670  81.9540176  76.5316010  47.1394081   8.3200445
  76.6240997  47.8850861   7.7270551  76.6248779  47.5161858   9.1950121
  55.6971397  12.2641935  70.0304565  55.8936119  12.1606436  69.0993805
  56.2016335  13.0325041  70.2976990  36.3113708  43.2497711  41.5210228
  37.0592766  43.6225204  41.9878502  35.9031487  43.9984169  41.0861511
   4.1262317  36.7245331  59.2271042   3.5688691  36.5152626  59.9766273
   3.7998149  37.5681419  58.9140358  20.6586475  62.8888321  75.5098801
  21.0059872  62.2401810  74.8976364  21.3817482  63.0599670  76.1132584
   5.3584008  53.6073914  29.6436634   5.7646575  52.7484665  29.5277481
   5.3580632  53.9924126  28.7673149   3.3221676  60.2276001  23.1800804
   3.4929552  60.7209702  23.9823589   3.8468907  59.4323006  23.2716942
  11.0256958  64.1745758  30.8945560  11.6755571  64.6248703  31.4341373
  10.4396000  63.7558784  31.5249672  76.9155960  43.4023285  57.9996529
  75.9752426  43.5589142  58.0859795  77.1039886  42.7164383  58.6401939
  41.8705521   8.7489014  17.7070007  41.4123001   8.2300968  18.3681202
  42.7418327   8.8921585  18.0765667  66.3300934  27.7244797  29.9081917
  66.3494415  26.8534107  29.5118389  65.6660995  27.6605663  30.5946751
  30.6664543   0.6659255  73.9040604  30.4256763   0.3452359  74.7732010
  30.8134956  -0.1270142  73.3884430  65.1985245  53.9600868  62.6203270
  65.5276947  53.0633392  62.5592995  64.3997040  53.8869820  63.1426010
  13.3305416   7.5082211   7.7657361  12.8736582   8.0754461   7.1446528
  13.0903444   6.6203637   7.5006967  18.2198467  52.1099854  27.2938766
  17.4003983  52.3129272  27.7450409  18.0373077  51.2992668  26.8188515
  57.8525658  33.3366318  41.4148560  58.3894539  34.1051216  41.2214432
  58.3517380  32.8557129  42.0749893  76.0356598  23.0649242  86.4053268
  76.0351486  23.0344925  87.3620377  76.4286880  23.9114494  86.1928253
  86.9355545   6.5020328  14.0288181  86.8406219   7.3294911  14.5005512
  86.3866425   6.6051645  13.2514582  10.8929491  66.8374329  87.1715240
  10.9361124  66.0521469  87.7171326  10.3619556  66.5772247  86.4188156
  26.9994965  69.2687302  22.3715382  26.1067009  69.1650009  22.0423126
  27.5570889  69.0377579  21.6285896  72.1884537  23.9475574  17.7572632
  71.8039856  24.8234234  17.7929630  71.4881821  23.3923969  17.4142590
  40.9676628  15.8015423  25.7952709  40.9488907  15.9977303  24.8585815
  40.6134109  16.5872459  26.2116928  60.8864937  17.5826111  38.1904068
  61.6159019  18.0924683  37.8379288  61.3039589  16.8855247  38.6963959
  49.9868851  63.9842072  39.6106033  50.5661697  64.6076279  40.0487900
  50.5780258  63.3345070  39.2302437  26.9308586  66.9707718  70.7101974
  26.3450832  66.2190552  70.7997589  27.7851677  66.6435928  70.9918747
  57.3932838   3.0173430   3.4064653  56.6176338   2.4930806   3.6058357
  57.9779205   2.8725893   4.1504259  38.1293068  53.5035667  16.0352364
  38.7432251  52.7693634  16.0520496  38.4143181  54.0371552  15.2934246
  43.0105515  47.0343399  62.6500664  42.0668106  47.1718140  62.7318344
  43.3856430  47.9137383  62.6969414  84.2593384  26.6399555  85.1515045
  85.2126846  26.7188606  85.1177521  84.0541916  26.6129436  86.0860748
  44.2573586  48.5848122  35.1807899  43.4774475  48.5685310  35.7355042
  44.1577682  49.3755722  34.6506844  75.4399872  60.1667137  29.6895523
  74.9789352  60.9805603  29.8928146  75.2003860  59.5718079  30.4001255
  64.6854172  38.4064140   6.9062529  65.6120605  38.2935829   7.1180210
  64.2698898  37.6002731   7.2123713  56.6846504  16.5441418  15.5327396
  56.2900696  16.2276382  16.3453674  56.1739998  17.3211460  15.3052931
  59.8169250  15.4195023  80.7549438  59.9765663  15.0475225  81.6223450
  60.3721275  16.1985626  80.7225494  55.4159737  37.6139030  36.1812134
  54.9219360  37.2453957  35.4488449  55.3571892  38.5612183  36.0572472
  40.6088638  10.9931355  77.1231079  41.4970055  10.8166637  77.4334259
  40.7322617  11.4611807  76.2973175  29.8937836  41.0358353  65.2642899
  29.0793915  41.4127502  65.5973587  29.6271515  40.2120247  64.8562775
  32.2042732  33.3037872  24.6392269  32.8024712  33.7700195  25.2231922
  31.7495918  33.9962006  24.1595802  52.4292717  64.3482971  84.9017792
  52.0399857  63.6463165  85.4232254  52.9606247  63.8943558  84.2476883
  69.0904922  17.0365391  32.4745026  69.4459076  16.2206326  32.8269310
  68.1882629  17.0621624  32.7931786   9.3202848  44.1501694  13.3261719
  10.0546141  43.7514763  13.7931185   8.6609278  43.4577560  13.2809143
  60.3718910  32.6058769  77.7970505  60.4517288  33.5592613  77.7668152
  60.1514320  32.3554153  76.8998947  47.7344208  57.7771759  41.5259438
  46.9308739  58.0163307  41.9878426  48.3440895  58.4886208  41.7218552
  10.8289270  14.2062693  10.1942673  10.4083099  14.5759430  10.9705753
  11.5188084  13.6410637  10.5418835  57.8766632  65.1803970  49.4336166
  58.6008453  65.7764664  49.2425919  57.0911980  65.6754608  49.2008133
  63.1513405  47.3572998  49.3639755  63.4350433  47.9146042  50.0886536
  63.9262314  47.2741013  48.8082314  16.0276546  71.2819366  88.2650986
  16.6977959  71.5999374  88.8700943  15.9636698  70.3448639  88.4495773
  54.5811157  18.0370998   6.1236529  55.4285660  17.6555309   5.8945999
  54.7339249  18.9819908   6.1158781  62.3659401  69.9068146   4.6247253
  62.5738831  69.5172729   3.7754622  61.7476692  70.6086807   4.4213595
  67.8946075   2.5195124  13.1271067  67.4653168   2.1681161  13.9071493
  67.7190475   3.4598930  13.1602097  79.1135178  13.4772167  39.2560234
  78.9624634  12.7331533  38.6731148  78.2736816  13.6118765  39.6950798
  49.4821854  46.0565414  78.2626343  50.0162239  45.9417572  79.0486755
  48.9199409  46.8050499  78.4622650  80.1794891   4.7811918  31.3137226
  81.0617142   4.7238030  31.6806221  80.3002167   5.2075176  30.4652519
  54.5354958  51.9801140  48.5316124  54.3127327  51.5343704  49.3488770
  55.3496895  52.4442940  48.7261810  17.4050694  62.8465538   4.3183384
  17.1322803  62.0248604   3.9101260  16.5982456  63.3560791   4.3934951
  83.7884598  48.7013512  30.8990726  83.3483429  47.9698792  30.4660873
  84.6436386  48.3519096  31.1496372  41.4099503  29.8924007  55.0047226
  41.7901878  29.6875401  54.1505051  42.1437950  30.2287197  55.5191078
  56.0512161  53.6191101  50.5744324  56.7259827  52.9479141  50.4723663
  56.0420952  54.0791473  49.7350769  74.3553238  63.5975952  72.1182327
  75.1460037  63.0647163  72.0339813  74.4414368  64.2634583  71.4359970
  70.3882370  38.2501717  60.2624168  70.3722839  37.3738899  60.6472664
  71.2328568  38.2998276  59.8147812  58.8911896  30.5257339  50.6387711
  58.3129196  30.5663071  51.4004707  59.4175186  29.7386723  50.7792892
  70.3475266  68.7325363   2.8859141  69.8068771  68.1704712   2.3309224
  70.4763489  68.2251892   3.6873128  22.4205856  32.6978951  85.9720917
  23.2260399  32.7281685  86.4883881  22.2604465  33.6085396  85.7244720
  61.3801384  38.8539810  28.3948536  62.0875473  39.1297264  27.8119564
  61.5730209  39.2863312  29.2267799  72.6907043  28.0902786  24.6173363
  71.8229218  27.7064514  24.7432365  72.5646667  29.0253754  24.7784004
  34.5885773   0.5803164  11.0025072  34.7188263   1.1357425  11.7711220
  34.9256477  -0.2759788  11.2658958   2.1000760  68.6758270   0.7949560
   2.7712824  67.9975510   0.8701622   1.2754084  68.2147980   0.9485916
  48.8015823  38.2191658  88.1618576  48.6287880  38.6058083  87.3034439
  48.0217934  37.6971893  88.3507996  32.3308792   6.7817888   5.0497193
  32.1350021   5.8468375   4.9886580  31.4880657   7.2128344   4.9079714
  73.8455887  38.7492599  87.0795288  73.3568192  39.5041771  87.4073029
  74.7574463  39.0402107  87.0697174  41.3251991  67.5557022  37.3703880
  41.6634941  67.1549988  36.5696220  41.5388145  66.9282074  38.0609322
  34.2952499  69.2379227  68.7426834  33.9966965  69.8943329  69.3721466
  35.1526375  68.9652710  69.0694504  46.1718597  44.9485550  49.2021103
  46.8840790  45.5831528  49.2812462  46.1625710  44.4927559  50.0437698
  45.8705559   8.2048597   9.6829853  46.1402130   8.4401188  10.5707741
  45.9923935   7.2564626   9.6390591  36.0930176  28.9705257  17.6290760
  36.3724327  28.4798832  18.4020100  36.6599083  28.6532040  16.9261036
  78.2158661  21.1960754  41.2286987  79.1276855  20.9082355  41.2729111
  77.9317093  21.2326908  42.1420174  56.7662430   4.1704359  31.2527390
  56.3541908   3.4846396  30.7272606  57.6080589   3.7979336  31.5150681
  62.3310280  51.4366646  25.2584534  62.7276688  52.2834587  25.0538979
  62.2643204  51.4278221  26.2132854  16.2645073  67.1548157  38.9822884
  16.9091759  67.7879028  38.6663246  15.9610806  67.5171051  39.8147011
  52.5655937  63.9936600   7.7453179  51.9279289  64.5871277   8.1420736
  53.1751366  63.7883644   8.4542189  15.6619339  69.2834396  35.9174156
  15.9710741  68.9324570  35.0822639  16.4361935  69.2794418  36.4802132
  45.8214722  39.2785530  89.2167130  44.9104347  39.5542068  89.1154251
  45.8242302  38.3586922  88.9519806   0.3367828  32.7816734  11.9374971
   0.1938906  31.9311066  11.5223455  -0.1774165  33.3942719  11.4116144
  46.4524841  65.7756042  26.3097191  46.5441551  66.0461349  25.3961334
  46.8992462  64.9302750  26.3551712  37.9403229  64.4953918  80.0740585
  38.0075264  65.3813705  79.7180252  37.3927650  64.0254288  79.4451370
  21.6831722  45.9892883  26.5269299  21.9024048  45.9350739  27.4571075
  22.1239643  45.2366142  26.1327000  65.2352219  41.7558784  11.5870752
  64.4472961  42.2867241  11.7037554  64.9813614  40.8819733  11.8838549
  46.2053795  38.6300392  10.4538555  45.6268158  39.3648376  10.2499895
  45.6275597  37.8670502  10.4681921  74.3212814  35.6540642  42.3629570
  73.5440369  36.2104149  42.4139404  74.2746582  35.1051140  43.1457176
  47.8493958  20.8927040  52.3269157  47.3539543  21.6700058  52.0689049
  48.7629662  21.1247311  52.1602325  53.3032532  47.8352737  57.7587891
  52.5662727  48.3680840  57.4601250  53.3037186  47.9390259  58.7103500
  55.6243935  15.6229830  66.2037125  56.5420341  15.8426342  66.3647079
  55.2860451  15.3644333  67.0609818  78.9309006  10.3315401  49.6941223
  78.4434814  10.6891785  48.9519997  78.5525436  10.7637224  50.4598236
  26.2604218  39.1159058  25.4142303  26.5870323  39.9994431  25.5842857
  25.4437885  39.0627403  25.9107342  55.6046333  49.0911293  56.9190140
  55.1908531  49.6701126  56.2788620  54.9194069  48.4655380  57.1542473
  34.4827805  26.0700474   9.7749119  34.4693069  26.1854610   8.8247910
  35.3188171  25.6388626   9.9519758  32.4711227  14.5935211  87.5130615
  32.8400497  14.8850603  86.6793213  32.0428505  13.7624187  87.3079147
  25.1056252  16.7894783   3.0865636  24.3728485  16.3551636   3.5231900
  25.8789864  16.4979839   3.5694470  72.6147156  20.1704617  41.4203110
  72.3025665  20.9602051  40.9786034  71.9179688  19.5284615  41.2838669
  57.0234528  15.1168108  44.9279823  56.1394691  14.7516022  44.8901291
  56.9361916  15.9943533  44.5557747  11.1600952  63.6419258  49.4280243
  11.5443850  63.5110512  50.2948685  10.4692116  62.9819489  49.3701859
  53.7664719  28.3155746  53.4531326  54.4112816  27.7571278  53.8874016
  52.9685516  27.7873249  53.4306717   0.3600087  25.9255466  33.7718544
  -0.4974376  26.3510075  33.7714005   0.1650659  24.9939270  33.8734207
  65.9506378  63.1313705  13.2181807  65.0425110  63.0817528  13.5166254
  65.9366837  62.7437668  12.3430815  31.3718719  65.1111755  80.7606888
  31.1239605  64.1867447  80.7460861  31.9985943  65.1797256  81.4809341
   3.1043944  18.4027977  30.1412106   2.8095763  17.6212177  29.6738281
   3.7651868  18.0803699  30.7540932  32.2130241  71.0256729  36.2354813
  32.9957657  71.1637573  36.7688446  32.2867279  70.1209564  35.9316978
  45.5048828  23.5443287  70.0469360  46.0081711  23.9405537  70.7582321
  45.2347069  24.2845173  69.5034714   1.9223577   8.8855133  53.6798553
   1.8907609   8.4335566  54.5230446   1.6715056   9.7869310  53.8817253
  33.5212860   6.4306426  83.5933456  33.5410995   7.3584380  83.3587494
  32.6789284   6.3125300  84.0323410  22.6331806  47.3417168  50.0214844
  22.9924774  47.9945946  49.4207458  21.7116604  47.5833206  50.1145363
   3.7298927  36.5515518  78.7411499   4.3661304  35.8742714  78.9707718
   3.2655284  36.1967964  77.9830322  21.3452549  53.5956879  80.1981049
  21.8072929  52.8535576  80.5879745  21.4458656  54.3023109  80.8359070
  19.1374359  50.0865974  35.2335281  18.5680981  50.6164780  34.6755714
  18.5708046  49.7988091  35.9493065  54.7199707   2.7224100  80.2236938
  54.4699287   2.6446841  79.3030090  54.4258537   1.9030932  80.6217499
  16.1724930  43.7766190  29.0766945  16.4703598  43.2521286  28.3334465
  16.9517002  44.2550774  29.3597946  38.4486275  49.8208961  31.0120010
  38.3191299  48.8731880  31.0482025  37.8243752  50.1723557  31.6468372
  44.9872894  48.5104370  79.0733948  45.2189407  47.7062454  78.6088028
  45.1489601  49.2086487  78.4388885  14.4935541  17.8782864  87.5634079
  14.0119572  18.3685741  86.8971405  15.3625097  18.2795601  87.5746918
  11.4836292  10.9994478   6.7504115  10.5978699  10.8153191   6.4377475
  11.4224596  11.8696060   7.1445107  53.6994934  20.2206974  40.7568703
  53.0078621  20.6152191  41.2881241  54.4769478  20.7454300  40.9478035
  42.8975220  15.3197575  74.3900528  42.9017448  16.2736282  74.3104019
  43.6591187  15.1215429  74.9349594   6.3398571  69.3594055  13.7951393
   6.1121058  70.0502777  14.4172764   7.1587191  68.9949646  14.1311121
   8.8871241  51.7911263  43.0813675   9.1676989  52.4859467  42.4857750
   7.9572868  51.6711998  42.8883629  44.1062317  54.5846481  86.8882980
  43.8144913  54.0987740  87.6596909  44.5680885  55.3438683  87.2439804
  45.7620087  71.3541870  25.2365131  45.4086914  72.0981903  25.7242165
  45.6522789  71.5966492  24.3170547  17.7850342  15.7126389  16.9746304
  17.3888779  14.8632450  16.7801514  17.1713181  16.1304569  17.5787926
  66.5858612   5.2989435  42.9050217  66.8121414   5.9452806  42.2362366
  66.3763351   5.8197918  43.6802979  38.2039871  37.5641594  26.6843910
  37.9457092  38.1083107  25.9404659  38.4639664  36.7304573  26.2924919
  70.2838440  33.5753059  49.2137451  71.1309738  33.5558472  48.7685356
  70.4130096  34.1753654  49.9482384  67.6942825  20.8403225  54.7661438
  68.1337585  21.6029415  54.3899727  66.7616882  21.0473690  54.7058144
  24.3583775  69.2376862  73.5229797  23.4302521  69.0631180  73.6790009
  24.5223637  68.8941727  72.6447220   9.2040081  53.1491127   1.4833926
   9.3313236  53.9335976   0.9499086   8.3169098  52.8576469   1.2728312
  31.4446239  62.1936646  49.1232567  31.3537693  61.8224297  48.2456665
  30.6003819  62.0269585  49.5424194  48.3187294  53.1410904  62.2915382
  48.6793289  53.8380623  62.8396492  47.3911972  53.3607941  62.2041092
  51.8952026  10.9235706  39.6922035  52.1193466  11.8237514  39.4562683
  51.7101555  10.9609156  40.6306038  84.1509476  15.0776453  23.0397167
  83.4310684  15.3245087  22.4591503  84.1770554  14.1218090  22.9958038
  85.0041504  65.8297577  21.1467361  84.6730270  66.6755981  21.4486485
  84.8482590  65.2356415  21.8808708  74.2977982   2.5007114  42.5938644
  74.0230026   2.8634422  43.4359741  74.5821609   3.2611742  42.0868454
  14.7186165  48.3690491  75.0841675  14.7654247  47.6436043  75.7068787
  13.8540802  48.2842102  74.6821518  22.9836655  51.4862404  24.6665249
  23.0352707  50.7531853  24.0531750  22.1014500  51.4297562  25.0335922
  34.7365532  26.5998726  71.9003983  35.2927513  26.0067482  71.3953476
  33.9773521  26.0691261  72.1415482  22.9800835  58.3161964  18.6054554
  22.4322701  58.4067230  17.8257504  23.1138630  57.3727226  18.6959553
  32.1767502  31.4703503  70.9478302  32.8966866  31.0791454  71.4426804
  32.5707283  31.7266502  70.1139679  27.0988026  18.3800602  13.8704815
  27.5754471  18.1113930  14.6558867  27.1424179  19.3362255  13.8791904
  14.6708260  37.5729218  56.1438980  13.9232111  37.7881851  56.7015419
  14.3335638  36.9169312  55.5338478  85.8226318  23.7883339  76.0867004
  85.2045746  23.0623741  76.1716537  86.4214630  23.6807880  76.8256683
  16.3579617  56.4562798  31.3664703  16.6824532  55.8192444  30.7299767
  15.8284292  55.9396057  31.9738178  12.2756109  40.7858009  28.3263874
  13.0245218  41.0449066  28.8632565  11.6579657  41.5122261  28.4103565
  18.3348827  65.3896561  56.5418777  19.2273617  65.0640182  56.6588020
  18.1685467  65.9180832  57.3224754  75.7462540  53.7322731  84.5780640
  74.8736115  54.1053925  84.7025528  75.5841827  52.8516045  84.2398529
   9.8148470  14.4999113  67.9745712  10.3568783  13.8424253  67.5385132
  10.3131437  14.7416143  68.7552872  44.2397308  55.8779221  16.4350586
  44.8232765  56.6331482  16.3620052  44.2474022  55.6585503  17.3667507
   8.8122559  69.5262070  81.8173523   8.5266733  70.0037537  82.5962219
   9.4539719  68.8959274  82.1447372  69.2030716  25.8090420  18.8752460
  69.1126328  26.6046963  19.3996372  70.1214905  25.8030128  18.6055965
  42.2479515  44.2323685  38.5262489  42.0169182  43.7195129  39.3007393
  42.7962875  44.9409790  38.8630371  30.8014545  25.9800396  84.3165436
  30.0232372  25.4227524  84.3101196  30.4619503  26.8639050  84.4570847
  70.8335648  62.9784470  45.9399300  70.7522964  62.2600784  45.3125763
  70.0127869  63.4637413  45.8559952  15.6512966  56.3426170  71.7845306
  16.4372215  56.4772720  72.3140793  15.1796474  57.1736832  71.8402634
   4.3870802  53.0979691  19.5222569   4.1104846  53.8999557  19.0789242
   3.5774300  52.6037445  19.6504803   9.7492895  40.9697800  80.8003998
   9.0361910  40.7760048  81.4088211  10.3878651  40.2725868  80.9499817
  84.5615616   5.6498885  61.2889709  83.9118881   4.9801278  61.0754929
  84.9839935   5.3285351  62.0855370  10.3695316  25.1123981  36.4244080
  10.8486958  25.6882591  37.0202408  10.9580078  24.9964733  35.6784248
  41.7316971  31.3256683  73.0286789  42.1200447  31.5881195  73.8632660
  41.2999268  30.4923820  73.2169266  51.1539154  39.2102966  67.4825897
  51.1336555  39.6949577  66.6574020  50.8113594  38.3445625  67.2603531
  52.2489319  24.5910740  20.6427708  52.3028755  25.0752583  21.4667187
  52.6275368  25.1824245  19.9922371   0.9827746  27.0050106  42.6034584
   0.9937375  26.5205765  41.7779694   0.5097409  27.8122063  42.4012070
   9.4130125  57.9067535  77.0250092  10.1885118  57.9462776  76.4653015
   9.6933012  57.4000473  77.7871857  57.4289246   2.8499479  50.7557983
  58.2944031   3.1663516  50.4968300  56.8513145   3.6028996  50.6306419
  53.1191406  33.6756058  67.9504776  52.7331161  33.9081535  68.7949524
  52.5834503  34.1388779  67.3065491   8.9782276  63.5873222  85.7964935
   9.3205481  63.5975380  84.9026566   8.3401022  62.8738708  85.8004379
  51.8252525  36.3061752  43.4704399  51.4699402  35.5046806  43.8546181
  52.0086136  36.0745163  42.5599747  18.9564819  71.6222076  58.0685959
  18.2470551  71.0296860  57.8198700  19.7314377  71.2624359  57.6370430
  -0.1956216  40.2454758  55.5459023   0.4041684  40.9899292  55.5935783
   0.2110906  39.6501617  54.9162865  27.9018211  52.7277451  25.3291702
  27.6371460  52.1822701  26.0698700  27.2695351  53.4463577  25.3229275
  66.5390015  33.5322914   5.8654218  66.1215820  34.2786636   5.4354072
  66.5439529  33.7630920   6.7943664  79.3729477  48.1432228  89.2307816
  79.4093628  49.0327492  88.8791351  79.6887360  47.5900955  88.5162430
  58.5573921  62.4707718  52.2556610  58.3865585  62.2579079  51.3381958
  59.4733963  62.7481499  52.2706299  14.6303940  41.1750488  76.3773651
  14.9051886  40.9795799  75.4815292  13.7722883  40.7592087  76.4608002
   9.3966856  27.0767269  88.2712173   9.7701378  27.4185200  87.4588470
   9.9188890  26.2985477  88.4660797  74.9821014  52.3535995  65.9485931
  74.3544235  52.6447525  66.6100159  74.9308701  53.0176086  65.2610626
  11.1516151  50.3485794  13.0141125  10.3564215  50.8320961  12.7902575
  11.1349306  49.5818214  12.4413691  67.9831619   7.7050457  28.0168686
  68.4941330   8.3932772  27.5908585  67.0751801   7.9978528  27.9390125
  85.9263000  45.5056686  19.4285011  85.0589981  45.8995743  19.3343601
  86.5321808  46.1893730  19.1426907  18.7507496  56.6623573  49.3607941
  18.0206833  57.2812462  49.3463440  18.3350925  55.8007965  49.3265991
  23.5844345  66.1667862  69.2084122  24.2174511  66.6412582  68.6695251
  24.1211872  65.6470490  69.8067398  62.8839417  64.7695007  19.2769070
  62.1374130  65.3297882  19.0647736  63.1221085  65.0160217  20.1706257
  63.2390862  29.9622593  28.5010548  62.9428940  29.1970501  28.9939632
  62.5743217  30.0823421  27.8228989  23.1888371  57.5081673  10.7311211
  22.9876328  56.6201172  11.0262833  22.3332901  57.9205475  10.6119089
  11.1970291  36.8944702  30.1626225  12.0330982  37.1868629  29.7996807
  11.1072664  37.3828354  30.9809589  83.3413162  65.4182205  16.6859455
  82.8159866  66.2032623  16.8407612  83.0850983  64.8168335  17.3851700
  75.9696045  31.8559666  19.7230606  75.3814621  32.2983513  19.1110001
  75.5765457  30.9926701  19.8513527  70.1671295  32.1313438  71.0704041
  70.2044296  32.9116478  71.6235428  70.1478043  31.4004917  71.6882324
  40.0176659  60.4247017  58.6003380  39.4792709  59.7120628  58.2560806
  40.7974892  59.9903183  58.9459076  42.3366470  43.1780434  12.3397217
  42.8220673  43.1790085  13.1647062  41.9825478  42.2913895  12.2712135
  62.0925255  42.8713913  24.0095959  62.2041512  42.3186913  23.2361012
  61.2646103  43.3279953  23.8602467  64.1005173  66.9281082  46.5056953
  63.8353195  67.5404129  47.1919785  63.4432526  67.0390015  45.8187141
   8.6683989  65.2311249   5.5821462   8.2683506  64.6560822   4.9298267
   9.5432425  64.8671875   5.7179074  77.6542587  16.3170319  66.7222443
  78.0794296  16.0049095  67.5210190  77.3439713  17.1951008  66.9434967
   1.8327916  14.7335043  72.2511368   2.4190891  14.7547693  73.0074692
   2.3181624  15.1826992  71.5591278  33.1735802   1.6927685  78.7765350
  33.6216240   2.3439078  79.3164444  32.2770233   2.0196049  78.7017441
  67.0520020   6.9018531  60.2838440  67.6381836   7.2951231  60.9303398
  67.3154907   5.9822655  60.2497101  84.2872772   6.2599673  28.7044392
  83.6205444   5.5785489  28.7902317  84.9625320   6.0153852  29.3372517
  69.9556274  11.9129896  47.8814049  70.0831680  11.6254578  48.7854462
  70.4049911  12.7567549  47.8327751  68.1842651  33.2527122   1.7551968
  68.3111420  33.6211662   2.6294842  68.2549362  34.0038872   1.1661485
  42.2508430  13.5153093   8.5624418  42.0362930  14.1543636   7.8828764
  42.0500488  13.9630804   9.3842783  83.8782959  49.6405754  19.2745895
  84.3505783  50.0724373  18.5627728  84.4113770  49.8078117  20.0518208
  56.0663681  22.6479950  43.1614952  56.2197571  22.4653244  42.2344933
  55.1169891  22.5825672  43.2646103  33.3933983  40.2834854  32.5131950
  33.2107277  40.8496399  31.7633095  32.5299606  40.0091133  32.8221092
  82.9844742  38.9822502  64.0456924  82.3212433  39.0039330  64.7355347
  83.7994537  39.2168732  64.4895248  79.3873672  54.5714607  23.8521729
  79.4370499  53.6420555  23.6286373  78.6035156  54.6452980  24.3965569
   8.0687571  69.4328842  31.9346275   7.2199388  69.3673096  31.4970894
   8.4659386  70.2235870  31.5695782  69.6357574  28.6017265  58.6680984
  70.4514084  28.2557907  59.0304108  69.0326996  28.6208248  59.4111900
  19.6812630  47.8381500  81.3940659  20.0159702  47.0880661  81.8855743
  19.6152611  47.5235519  80.4924545  55.9685440  29.1887627  70.3877258
  55.1939163  29.4572182  69.8936462  55.6318550  28.5898342  71.0541840
   2.9514246  57.3451920  53.9668541   3.1583958  56.9842377  53.1048126
   2.3052807  56.7401199  54.3310204  35.0417557  39.1967697   8.7658806
  35.7180672  38.9993324   8.1179190  34.2173233  39.0169640   8.3139830
  76.2396622   8.5166454  36.2698479  77.0127106   8.9113655  35.8663330
  75.9260101   7.8867407  35.6209450  24.5667801   2.6263940  62.6402130
  25.4748840   2.8019245  62.8867264  24.0510101   2.9535902  63.3772049
  24.3961716  58.0130539  39.3701897  23.8569984  58.4273605  40.0438919
  25.2512245  57.8982048  39.7848282  74.3261871  55.8403549  58.3497467
  74.4050674  55.5124512  57.4539299  75.1871033  55.6851578  58.7382889
  82.8428497   5.8994637   6.0810194  83.5284119   5.7171006   6.7236538
  82.9138107   6.8395410   5.9153352  13.3978195  63.3206863  15.7552748
  14.2418528  63.0295830  16.1003799  13.5986166  64.1268539  15.2798777
   9.4931316  49.5666008  59.0808334   9.3810616  49.5261383  60.0305901
  10.3495378  49.9761086  58.9579430  28.2810173   1.2075497  40.0936127
  29.1440830   1.0869690  40.4896049  27.7546654   1.6100395  40.7843971
  67.7102814  14.3536615  79.2102203  67.1631241  15.1194658  79.3845444
  68.0308609  14.0871983  80.0718842  82.3165894  43.0650864  84.8364258
  82.9083023  42.3142471  84.7880478  81.4403458  42.6798096  84.8376083
  78.5574417  61.5805092  26.4855289  78.0468445  60.8051224  26.7185421
  78.4679718  61.6494560  25.5350170  77.9720688  41.8402710  85.5701065
  77.9133835  41.6560631  84.6326294  78.8662033  41.5940857  85.8070602
  60.9100533  17.8790016  51.3870201  61.6008034  17.5669994  51.9716187
  61.3774834  18.2193508  50.6241951  80.0241470  64.0939026  32.9457474
  80.3948975  63.2447433  33.1859589  80.2688446  64.6745605  33.6662979
  61.7982483  21.6416473  27.1627445  61.6746635  22.5634995  27.3889008
  62.4470634  21.3256626  27.7915745   8.6411047  65.7039108  29.7483940
   9.4873047  65.2653503  29.6598110   8.6060600  65.9736786  30.6661243
   2.7212644  47.6040039  40.2943420   3.0378137  47.8020706  39.4129791
   3.2741497  48.1308136  40.8714218  51.6622849  26.3368206  82.0233536
  51.2949715  25.7176704  82.6541977  52.0083618  27.0493317  82.5607452
  57.4653893  49.3495522  12.1638927  57.3561935  49.3561592  13.1148205
  57.0297394  48.5464897  11.8783531  78.4167557  37.4931374  57.8431587
  77.5426178  37.8715553  57.9375076  78.9538422  38.2113686  57.5086288
  70.0166550   7.8066511  58.7896614  69.9721909   7.3319764  59.6196823
  70.8947220   8.1875849  58.7783394  26.4744911  56.1703835  30.0217342
  25.8819447  56.8281937  30.3856144  25.9212132  55.4024429  29.8789825
  80.1339111  42.7261963  27.5867100  79.6660614  41.9275742  27.3426743
  79.7246857  43.0024223  28.4067478  40.9849663  52.3057899  60.5190811
  41.3204460  52.8287926  61.2472000  41.4659767  51.4801598  60.5756340
  68.4446564  28.4438705  20.1093807  69.0032196  28.1163387  20.8143368
  68.6664429  29.3724213  20.0398540  66.3647385  34.5708160   8.4155083
  65.4634399  34.3600540   8.6593647  66.7021332  35.0735588   9.1568909
  73.7595901  50.4582558  59.3592377  73.8656082  50.7394104  58.4504204
  73.4848938  49.5434685  59.2964516  53.8307991   3.5082994  66.5587616
  54.7363663   3.5285821  66.2492981  53.7222061   2.6303275  66.9242783
  77.0824127  57.9635849  60.4496117  78.0303345  57.9443855  60.5811844
  76.9676666  57.8113861  59.5115814  75.0760193  22.6567421  67.8956833
  74.4878616  23.4094219  67.9571686  75.9517746  23.0402870  67.8490524
   7.5341215  52.9722404  61.0967369   6.6555829  52.6166878  60.9626427
   7.7557693  52.7302437  61.9959259  47.1840286  69.6383514  74.2180862
  47.1247597  69.1797638  75.0561905  47.6656456  69.0373077  73.6497269
  14.0106134  52.7197075  59.7723083  13.8918381  52.7091217  60.7220535
  13.2807760  53.2457962  59.4455070  49.5393867  41.9825706  83.7761841
  50.4477119  41.8571358  84.0508575  49.5931816  42.1332741  82.8324509
  77.0712280  13.3760118   1.8212638  77.2523880  12.5616159   1.3520373
  77.7911377  13.9579668   1.5777491  51.3394661  15.2242146  12.8457050
  51.7464447  16.0632286  13.0617027  52.0632401  14.6795311  12.5363407
  13.9868631  15.4774580  84.2032623  14.4515629  15.3553247  85.0311279
  14.1723270  16.3833466  83.9558716  78.6312943  44.2490730  18.9870110
  77.8466034  43.7275963  19.1559982  79.2630768  43.9499283  19.6409149
  81.3221588  22.5384598   6.3504658  81.1101151  22.1630745   7.2050734
  81.1689529  21.8251286   5.7308564   7.7812572  15.9542532  77.3424149
   7.3071675  15.7883186  78.1572418   7.2674656  16.6296940  76.8996658
  59.0548363  19.7692051  36.1246147  59.1214142  18.8379192  36.3355827
  58.9957809  19.7948112  35.1695824   1.2513578  69.5936203  72.5039825
   0.8474925  69.6018143  73.3717728   1.5419689  70.4952164  72.3665314
  74.4335861  12.0233088  65.0754776  73.7681656  11.9539118  64.3909073
  74.7885971  12.9066277  64.9757538  85.6665878  68.3673477  14.7160368
  86.3470306  68.9303818  14.3469658  84.8975296  68.5319290  14.1704187
  73.5475464  34.2261200  55.8895531  72.9982071  33.7441902  55.2713280
  74.4436798  34.0390778  55.6099129   4.1106625  43.8268623  15.5252857
   3.7589958  44.0125580  16.3959637   4.1886201  42.8732643  15.4968424
  61.8942451  57.9179573  40.9875641  61.1467743  58.4615288  40.7384720
  61.9264221  57.2339478  40.3187370  27.9548874  21.9975777  80.3370361
  28.3858318  22.8292294  80.1398773  27.0992756  22.2479038  80.6856079
   5.1618814  24.7725525  55.8342857   4.5464745  24.4946098  55.1558685
   5.9068770  24.1790524  55.7395744  23.0177021  51.0379562  61.7761040
  22.2396889  50.9063835  62.3179665  22.7054348  50.9280853  60.8779678
  70.7671204  50.7396545  23.1761665  70.9841614  50.8517265  22.2506599
  71.5842438  50.9269791  23.6381855  35.5063934  17.3594723  15.0799303
  34.9297829  17.6561718  14.3758545  35.2792816  16.4378052  15.2031488
  38.0352249  65.1465607   2.2198086  37.6744423  66.0278778   2.3164344
  38.7840996  65.2572174   1.6339964  79.7041626  19.1980190   4.1049752
  79.2607727  18.9143944   3.3054807  79.0416794  19.1102505   4.7902780
  71.2589340  17.1053143  29.6795864  71.3382034  17.7752743  30.3586311
  71.1072388  16.2924213  30.1616917  46.0016212  22.6613770  88.5284958
  46.6755371  22.0294819  88.7790604  45.7142334  22.3740406  87.6618500
  74.8810577  57.8670654  83.1791306  75.1323700  58.4303093  82.4471207
  74.2774353  58.4008446  83.6958008   7.0765376  11.3224812  20.1350956
   7.7783704  11.5103111  19.5118923   6.5537515  10.6429739  19.7094231
  33.5764542  55.3980217  14.3093357  34.2935410  55.8774261  13.8943739
  32.8651543  55.4300194  13.6696014  67.7794418  23.9305401  17.5036526
  68.2820740  24.5370979  18.0474129  67.1233444  24.4803066  17.0752487
  55.5375481  11.9672327  62.8613434  56.2813797  12.1630192  62.2915916
  55.3951874  12.7746620  63.3553314   2.2547967  11.8295746  14.3479099
   1.3205724  11.6651983  14.2197008   2.6872096  11.2695379  13.7032318
  59.7336311  64.8528137  86.2286148  60.0972786  64.3814163  86.9781342
  59.4453163  65.6910477  86.5898209  61.3148041  65.5092316  72.5389099
  62.2287140  65.4349518  72.2641678  61.3480492  65.4694290  73.4947052
  46.9091377  43.0501022  66.1970520  46.1912651  42.4344063  66.3447342
  46.6616974  43.5199432  65.4006500  48.7410316  64.5119476  85.5259705
  49.0478592  63.7574959  85.0230789  49.3964157  64.6233063  86.2146683
  68.6494522  14.2209206  65.1860046  69.4783859  14.4283905  64.7546692
  68.8163300  13.3956118  65.6412506  56.3726273  26.1970139  40.4764252
  55.4626617  25.9363155  40.3341789  56.8721161  25.3863564  40.3785782
   8.3968916  39.5336342  28.6260834   8.6543016  40.3848190  28.9802818
   9.2248602  39.0987473  28.4221859  81.2763138  51.6698341  10.9403620
  80.4917145  51.2041245  10.6509619  81.0518188  51.9996414  11.8104534
  16.3434696  59.6076355  71.6107864  15.3923798  59.5888367  71.7171249
  16.4805546  59.5279541  70.6668091  65.0663986  19.0279865  84.1058121
  65.1136780  19.9547482  83.8710632  65.6048889  18.9526768  84.8935852
  25.9948387  -0.0745548  46.8968544  25.6437244  -0.2509170  46.0240173
  25.3014374   0.4147536  47.3395805  39.7546158  62.9610329  58.9283180
  40.0930901  62.0656967  58.9222221  38.8764000  62.8876381  58.5547066
  24.7155495  10.4237690   0.2943387  24.9472084   9.5381021   0.0147683
  25.3926945  10.9808979  -0.0894742  23.0785942  15.9750309   4.5380068
  22.7850876  15.0806761   4.3641829  22.4125614  16.3362656   5.1229358
  31.7277946  57.5917740  28.4434834  31.2809124  57.7519722  27.6123009
  32.1769333  56.7560425  28.3167515  66.7628174  29.6416874  45.8811378
  67.3771744  29.6810856  46.6141090  66.1023788  29.0057335  46.1561050
  19.4062843  27.4457779  73.5505905  18.9211502  26.6376095  73.3840408
  18.9385262  28.1135921  73.0491333  46.0780334  35.4229546   9.8777771
  45.7008591  34.6089287   9.5441103  46.9061089  35.5141296   9.4063845
  77.4259033  56.4117851  72.2570419  78.2891083  56.7346840  71.9985046
  77.3201218  55.5945892  71.7699738  72.1912155  47.6255875  61.7500153
  71.4762497  47.5278358  61.1211281  71.7539215  47.7552643  62.5915565
  48.7254753  67.5927963  35.5336685  47.8177643  67.2909775  35.4990807
  48.6614037  68.5178909  35.7709923  25.7268105  19.8721638  84.5843201
  25.7413559  20.1536160  83.6695480  25.3226547  19.0047684  84.5616379
  27.9818649  43.9592896  68.3453598  27.2624779  44.5906715  68.3535385
  27.8366394  43.4409637  67.5538559  30.3048763  14.1262779  85.3834839
  30.8657913  13.3669977  85.5419083  30.9154720  14.8468895  85.2281647
  49.5660706  15.5471144   1.4682730  49.9754753  15.2379684   0.6601584
  50.2368088  15.4220572   2.1396182  83.3954544  55.8869896  80.6146011
  82.6852188  55.2459259  80.5856323  83.8003006  55.7573357  81.4722214
  30.9142570  31.3453445  74.4465332  31.5263653  30.6265068  74.6041031
  30.3312607  31.0177193  73.7616882  10.6342306  36.0336876   2.4496548
  11.5528107  36.2483215   2.6120539  10.1443338  36.6517487   2.9920864
  62.0928726  52.0961189  50.3814659  61.9641609  52.3438644  49.4658852
  61.2136917  52.1116524  50.7596626  22.1289425  23.0875607  11.7999315
  22.4605427  22.3948536  11.2285900  22.3444824  22.7921047  12.6845112
   4.9219599  63.3078995  44.1770287   5.3872190  62.7012138  44.7529640
   4.0905576  62.8715706  43.9909706  39.7803383  54.6174316   8.2031832
  39.4761391  55.3797379   8.6957073  40.2503700  54.0880203   8.8474102
  74.6702728   0.7745889  77.2032471  75.3262024   0.0903802  77.0696869
  73.9241867   0.4982941  76.6710358  54.4693642  38.0408554  76.0424042
  54.5058441  37.1080132  76.2538452  55.2582436  38.2000046  75.5241623
  74.2994537  68.7151718  83.1267776  73.7891769  68.3848801  82.3873520
  73.8330383  68.3982925  83.9002533  15.5713205  22.8454247   6.9603176
  16.1423740  22.2287865   7.4184532  14.7350035  22.7858124   7.4221096
  49.1370430  70.0113602  70.8274689  48.7449074  69.1482239  70.9596024
  48.6680489  70.3750763  70.0764771  37.9635048  45.4146271  79.6086197
  38.3906631  46.1545448  79.1770096  38.6528435  45.0171700  80.1406555
  51.3325348   4.4476457  59.3980675  51.3800278   5.3976555  59.2910271
  51.8292694   4.2715158  60.1971054   2.7362099  24.5224209  76.9514923
   3.6482031  24.8020535  76.8720779   2.2428858  25.1676464  76.4449844
  36.8532867  69.8491058  48.7654266  36.9262428  68.9111099  48.9417038
  37.0385399  69.9321442  47.8300056  54.4695015   3.5680294  55.4736481
  54.3450394   3.2855573  54.5675850  55.0454140   2.9049511  55.8542862
  22.2270775  63.5088463  47.2672539  21.2807102  63.5992508  47.3788338
  22.3601456  63.5353355  46.3197174  41.4934959  44.3771553  35.7646179
  41.6661491  44.1444817  36.6769142  41.0585670  45.2284775  35.8127518
  73.1156006  58.4380875  56.5042992  73.8107910  58.0990105  55.9404106
  72.4697571  57.7324562  56.5389442   8.6425610  20.3274803  18.1703415
   9.2936535  20.9904499  18.4000778   9.1564894  19.5422211  17.9819851
  78.7574615  32.4755440  54.2303391  78.4973068  32.6024628  53.3179550
  78.1790619  33.0543098  54.7270470  26.2606754   8.4510641  11.9680738
  25.4258251   8.1633368  12.3374929  26.4147320   9.3089190  12.3637800
  57.3818932  49.1849442  14.9608936  58.2055016  49.1245155  15.4448891
  56.8787346  49.8527718  15.4268064  84.0083542  40.4932022  52.3971748
  84.7775955  40.1293297  51.9588890  83.8325882  39.8859596  53.1159210
  27.3577461   1.2481536  84.2229309  26.9055157   2.0896959  84.1635590
  26.6752090   0.5973763  84.0590286  65.3664627   2.2926648  44.9852486
  65.0706100   1.3915627  44.8559494  64.5592804   2.7991228  45.0757217
  67.7601547   5.4437914  12.7331438  68.4033203   5.6137729  13.4213839
  67.5190735   6.3122540  12.4108324  61.1885033  29.7133827  83.8654404
  61.4174347  30.0443039  82.9969330  62.0069275  29.7530499  84.3602524
  68.7992554  43.4551239  31.8013802  69.1159439  44.2351112  32.2569618
  68.4353714  42.9041595  32.4943886  48.1249008  60.9308052  49.1587334
  47.3172379  60.8821793  49.6701546  47.9716339  61.6413651  48.5359612
  80.8640976  45.1825142  17.8748150  79.9841232  44.9683571  18.1846886
  80.7265015  45.5636253  17.0076046  52.6237068  11.6496210  31.6819878
  51.7323303  11.3064537  31.6194077  52.7561989  11.8029528  32.6174927
  61.2896233  51.0281906  68.5172501  61.6647682  50.1705170  68.3175125
  61.1020088  51.4128265  67.6610413  55.0048485  63.5889053  23.7899113
  54.2685013  63.5763741  23.1784668  55.4952583  62.7914047  23.5906143
  73.4234772  64.0854721  20.2964935  74.0348358  64.7179184  20.6739807
  72.9299698  64.5872574  19.6477299  22.4938011  36.4721375  70.8807068
  23.2016411  35.8398056  70.7567978  22.5303364  37.0281143  70.1023865
  16.4046307  18.4526901  72.7052383  17.1232777  18.7396412  73.2686539
  16.8207531  18.2623596  71.8644943  27.4767017  21.0707817  13.7917280
  28.2741470  21.2362156  14.2946653  27.6035709  21.5545731  12.9755888
  69.6353455  65.5758972  86.3674316  69.5675888  64.9700165  87.1053619
  70.2529755  66.2448959  86.6627502  30.2376862   0.8160217  37.1237106
  30.9438019   0.2295490  36.8522682  30.5146122   1.6806774  36.8205376
  37.9659271  18.4857788  84.8134308  38.1036949  18.0908489  83.9524536
  37.5220184  19.3135242  84.6289978  36.0549698  64.6314774   7.1286912
  35.6672974  65.0333557   6.3512349  36.4907188  63.8452034   6.7998605
  61.0123978   3.3670759  56.3027573  61.8859520   3.6250796  56.5969887
  61.1419907   2.5152998  55.8857269  42.4844856  66.1631165  30.1672153
  43.3687172  66.1293716  29.8022118  42.4706764  66.9663849  30.6876011
   5.7460594  20.7245235  17.2346916   5.4286466  21.2525024  17.9673023
   6.6682444  20.5654507  17.4359455   1.7756003   6.7689896  45.9900360
   1.4658010   6.6196280  46.8833160   2.6987896   7.0003085  46.0922356
  33.5566559   6.2414227  19.4510860  33.2671661   6.0978327  18.5500813
  32.7667542   6.5188589  19.9151115   6.5489535  42.6939125  26.0936966
   5.6120481  42.5890770  26.2593784   6.6149459  42.7894249  25.1435642
  59.4220619  57.8496437  57.5439987  58.8778954  57.0685196  57.4442253
  59.7618027  57.7924004  58.4370422   5.7325053  13.4474220  78.2098083
   6.5796871  13.0467100  78.0150146   5.9487629  14.2312469  78.7148666
  19.0128250  28.3215923  30.6332741  19.9248199  28.5214806  30.8443184
  18.7308273  29.0480900  30.0774765  17.3409290  19.8816643  29.3017368
  17.4234219  19.9753532  28.3527107  17.6884823  19.0093307  29.4874039
  28.4413548  42.5008545  80.9387131  29.1695652  41.8826866  80.8769684
  28.2951584  42.7894897  80.0378571  27.8201981  61.4009399  21.2517033
  27.7018394  61.4327850  22.2010231  28.0732975  60.4954414  21.0721340
  19.3878918  65.1512070  35.7908211  19.5861149  64.3279266  36.2370834
  18.4334717  65.1607056  35.7185593  39.8834801   9.5266724   8.6074715
  39.9194069   8.7383003   8.0657988  40.7326889   9.9477539   8.4741812
  86.5858154  67.5742798  78.6195831  86.6922913  68.4472122  78.9975891
  86.0170441  67.1138382  79.2366104  78.2070084  47.1987648   2.2041757
  77.4142380  47.7221642   2.3216136  78.5852280  47.5174904   1.3846626
  52.2287865  44.0868759  24.4305897  52.2180710  45.0436134  24.4584351
  51.4072075  43.8259354  24.8466988   4.8788137  45.2044601  67.9829178
   5.3231916  45.9334068  68.4158096   4.7923279  44.5379333  68.6644516
  75.0349503  47.9959641  46.9887657  75.7783661  47.3980865  47.0669632
  74.2812653  47.4796371  47.2744331  58.3701134  40.2231483  86.8597412
  59.0371552  39.9721642  86.2207718  57.5813789  40.3697243  86.3375854
  34.7501640  55.3226433  10.3720427  34.5819321  56.2470818  10.1894426
  33.9268990  54.8828850  10.1597252  44.8358688   1.8109030  63.3940926
  45.3284836   2.6301665  63.4427643  45.2996635   1.2171180  63.9844742
  13.9983635  61.8961449  32.3237076  13.3911934  61.2886810  31.9011421
  14.7560978  61.3575630  32.5517387  78.7488403  33.4354439  34.5085182
  78.4288864  33.5406990  35.4044991  79.6110382  33.0317688  34.6079483
  82.3130951  49.2328949  33.6243362  82.4557724  50.1298561  33.9265518
  82.9995880  49.0874443  32.9733353  42.5480003  22.1877098  48.4130783
  42.7887573  22.3868313  47.5083046  42.2829056  21.2681580  48.3935547
  78.5835114  41.9439812  61.1002045  79.3567581  41.9854546  60.5375443
  77.9920120  41.3406792  60.6503220  72.7499390  67.4423904  23.9750175
  73.1337204  67.1117172  23.1628609  73.4993591  67.5862579  24.5528641
  81.6136932  11.6564875  29.8296089  81.8573303  11.7107859  28.9055290
  82.0522079  12.4033451  30.2372074   7.0797176  26.8542938   6.0745082
   6.2251763  26.6009655   5.7254877   7.6554155  26.8706608   5.3099585
  81.4689713  42.1771202   5.4151683  80.7275009  42.4273758   4.8639627
  81.2062988  41.3438034   5.8060908  76.3216553  56.3463478  62.4082108
  76.9255905  56.7805595  61.8057518  75.4615250  56.4499550  62.0011864
  18.2391758  70.0082092  53.7740517  18.2473164  69.0606232  53.9091225
  17.9015198  70.1205902  52.8854599  40.8571854  50.9534492  12.6399593
  40.0941887  50.4386673  12.9027653  41.4557381  50.3142891  12.2533789
  19.5282154  57.9599686  21.1282787  18.6130276  58.0540924  20.8640709
  19.5966225  57.0565834  21.4372272  65.6391068  53.3963890  54.2713165
  64.7050323  53.3455429  54.0684662  65.7293930  52.9304466  55.1025658
   3.1273706  63.6729431  62.7428360   2.7399468  63.0310020  62.1478195
   2.7067277  63.5027466  63.5856438  25.6900711  71.3404236  69.9022903
  26.3917122  71.5685043  70.5121384  25.3120842  70.5377045  70.2614594
  15.8217764  48.2035789  83.7742310  15.1659203  48.3859367  84.4471512
  15.3116703  48.0356560  82.9818726  60.6137657  33.6144257  81.1741943
  60.9411583  32.7160721  81.1293869  59.8571587  33.5647507  81.7584152
  84.3176193  13.3782835  59.5513115  83.3612595  13.3833838  59.5909500
  84.5213470  13.6299858  58.6505470  61.3539467  64.0788193  12.8959417
  60.9277992  63.2812920  13.2099199  60.7565460  64.7837982  13.1456366
  10.2671432  39.7169304  46.8390160  10.3390322  40.6410637  47.0778427
  11.1722612  39.4293098  46.7195587  32.7863884  47.6371727  62.3754463
  32.2670631  48.4364128  62.4634705  32.3233719  47.1222496  61.7146111
  52.9638596  32.5140190  34.4830742  53.1804085  33.4417953  34.5756454
  53.7492638  32.0540276  34.7793541  15.0727482  53.7858086  21.8445511
  14.4657087  54.5113754  21.6986504  15.1995649  53.4015045  20.9771080
  23.1144047  70.2890854  16.1400394  22.7125721  70.8864517  15.5092335
  23.1909771  69.4593582  15.6689558  81.4555817  22.0577202  77.2951584
  81.2546463  21.3490906  77.9064713  80.9108429  22.7883053  77.5879745
  45.1026688  53.5155907  41.4676208  45.3067245  53.9768867  40.6541138
  45.2745781  54.1575012  42.1565552  59.4243050  66.2344818  14.0324211
  58.5598221  66.1356812  13.6335011  59.2505913  66.2783813  14.9727020
  72.8918228  17.7932434  86.6793060  72.2937775  17.6724720  87.4168625
  72.6473389  17.1074257  86.0579224  85.6452179  42.1457405   0.2018812
  86.5647507  42.4092903   0.2368885  85.2303085  42.6285133   0.9167372
  55.1437759  39.6236839  67.4720001  54.4765472  39.2446022  66.8998718
  55.6630211  38.8743210  67.7636719  75.8862610  47.5074921  26.1482773
  75.4976730  47.2585869  26.9868927  75.1643066  47.4477119  25.5226231
   6.6724524  60.4712601  62.9631577   6.4989724  60.1913414  63.8619232
   5.8044825  60.5977058  62.5799179  81.5827026  66.7487488  86.6167603
  82.2793732  66.8800430  87.2599106  81.2456589  67.6281967  86.4458466
  52.5082932  17.8147354  12.9672337  52.9752846  18.6361122  13.1205053
  52.5016823  17.7170544  12.0150537  59.6643143  47.0876160  11.1717377
  58.7460785  47.1473770  10.9080982  59.7094536  47.5746651  11.9945230
  71.5426559   4.9833746  42.9874458  72.2426147   5.6362324  42.9953194
  71.9036102   4.2393980  43.4695663  29.4417744  26.2871609   7.3046355
  30.0640450  25.6759892   6.9103255  29.8924904  27.1314545   7.2887034
  25.3716927  66.0202255  34.6900597  26.1384716  66.4672241  35.0484962
  25.7330437  65.3736649  34.0837479  26.6893997  58.6941071  56.7730675
  25.8617496  59.1729317  56.8172874  27.2557621  59.1358337  57.4057922
  28.4619503   3.8299646  77.6204910  27.8166904   3.1431141  77.4528351
  28.0486336   4.3920808  78.2757950  65.0509491  69.7531815  10.5395756
  65.7727737  70.2369995  10.9409676  64.3810501  70.4164429  10.3736086
  73.8188858  26.6932487  77.5585251  73.9876709  27.5859661  77.8598480
  73.6736450  26.7818432  76.6165695  77.8025131  46.9980583  47.1915359
  77.9700165  46.1052094  46.8898811  78.5891647  47.2367477  47.6818848
  30.7046185  52.5432777  85.9358902  30.3106976  52.6312218  86.8038330
  30.1769505  51.8740540  85.5000763  70.5824051  66.0080948  24.7384167
  71.3081207  66.5246735  24.3881092  70.7030945  65.1375504  24.3591728
  85.1700897  48.1660423  16.5917244  85.8788605  48.2376442  15.9523859
  85.4791412  48.6637840  17.3486729  57.5469704  54.4809647  60.2361107
  57.4707375  53.5466843  60.4298668  57.0497322  54.5990829  59.4267731
  40.2363281  10.3138304   2.5233951  40.8579483  10.7681465   1.9546965
  39.7034988   9.7896919   1.9253956   3.9203558  45.3694038  26.0156307
   3.2843790  45.8493767  26.5460968   3.7590241  44.4489403  26.2228680
  38.3871269  55.6029091  51.4277802  37.7585258  55.9097214  52.0812035
  39.2372551  55.8928375  51.7586212  49.2356720  60.0951843  36.5304642
  49.3928947  60.6352386  37.3049660  48.8116379  60.6862907  35.9083595
  77.2926483   9.9750214  82.0192947  78.1645737  10.3699331  82.0249710
  76.7992172  10.4930706  81.3833847  44.1234360  57.7123070   1.6181127
  43.4428101  57.5583839   0.9629126  44.6843109  56.9383163   1.5672053
  20.6002579  62.4721794  57.8817635  20.5556602  61.5283928  58.0351105
  19.8744507  62.8322105  58.3914795  33.4091568   3.8841527  23.2891712
  32.5643425   4.3339443  23.2747173  34.0001106   4.4691644  22.8150768
  81.8544464  62.5429840  65.9496613  82.3340836  61.8615685  65.4786453
  81.3327255  62.9782448  65.2754364  82.0332336  43.8753662  35.3280029
  82.1873245  42.9363098  35.4312401  82.8036499  44.2887535  35.7176208
  82.9054947  69.1510773  14.8849583  82.9676514  70.1059952  14.9072723
  82.6326523  68.9496689  13.9898453  51.7278519  21.6808662  83.5169144
  51.3219147  21.1896992  84.2312012  52.4678535  21.1386795  83.2436752
  57.1225815   6.4831405  20.6689873  56.8548660   7.3445344  20.9892387
  57.8022041   6.6690884  20.0210915  51.3202820  56.8186150  57.6885872
  51.7317123  55.9620934  57.5731277  51.9806366  57.4437714  57.3896713
  16.7150459  68.7769699  67.0240936  16.0914497  68.1503983  67.3911972
  16.2604351  69.1539688  66.2708130  63.2868385  17.0395584  52.7767639
  63.3670578  16.6137276  53.6302681  63.9613190  17.7187214  52.7836075
  27.4121513   7.3090920  79.6032715  28.2604580   7.3522024  79.1619644
  27.1600475   8.2240944  79.7275543  86.3193741  29.6497707  61.0568848
  86.4654083  28.7148952  60.9122658  85.3674774  29.7391701  61.1030502
   3.6577942  63.9395905  32.0142403   2.8017967  63.6050568  31.7466831
   4.1545639  63.1586227  32.2582512  44.4663544  39.6128693  30.7366695
  44.4392586  38.7370300  30.3514462  43.6453705  40.0209999  30.4616280
  56.2290268  11.7863750  37.9177971  55.8856010  11.4723139  38.7542534
  56.3301773  10.9954271  37.3882675  71.2076721  64.3718719  30.6378345
  71.1293259  63.6690636  31.2829399  70.4867172  64.2180176  30.0272789
  19.1266613   4.6001134  27.0318642  19.4823246   4.1414237  27.7930088
  19.3468456   5.5194955  27.1818237  71.5636292  11.5248156   8.2697582
  72.4456863  11.2002335   8.4510145  71.1470718  11.5794239   9.1298313
  75.9671326  40.0459404  79.3445511  76.4562759  40.7219315  79.8135986
  75.9281464  40.3614731  78.4416885  70.7679977  65.2540054  69.2468491
  71.3530731  64.4968109  69.2709503  70.3349380  65.1950531  68.3952484
  84.8164368  69.1506958   2.8788693  84.4023895  68.7090378   3.6203070
  84.0918655  69.5701523   2.4148829  54.9977684  32.7172623  71.8349228
  54.7842598  32.4515724  72.7293854  55.9419403  32.5775337  71.7624817
  64.1842117  49.5720940   7.8124623  64.7812881  48.8252220   7.7687712
  64.3772125  49.9840851   8.6546288  15.5680561  69.7562256  85.1908569
  14.7888851  69.3216858  85.5377045  16.2074451  69.0519714  85.0839157
  25.4944420  55.4299965  53.1607780  26.2537231  55.5009460  53.7392998
  25.7822189  55.8260231  52.3382339  14.7421093  70.7848892  75.3851166
  15.1697702  70.1622391  75.9730377  15.3797483  71.4908524  75.2789993
  57.5277672   7.9766011  71.6907425  56.6882896   8.4217949  71.8061218
  58.0889549   8.3426619  72.3743439  57.9696732  22.8570137  53.8367004
  57.2325821  23.1003304  54.3968124  58.2396011  21.9961662  54.1565666
  20.6003036  49.2307053   7.8934608  21.2849369  48.6612320   7.5424457
  20.9431725  49.5254631   8.7371359  59.8410683  35.6110039  34.7936249
  59.4974823  35.9972839  35.5992126  59.2264023  35.8879051  34.1141090
  82.5866318  52.9849434  39.3893700  82.2658081  52.1422539  39.7105827
  82.2523422  53.0431023  38.4943275  44.3763123  49.3159523  62.2714157
  44.2150574  49.1195602  61.3485641  45.2435074  49.7210350  62.2821045
   7.6797175  67.3571320  87.4433365   8.2314024  67.9029770  88.0036316
   6.9045982  67.1751480  87.9746552  22.6918201  49.5309677  79.8079376
  22.7241669  49.2381821  80.7186813  23.3257408  48.9749374  79.3549423
  46.8374290  32.8375549  30.5387745  47.3511047  33.3180885  31.1879692
  45.9425545  32.8589516  30.8778572  35.6558800  59.4654427  12.2172518
  36.5597954  59.3218651  11.9369745  35.5459099  60.4160080  12.1936178
  41.1747704  64.2541046  35.6752968  40.4762878  63.6555138  35.9399414
  41.5875893  63.8242493  34.9262772  44.6168022   1.0555789  12.4175282
  44.5244179   0.4006655  11.7255850  44.1559219   0.6787356  13.1670685
  15.0431318  65.2145081  88.2085190  14.2033424  64.7597656  88.1437607
  15.2410431  65.2198105  89.1450195  58.5507393  49.7678604  38.7648888
  59.0461121  50.3937721  38.2366142  57.8683281  49.4449883  38.1764145
  48.4592896   1.9343632  55.3535042  47.6073799   1.5313087  55.5209160
  48.4187126   2.7768815  55.8059959   8.7864628   4.7154980  60.1462708
   9.7324715   4.8276587  60.2396545   8.5409164   5.3232613  59.4487305
  80.4579697  37.3638153  51.9225845  80.3408890  36.8042908  52.6903419
  80.3794556  38.2554436  52.2617989  67.0856094  48.7373657  68.3417892
  66.3974609  49.4002571  68.3988342  67.8165054  49.1076698  68.8366623
   2.7244577  12.4875097  34.4412575   1.8318571  12.3337612  34.7508659
   3.0320697  13.2325077  34.9575729  43.8834839   4.7451868  59.4600983
  44.0065002   4.0833359  58.7796211  43.0646782   4.4977126  59.8896828
   6.5518875  35.3039436  76.0586319   5.8630047  34.7200928  76.3761063
   6.0999284  35.9114799  75.4730835  22.3310966  37.0499878  86.9670181
  22.9844456  36.6129990  87.5132904  21.9506302  36.3471909  86.4401855
  19.9071465  11.4874640  70.5216217  20.3921051  10.7307806  70.1922607
  19.0078278  11.1733150  70.6152573  78.5778122  29.1006508  39.2046547
  78.8295975  28.2195492  39.4812355  78.1685104  29.4869289  39.9789238
  39.6125221  23.4307060  23.8704224  39.4541168  24.3461361  23.6399288
  39.1732903  22.9309864  23.1822453  28.6261349   7.0876241  23.6518974
  28.7172432   7.8276243  23.0516224  29.2394810   7.2780514  24.3616695
  14.5879602  70.0939636  44.5899048  14.7433319  70.9809799  44.9144020
  14.1539087  70.2201996  43.7461662  58.4732094  18.6662102  21.0763111
  58.0777817  18.5176487  20.2173595  58.2852287  19.5843658  21.2709579
  52.1084366   6.1809926  70.0491333  52.0480156   6.7458210  70.8195572
  52.6816978   6.6565084  69.4478912  80.5039368  62.9436188  43.4679489
  80.7935638  62.4534340  44.2374077  80.6999512  62.3674316  42.7291565
  67.8155136  29.6229019  82.8435593  68.6247253  29.2720680  83.2154770
  67.9640045  30.5672588  82.7948685  69.7709122  64.8609924  -0.2093792
  69.8004379  64.5183640   0.6839100  69.3129501  65.6977692  -0.1299381
  26.2505856  59.3623009  74.9199753  26.3599796  58.4262581  74.7523727
  27.0714035  59.7560921  74.6243057  14.5420208  29.9934845   2.5843294
  14.3719330  29.3727875   3.2928746  15.1294432  29.5249519   1.9913337
  30.4824619  49.0552940  79.1774597  29.9212952  48.9437332  79.9448471
  30.2385178  48.3354111  78.5956650  38.9322815  41.3852119  68.2707443
  38.4053421  41.1443253  67.5088120  39.3515320  42.2087708  68.0213242
  82.0896072   5.3506589  80.6079712  82.2842026   5.4949675  81.5340042
  81.4814835   4.6114726  80.6033783  61.0429192  64.0173950  16.4806232
  60.8415108  63.3652534  15.8095188  61.6005898  64.6551666  16.0351181
  12.7428532  58.6284866  11.0373926  13.1815329  58.6709862  10.1876955
  13.0225201  59.4234352  11.4913521   4.6891322  12.0408726  48.6922951
   4.0890350  12.6644564  48.2833214   4.6925550  11.2884607  48.1006050
   7.3163328  43.7999916  31.9479389   7.0061226  43.4078026  31.1317348
   7.2693944  43.0897522  32.5879326   3.9320667  44.1000557   5.9863129
   3.3730955  43.4563179   6.4214954   4.6069145  43.5773849   5.5531530
  14.8777895  67.0791931  68.3581619  14.0939474  66.8233109  68.8443222
  15.3193445  66.2525482  68.1634293  69.6088257  10.3822374  24.5183907
  70.3725281   9.8905334  24.8204193  69.2989349  10.8452644  25.2967243
  38.8230629  67.7366943  71.0772400  38.6944695  67.2677917  71.9017563
  39.2079391  68.5741882  71.3355026  53.7912483  42.6295700  26.3562889
  54.5523911  43.2060776  26.2889709  53.1393585  43.0249863  25.7775669
   2.9802067  25.1762390  35.5262680   3.6564305  24.5347805  35.7441750
   3.3406925  25.6615620  34.7841454  65.9521103  59.7945328  40.7179184
  65.8850708  60.6521835  40.2981873  65.7232590  59.1717033  40.0280304
  62.2101250  56.1057205  56.8940849  62.8708153  55.4259415  57.0268288
  61.7829933  55.8671837  56.0713539  82.0842514   2.5818312  38.2076035
  81.9000778   1.6727456  38.4439850  82.7848663   2.8470125  38.8034630
  63.2037773  34.5030251  18.8431511  62.5533905  33.8129196  18.7128296
  63.4009628  34.4726105  19.7793274  79.5124283   8.2148733  41.7261848
  79.4725494   8.5018654  42.6384773  80.0081024   7.3964796  41.7540054
  57.7185974   1.4216273  66.6168976  56.9463844   1.9813271  66.5353165
  58.4503021   2.0333803  66.6981125  41.6754227  56.2404175  77.4866638
  40.7706718  56.4285889  77.2371674  41.6064796  55.8392906  78.3530197
  16.1533489  47.6192131  33.5159950  15.3060589  48.0419388  33.3758736
  16.0865517  47.2323532  34.3889847  68.8199005  40.6184921  -0.0141895
  69.6525650  41.0636635   0.1430176  68.1557846  41.2414742   0.2809031
   6.0984206  48.1722260  61.1365891   6.5115232  48.5438690  60.3571930
   6.6603642  48.4487648  61.8604507  65.5974808  61.9885674  48.7998619
  65.8655853  62.8648376  49.0764427  66.3687592  61.4426918  48.9527588
  50.8149033  65.5123672  32.5409431  49.9349518  65.3272324  32.8690300
  50.7676964  65.3167114  31.6051426  63.9012680  24.8876915  50.1664314
  64.2834854  24.1384258  50.6233177  64.1383057  25.6428452  50.7047462
  38.1219978  62.3726196  51.6955299  38.1916733  61.4583626  51.4207382
  37.2163239  62.4655266  51.9910889  27.6829147  24.1365395   8.0611734
  27.0214405  24.1337757   7.3693099  28.4081669  24.6441841   7.6971154
  64.7956009  29.9511223  38.3517609  64.4615860  30.7983246  38.0569496
  64.3456116  29.7918167  39.1814384  34.9294281  16.8144207  83.7421951
  35.6582642  16.5253429  83.1931381  34.6829491  17.6670265  83.3836670
   5.3583059  26.5827694  25.4395218   5.3706031  25.7186794  25.8511391
   4.4534073  26.8802052  25.5339775  68.0045242  21.5460911  64.7978821
  67.7184219  22.3171730  65.2875824  67.7401276  20.8047295  65.3425980
  82.7161102  52.2247009  75.3428421  82.1855698  52.5409546  74.6115799
  82.1317062  51.6427460  75.8286667  41.9287834  18.1699638  18.7758446
  41.5666771  19.0463219  18.9066429  41.1866570  17.6469746  18.4725971
  78.3691025  51.3152161  84.0346298  77.4561462  51.4857597  84.2662888
  78.8715057  51.6537247  84.7757339  54.1973228  12.2308359  23.9845181
  54.7775764  12.1954031  24.7449665  53.5713043  11.5210142  24.1276436
  84.2830658  20.3881283  44.3799210  84.5114822  19.7363014  45.0426292
  83.3293457  20.4541759  44.4276581  31.0292625   1.3048004  23.7877617
  30.8156757   1.3239096  24.7206326  31.6596909   2.0156736  23.6717815
  57.9608040  14.8784838  10.3466148  58.0885277  15.4889479  11.0727348
  57.5668678  15.4090471   9.6541204  74.4396744   8.9834099  18.8817787
  74.0807953   9.0015106  19.7689705  74.0480957   9.7423716  18.4494858
  15.7263584  48.3724365  45.7383041  15.1664696  48.7928467  45.0856094
  16.5716438  48.2728806  45.3003387  16.4293861  26.9495754  18.4986343
  16.0236092  27.1973629  19.3294048  16.1986141  27.6586437  17.8984680
  62.8595047  37.9437294  55.7388687  62.2135620  37.4102745  55.2758141
  63.2662849  38.4750519  55.0544319  23.6599522  34.1533432  15.0164909
  23.0881023  33.3874397  15.0675755  24.5461197  33.7936935  15.0563889
   5.4866991  64.8509598  42.0265312   5.5628710  64.1653290  42.6901093
   4.5496750  65.0422592  41.9862556  38.4232559  55.2347603   3.4447768
  38.9982529  54.6091728   3.0040367  38.7612114  55.2817917   4.3390961
  70.9234848  43.9154053   8.0219383  71.4041672  43.1705933   7.6607761
  70.0390472  43.5806313   8.1699905  58.4688492  19.2105999  82.0208893
  58.9365845  19.9316921  81.5996017  58.6468124  19.3227825  82.9546890
  66.7605057  66.2199020  40.0118713  67.4062119  65.9407349  39.3627434
  66.9837189  67.1325989  40.1945763  36.3486328  38.3405991  76.0875931
  35.8814354  37.7640762  75.4829559  37.2225685  37.9564781  76.1577377
  20.7580757  10.0235748  16.0573483  21.4797020   9.6314821  15.5656652
  21.0424232  10.9221773  16.2243595  57.0202408  70.4985657  32.0475235
  56.3754807  69.9998245  32.5492935  56.5993195  71.3436356  31.8897190
  34.9167213  60.7212143  20.2784252  35.7831039  60.5282135  19.9201431
  34.5989494  61.4561958  19.7539692  10.6126528   2.0420499  46.6901512
  10.4133587   2.9762042  46.7523537   9.7621536   1.6241819  46.5549927
  85.3707581  33.6920891  15.4564829  85.2423782  34.6177444  15.6636372
  86.0823898  33.4140625  16.0331230  30.0340767  66.7830353  63.5011406
  29.6632786  67.3592072  62.8327408  29.5327377  65.9714127  63.4226303
  41.0726585  14.4763031  10.8938532  41.2687378  15.2201672  11.4634600
  40.4249268  14.8129463  10.2747040  70.3898926  32.1789055  29.0559978
  70.1337585  31.5098686  28.4211617  70.7205200  32.9014397  28.5222740
  74.2674713  54.6886826  12.1230135  74.9573746  54.6108398  12.7819595
  74.6868515  54.4229736  11.3046274  70.1447449   6.7020512  29.6780186
  69.5088501   7.3577623  29.3918209  70.0399094   6.6657176  30.6287651
   1.3609718  32.0214615  66.3901901   0.6984057  31.8889065  65.7122040
   0.8647695  32.3063660  67.1575546  35.7516365  66.1826935  73.0753708
  36.6988106  66.2999878  73.1484375  35.3894730  67.0546646  73.2326355
  15.9985294  48.7385025  78.7992935  15.5493021  49.5187874  78.4743652
  16.7363930  49.0798798  79.3045197  64.9101486   6.6754599  28.9789810
  64.6764450   7.3383923  29.6287003  65.5361023   6.1086130  29.4296474
  77.9457397  35.8227882  69.2424393  78.8583679  35.6753426  69.4906464
  77.5190659  34.9780159  69.3857574  75.9095688  39.0557747  16.0053253
  76.8081055  38.8475800  16.2612991  76.0029297  39.7184982  15.3209925
  50.7122536  56.1177330  30.9864426  50.5626984  56.5493889  31.8275948
  50.9813881  56.8241234  30.3992386  30.9617805  62.4744873  59.4002075
  31.6669693  62.3384895  58.7673988  30.1615582  62.4527588  58.8754158
  13.0771809  60.1975174  52.9010582  12.6474047  59.8663025  52.1125031
  13.4168377  61.0554123  52.6463356  64.0026779  59.6684723  52.7282295
  64.6814423  59.5073090  52.0728455  63.2913246  59.0750694  52.4872322
  58.0372047  40.2610512  10.8232384  57.9809151  40.2535057  11.7787514
  57.2395477  40.7078819  10.5398388   4.3166804  40.9818726  19.7327938
   3.9577069  40.0947495  19.7523861   3.8973625  41.4262543  20.4696312
  85.3151703  16.2344055  39.8876305  84.4361801  16.5933914  40.0090141
  85.7619553  16.4097099  40.7158089  51.6725883  59.2605247   8.4308271
  51.3163834  59.4226189   7.5572858  51.4967117  58.3337059   8.5930157
  84.5848999  32.0996094  39.2281494  84.9546280  32.3945351  38.3959541
  83.8315048  31.5642223  38.9791832  64.5742111  13.6158237  85.1906204
  64.5899658  13.5300064  86.1438370  64.1703949  14.4693546  85.0336304
  77.5328293  38.8481903  28.2278214  76.6538467  38.6055031  28.5188942
  78.0629272  38.0679436  28.3904324  67.5819397  10.6217432   3.7573080
  66.7132950  10.5603037   4.1546946  68.1439438  10.9493179   4.4595056
  31.0329018  51.3661652  77.5070267  30.8322086  50.5051651  77.8739471
  30.6004410  51.9843140  78.0961838  85.7075882   1.2860122  62.9783287
  84.9804077   0.6818202  62.8286781  86.4265823   0.9292867  62.4567757
  40.4026184  62.7250519  39.0169449  41.2520638  62.7963943  39.4523582
  40.2812233  61.7853317  38.8812141  34.7431602  10.0564528  17.8867970
  34.5762863  10.9988518  17.9031696  35.6945839   9.9803925  17.9592056
  72.6681061  57.1518974  23.9955196  73.1245804  56.3158455  23.9013081
  73.0286789  57.7014008  23.2996273  37.7775688  70.7248840  21.0215588
  38.5797386  71.1981430  20.8007088  37.5792732  70.9949799  21.9181957
   9.1157007   0.4694380  42.8351860   8.1713400   0.3162608  42.8043442
   9.4753513  -0.1171872  42.1697884  83.9555130  70.7527008   9.5101147
  84.1815567  70.0414734   8.9107027  83.5675278  71.4243927   8.9492865
  55.8620605  54.9307785  40.9834175  56.2427254  54.5381470  41.7690201
  55.4153137  54.2060699  40.5458679  81.2326889  66.5814362  27.7763367
  81.5045166  67.4876404  27.6309433  80.9018936  66.5717773  28.6745071
  12.0120811  40.2978325  76.1165695  11.1906662  39.8090591  76.1676712
  12.1810713  40.3847923  75.1784210  83.8789215  56.1602440  24.8225250
  84.5111923  56.7081451  24.3574791  84.3892822  55.7407951  25.5152168
  70.8944702  47.8629036  22.5245705  71.6584625  48.3977547  22.7401562
  71.1710510  46.9651375  22.7082863  69.2528152  40.3271332  51.4055061
  69.3582077  40.0339432  50.5004311  68.3256454  40.1856079  51.5966949
  64.6759567  33.5369186  66.1150742  65.3438187  33.9846878  65.5957489
  64.0529785  33.2045517  65.4688034  82.9861832  35.7959900  83.4721527
  83.6665955  35.7369194  82.8014832  82.3512192  36.4169312  83.1151123
  19.4244556  22.0113125  11.9937115  19.7805595  21.4347610  12.6697369
  20.0176220  22.7624874  11.9827652  66.9802856  25.5740910  28.1222858
  66.2948685  25.8550034  27.5160503  67.5359650  24.9929581  27.6029205
  43.9545593  65.3897171  85.0367889  44.2671242  65.1949615  84.1532669
  43.0004807  65.3855286  84.9596710  85.4493866  47.4753609  72.4100571
  86.3789444  47.3709526  72.2069550  84.9978409  46.9791527  71.7273331
  51.7816696  28.4792328  21.3536758  51.2912483  29.1628132  21.8102226
  51.5410919  27.6699867  21.8047562  17.3693542  44.0906982  32.9986382
  17.8603058  43.9787064  33.8126755  16.4515820  44.0908089  33.2705345
  84.4996796   1.0823780  58.8810730  83.6791534   0.7883866  58.4854279
  84.5926514   0.5445129  59.6673889  64.4324799  43.4298058  33.1537170
  64.7235336  44.1601906  32.6077728  64.6388016  42.6492958  32.6394539
  61.3166199  53.2228203  76.1304932  61.0206490  53.7725601  75.4049530
  62.1899223  53.5535049  76.3407898  26.0093231  16.8481121  23.6704006
  26.7159462  17.2565098  23.1702709  25.2142143  17.0679035  23.1848869
  46.2880936  22.6517048  25.2344780  45.3548889  22.7655563  25.0544777
  46.3190269  22.2951641  26.1222572  44.8491745  49.0251732  59.1389847
  45.6458321  49.5065918  59.3621559  45.1589851  48.1591606  58.8738937
  78.9626846  12.5806265  70.8988495  79.7397614  12.3314323  70.3985596
  79.2394791  13.3428736  71.4073715  16.2670002  52.2279434  19.6982288
  16.1474686  51.4166107  20.1918736  17.2007751  52.4222145  19.7792034
  42.7303429   0.3700337  76.1319885  43.3881645   0.1660004  75.4672546
  42.6104317   1.3174943  76.0673981  73.5953445   8.8855228   3.7501574
  73.8739319   7.9966063   3.9702632  72.9895554   9.1270666   4.4508095
  67.4363708  60.3595085  46.3112755  67.3381958  61.1771278  45.8233299
  66.7572784  59.7857971  45.9564285  51.5023270  42.9850349  31.1985989
  51.9734802  42.5718765  30.4750328  51.3976669  42.2874413  31.8456249
  48.4744835  36.7013817  15.8223896  48.0813141  35.8758316  16.1054306
  49.2020454  36.8404388  16.4286461  16.5466709  12.2787142   3.8161170
  17.2449207  12.6494255   3.2764392  15.7647915  12.3330269   3.2666197
  85.7225266   6.3467355  11.3869915  85.5009308   7.0654273  10.7948675
  85.1089478   5.6490049  11.1569223  13.8812141  40.6257172  80.3661880
  13.5565472  41.2575226  79.7245941  14.3329039  39.9635925  79.8429260
  16.9665413  12.2226324   8.7247229  16.5502663  13.0845356   8.7331629
  17.2670555  12.0929708   9.6242285  46.8828621  58.8232079  81.3114700
  46.2388229  58.6346474  81.9940338  46.4701004  59.4980698  80.7725601
  23.7175846  62.7597580  37.0789757  24.5977859  63.0587082  37.3072433
  23.2728424  62.6596565  37.9206505  63.6024704  47.7618065   3.3899353
  63.4385834  48.0548363   2.4935503  64.4547729  47.3281479   3.3481061
  18.4001102   9.1615543  26.1726265  19.1438675   9.5275888  25.6940098
  18.7506886   8.3789577  26.5979137  66.6097946  28.5099354  33.9071655
  66.6334534  29.1252708  33.1743393  65.7691422  28.6771488  34.3332748
  12.9239950   2.0536046  84.1140900  12.9334860   2.8599761  84.6297531
  13.7335129   2.0857632  83.6043091  45.4431190   7.3754177  56.1488342
  45.2841949   8.0581503  55.4970284  45.1153564   7.7457490  56.9683800
  43.6079292  21.7639065  18.0346508  43.5259171  21.2805290  18.8567524
  44.4139214  22.2705803  18.1340961  41.1261787  58.2877769  22.0197296
  41.0473595  57.6739655  21.2894878  40.2442780  58.3354568  22.3887959
  18.7091560  53.3836746  86.2700348  18.8605671  53.8043785  87.1163940
  19.3465385  52.6701889  86.2397842   1.5737405  40.4536781  46.8482208
   0.9874777  40.9968681  46.3214645   2.4131579  40.4931488  46.3899078
  32.9911919  44.7908363  18.1078930  32.2651253  44.1817017  17.9736500
  33.6183395  44.5715294  17.4188194  30.3670845  50.8614120  26.7609100
  31.1447010  50.9434128  26.2088032  30.4814930  51.5297279  27.4365559
  82.9208527  13.5513363  40.7015381  82.9212341  14.1200600  39.9316101
  82.5251999  12.7350025  40.3961067  21.7538776  67.0575943  43.2509689
  21.9194489  66.2508621  42.7631187  20.8693771  66.9489517  43.6003799
  76.9808502  52.1519051  26.8686008  77.2684860  52.9543571  27.3039951
  76.9529343  52.3803329  25.9394779  51.8013725  44.8196487  28.7570267
  52.1077003  43.9130898  28.7337112  52.4506264  45.2782059  29.2903404
  16.1135883  59.4582481  43.9050064  16.3551865  58.9386177  43.1382942
  15.7791319  58.8177032  44.5327568  67.5638351  71.7130966  25.5873413
  67.9062500  70.8535156  25.3422012  67.9452286  72.3142166  24.9474773
  48.9135284  26.0452633  82.1243134  49.3518066  25.7644749  82.9276199
  48.9231720  27.0014229  82.1678772  76.6099396  68.1082993  57.7664757
  75.9908524  68.7687378  57.4553642  76.3215866  67.2953720  57.3514748
   7.6764450  30.6443214  38.7266846   7.2181363  30.3502769  39.5139084
   7.8149109  31.5811520  38.8659973  44.3103561  38.3717842  72.6677551
  44.2672043  38.7497482  73.5461197  45.2437477  38.3645401  72.4557190
  45.7807770  45.7085609  84.6405487  45.9733353  44.8128166  84.9176636
  45.1264420  45.6098785  83.9489288  83.8618240  58.8414955   2.4530952
  83.6152649  59.0197678   3.3606534  84.2585144  57.9707565   2.4792917
  69.0451889  33.0097237   9.4761915  69.0061417  32.4381065   8.7094030
  68.2292404  33.5091705   9.4444065  25.7301655   5.0415587  50.3577919
  24.8494339   4.9712820  50.7260399  26.1933651   4.2755933  50.6968689
  78.8882141  47.9541969  36.5486565  79.8358459  47.8235931  36.5143929
  78.7818222  48.8720818  36.7984581  12.4771423  32.2080193  19.5927334
  12.5703316  31.7034016  20.4007607  11.6500406  31.9070930  19.2164631
  18.3039894   3.9059160   8.6411734  18.8817043   4.6663823   8.7057285
  17.5626583   4.2119737   8.1186886  52.6431961  54.7113762  56.6663818
  52.6535416  54.5097427  55.7307167  52.4108849  53.8836327  57.0872154
  74.4902649  29.1931286   0.9056117  74.8795166  29.6332207   0.1499446
  73.5744171  29.4713707   0.8992807  86.7584763  44.2100677   7.5447969
  85.8682709  43.8723259   7.6432533  86.6408157  45.1125946   7.2484322
  20.0645046   7.1659703  36.4562988  19.1182632   7.0249472  36.4251022
  20.2829170   7.1202378  37.3871231  56.1879463  15.6041288  18.1475945
  57.1210098  15.5460548  18.3531475  55.9121208  16.4412937  18.5208321
   6.1812201  32.2615662  65.6538391   6.0984783  32.0693321  66.5878830
   5.2983146  32.5118523  65.3816910  59.0290489  42.4874039   8.1540651
  59.7057877  42.8281670   7.5691404  59.4619446  41.7831001   8.6365471
  78.8522034  65.3195801   4.7820625  78.1551971  64.6889877   4.6010518
  78.4169998  66.0280533   5.2562938  58.8029900  44.7860336  28.5785789
  58.3828468  43.9592552  28.8155384  58.9848480  44.7026329  27.6425209
  25.1484489  71.3613434  89.3336868  24.2953053  71.6152039  88.9816513
  25.7815247  71.7395935  88.7234650  25.8393459  36.4795151  86.7513046
  26.5186653  36.6872101  87.3928757  26.1359005  36.8996201  85.9439621
   1.3049912  32.5164680  35.7426949   0.6644899  33.1111603  36.1329880
   0.8685488  31.6645775  35.7370872   8.4914360   6.0207434  76.6283951
   8.5991640   5.2375145  77.1680069   8.8740683   5.7840142  75.7835388
  62.2624702  34.8932686  60.0478783  61.9212379  34.0391121  60.3128471
  62.3169136  34.8438644  59.0935059  20.5813313  15.9344530  16.3817825
  19.7444706  15.8708506  16.8420544  20.7506313  16.8746262  16.3214188
  56.7567978   2.3014233  87.6820984  56.8687859   3.1737840  87.3043747
  57.6103249   1.8820009  87.5734482  69.2168274  44.2426720   3.1679299
  69.5857773  43.3594360   3.1696298  69.9174118  44.7955589   3.5139551
   1.2101953  48.1510849   3.4462790   1.7871287  47.4273796   3.2020781
   1.5552194  48.4602890   4.2838840  74.6158524  42.2976952  63.9496841
  73.8551712  41.7173042  63.9223747  74.3088608  43.1136551  63.5544662
  64.7440338   2.5416176  62.8172646  64.4990921   2.6059051  61.8941727
  63.9566040   2.2138760  63.2517471  76.5685806   1.7758321  30.2140102
  76.1248474   2.6092839  30.0568619  77.4678955   1.9244608  29.9218254
  77.2208939  15.4659605  25.5244789  77.4186630  16.1291370  24.8631802
  77.9264069  15.5495310  26.1659622  83.5893860  57.8907242  75.8757706
  83.6275024  56.9522285  75.6913605  83.0444946  57.9588165  76.6597900
  69.5259933  54.0210686  66.5972290  70.1479568  54.7259102  66.4166870
  69.5334244  53.9333954  67.5503769  32.4540977  24.5944118   0.1069166
  33.3818016  24.5752964   0.3419352  32.2702026  23.7117329  -0.2144725
  80.1941071  20.5799809  81.9583130  79.3905334  20.0657368  82.0361252
  80.0659485  21.3165169  82.5560760  71.2497406  19.8590565  38.4467316
  72.0312881  20.1666050  38.9059029  71.4942627  19.8737583  37.5214043
  10.1884518  36.7891388  38.5128098   9.9690113  36.4515457  39.3812027
   9.9298372  36.0904427  37.9118309  34.1926231  65.1102219  44.2135811
  34.0722694  65.1641006  43.2655067  33.3054161  65.0280457  44.5633545
  14.7164268  19.0417442  74.9570618  15.4058485  19.5332069  75.4036026
  14.9699163  19.0581779  74.0341873  10.9219732  44.0486221  48.5782661
  10.0966015  43.5843391  48.7176704  11.4041405  43.9310112  49.3967514
   2.3954964  44.6650314  43.8890495   3.0714915  44.5763588  44.5609131
   1.7714558  45.2899742  44.2581749  68.9258423  10.9238462   7.0894651
  68.8761673  10.6843386   8.0148840  69.6798096  11.5109682   7.0341563
   4.8731489   8.9490042  76.9344940   4.2834344   8.2251101  76.7236710
   5.6188374   8.5324202  77.3665161  57.3888245   1.4390980  14.2786989
  57.8270187   0.6351865  14.5578814  56.4948387   1.3518615  14.6094818
  44.6332245  46.2736168  64.6391220  43.9640884  46.5707397  64.0225143
  44.3801498  45.3755531  64.8528214  52.4704361  67.5858307   7.5786419
  51.7700005  68.0524063   7.1226540  52.9107971  67.0846939   6.8922162
  65.3460846  37.4930229  46.0555077  65.2985611  36.6678391  45.5727615
  64.6615448  37.4211349  46.7206917  37.7609024  70.0769958  28.3160057
  37.4169769  70.8818512  28.7034912  37.0245323  69.7146759  27.8233395
  30.1051273  66.9703293  32.7603569  30.3559780  67.7274475  32.2311287
  29.4033604  66.5516205  32.2619171  80.8360901  65.8432999  19.0698681
  80.8500137  66.7368088  18.7268295  80.0422897  65.4570312  18.6998596
   5.3998990  71.4851303  17.4665146   5.8466954  72.2684860  17.7873898
   5.9889235  70.7646866  17.6906681  76.7535477  31.9398842  84.1684570
  76.7027435  31.6505184  85.0794601  77.6882477  32.0736580  84.0114136
  23.1481628  67.4427338  48.0319939  22.4086037  66.9107895  47.7381859
  23.3150826  68.0430145  47.3053360  76.4464264   5.0759978  68.1953430
  76.3497162   6.0195069  68.3244553  75.5762863   4.7193780  68.3739853
  53.9573708  56.4193649  42.9040031  53.2966423  56.1122169  43.5247536
  54.7507477  55.9394875  43.1417122  43.5124550  59.1876183  32.3147545
  44.4193535  59.4823418  32.3978271  43.0023613  59.9955406  32.2573051
  48.0532875  42.1836739  56.1710167  47.9713135  41.3733215  55.6681824
  48.9915161  42.3732872  56.1684151   5.8220062  28.1820774  86.6285782
   5.3629498  27.6389008  87.2692490   5.8192949  27.6600857  85.8262405
  53.4324417   4.5146837  20.6239014  52.6251144   4.0473447  20.8384972
  54.0499840   3.8257461  20.3784714  26.3028316  39.0457458  80.8900909
  25.8383102  39.8711014  81.0287933  26.0203934  38.4872894  81.6143723
  26.5906639   9.5815144  37.0287285  26.4649734  10.5153618  36.8603172
  25.7357540   9.2755785  37.3316536  54.7685471  23.8203659   3.0844679
  54.6416626  24.2964287   2.2637994  54.5587692  22.9116096   2.8690987
  43.0325394  34.1074486  76.3259964  42.1180611  33.8570480  76.1946182
  43.4149132  34.0868568  75.4487305  34.3167038  15.1025896   3.3182700
  33.9871979  14.9928188   2.4263020  34.4352112  16.0474625   3.4152374
  49.7035713  69.9963684  32.8242531  49.8696327  70.3212891  31.9393330
  49.3714790  70.7574081  33.3004456  33.8769951  59.9700623  37.1887970
  34.4903412  60.0991821  37.9122353  34.0512924  59.0799294  36.8829880
  46.7064133   6.8721094  64.7385941  47.5106087   6.9285588  65.2546539
  46.0870018   7.4394994  65.1975327  23.7139988  21.1386127  82.9338760
  23.2994289  20.5012321  82.3524017  23.0201416  21.3956413  83.5411072
  41.9039574   0.3564649  48.1626663  41.4644508   0.6821402  48.9481583
  42.7740555   0.7542838  48.1926994  69.9916687  64.7173309  72.7084885
  69.4219589  64.9478149  71.9746399  70.0043793  65.5014725  73.2573013
  82.1309128  41.8857994  25.1594830  82.6434479  42.5342751  24.6767578
  81.5277557  42.4049301  25.6913929   6.4627452   8.0351124  25.1714325
   7.1654563   8.6391172  24.9314175   5.7488952   8.2470560  24.5699921
  45.6303329  67.1948013  72.5827637  45.2775574  67.4983215  73.4192200
  45.0887642  67.6280746  71.9230576  24.1354599  12.2916908  82.7495041
  23.6235428  11.7536860  82.1455841  23.5029030  12.5821095  83.4065933
  59.3121834  62.9528313  21.3851948  59.2916412  62.3627853  22.1386242
  59.2471008  62.3738708  20.6257191  71.9725800  61.5709457   8.7346601
  72.0344009  61.4595108   9.6833401  72.8563080  61.8207703   8.4647560
  68.9311066  47.5724335  45.4596291  69.7924881  47.1554756  45.4795723
  68.6052322  47.4919395  46.3560410  64.0304413  55.5568542  48.1951866
  63.1178474  55.3519630  48.3987122  64.0620041  56.5132790  48.1731148
  65.9707870  69.8636551  27.6721363  65.2127609  69.5749969  27.1639042
  66.1052856  70.7732315  27.4060230  38.3942337  18.9129448   9.4212904
  38.8784714  19.7302094   9.5388670  37.7797623  18.8909607  10.1548939
   1.2255765  52.2391357  70.5780640   1.0062970  52.1661797  71.5069504
   1.0732036  53.1604042  70.3676453   0.6414489  12.2043571  29.1544514
   1.1391817  12.1159477  29.9672718   0.9887784  12.9972773  28.7459526
  29.1780186  55.3773613  32.7183685  28.2849979  55.1311264  32.9594421
  29.5043335  54.6317406  32.2145805  47.3452454  39.0492325  42.1294594
  47.2596092  38.9409599  43.0766525  48.2657356  38.8586807  41.9488564
  48.7333870  45.2167969   8.9397802  49.2309341  44.3999863   8.9784756
  48.9189415  45.5692711   8.0693998  74.8411560   4.6218657  48.4171333
  75.6230011   5.1602325  48.5401001  75.1436234   3.8746743  47.9009399
  55.9946632  43.6169930  53.8648148  55.8084602  42.7176399  54.1344948
  55.8919830  43.6078148  52.9131851   9.3056383  69.3584824  53.8432465
   9.3580751  70.2405548  54.2112541   9.8706579  68.8298798  54.4067764
  42.8033295  13.9148970  18.5551376  43.0040665  13.5276108  17.7031136
  41.9272308  14.2856712  18.4492722  34.9776649  35.1515617  20.5417290
  35.6137314  35.0390816  19.8353291  35.5066338  35.3791466  21.3063393
  21.3218632  66.8760757  62.7057610  20.3845005  66.8212509  62.8917198
  21.3857403  67.4931259  61.9767952   9.3483124  15.8124189  12.5406971
   9.8290377  16.4237900  11.9827013   8.7802744  16.3696537  13.0727234
  65.2630768  68.4849167  84.9917984  64.5896454  68.6721344  85.6457596
  65.5081940  67.5740356  85.1544189  61.4176826  47.1955795  26.4870453
  61.7737503  46.9729004  25.6268921  60.4979324  47.4011459  26.3196239
  51.8693733  19.0875320  88.2538528  52.1959457  19.1780415  87.3586502
  52.3035889  19.7889938  88.7392731  12.9736156   3.2860570  40.5859489
  13.0416908   2.4386840  41.0258980  13.8126745   3.7133696  40.7580452
  62.9699974   3.6434724  44.7113571  63.1664276   4.5349822  44.4235077
  62.5239944   3.2435329  43.9647903   1.1353873  32.9951973  75.5053253
   1.8872371  33.0239143  74.9136124   0.4833448  32.4722137  75.0388947
  29.9559059  40.9613800  75.4137955  29.6961060  40.1623230  74.9552689
  29.5290070  40.8968658  76.2680969  12.2501354  27.0876408   3.2185247
  11.5424271  26.8807468   2.6081338  12.8951015  26.3937531   3.0815184
  25.3881989  41.1069412   8.8499336  24.7789288  41.4882355   9.4821024
  26.0233917  41.8025360   8.6799097  68.6744995  38.4019585  48.2857628
  68.1897278  37.6555557  48.6380501  68.0807495  39.1451263  48.3925095
  70.4854584  39.9561310  11.4972057  70.3506393  39.1261024  11.9544868
  69.6167679  40.3570290  11.4674139  86.7910233  52.3791618  41.8625832
  86.9180145  52.4794044  40.9191551  85.8836746  52.6450768  42.0117035
  55.0475121  26.9265747  67.3553696  55.2696342  26.9688549  66.4252548
  55.0610657  27.8383141  67.6465378  69.7662888  71.8332138   3.5951660
  70.3383255  71.0788498   3.7363551  68.8834839  71.4963074   3.7480445
  79.2868805  60.4195938  53.4913216  79.3780823  59.4716759  53.3945694
  78.3479538  60.5584564  53.6152763  12.9817476  51.7218704  67.2033768
  12.1661501  52.2066383  67.0767593  13.1408319  51.7628975  68.1463699
  42.5502434  28.1365910  77.7382202  43.1547050  28.7587643  78.1428909
  42.0539932  28.6596985  77.1086731  64.0087814  14.8059883  45.5923462
  64.2269669  14.9421644  44.6703491  63.1407166  14.4029655  45.5760536
   3.2355804  13.9748220  77.1374741   3.3179266  13.1303463  76.6944046
   4.0171552  14.0342646  77.6868744  84.8120880  14.9782333  18.8442745
  85.4136047  14.3447676  19.2355862  85.2223587  15.2161131  18.0128155
   8.3248034  43.3201637  21.5343342   8.4096212  43.8227463  20.7241192
   8.7511883  42.4846573  21.3436623  47.5966225  63.0963478  75.5734024
  47.1923523  62.2669411  75.8281021  48.5295601  62.8953438  75.4995193
  23.3869762  42.2410660  10.6517410  22.9275837  41.6967163  11.2911730
  23.0219860  43.1170731  10.7767286  11.2795286  40.9658127  65.9219055
  10.7411032  40.3710098  66.4439621  11.8687944  40.3900795  65.4345398
  50.2575531  45.8364639  85.0088120  49.4626579  46.3688126  85.0400620
  50.8680725  46.3485565  84.4784775   0.5557803  37.0643654  58.0697441
   0.4568992  36.3410721  58.6888542  -0.3382393  37.3666687  57.9098206
  40.2701569  11.1971798  82.4355469  41.0634193  11.1862965  82.9711304
  40.3827400  10.4678583  81.8259201  18.6686211  12.5548363  29.1597805
  18.1954823  12.5005169  29.9900932  18.1126804  12.0874681  28.5362988
  64.6731796  30.5931873  49.7894211  64.5130386  30.5866909  50.7331085
  64.7189560  31.5215168  49.5606384  42.7858810   6.1820064  15.7542372
  42.0467606   6.4432435  16.3034992  42.4387703   6.1976023  14.8623276
  27.0872707  64.5563812  67.3813324  26.7083111  63.9407310  66.7539597
  27.1137886  64.0717316  68.2063446  86.5566559  21.4467983  49.3963585
  85.8635483  22.1041565  49.4572372  87.1448975  21.7809849  48.7192116
  70.7259979  21.2224026   0.2911906  70.8678284  20.4913979   0.8926472
  71.3201752  21.0503006  -0.4392644  10.4480820  53.4510994  62.2451973
  11.1302328  54.1186943  62.1729355   9.7362137  53.7753677  61.6935387
  76.4433594  23.4924431  57.9610367  76.6956711  23.2071323  58.8391991
  77.1873779  23.2530861  57.4084320  69.6197052  14.6935701  33.6193657
  68.7127228  14.3906860  33.6627541  69.8908081  14.7697229  34.5342064
  85.0622101  16.3468094  63.1656837  85.5871735  16.3979855  62.3669128
  85.2755280  15.4912100  63.5380783  27.2778969  40.0316429  64.0847931
  28.0245438  39.4959717  63.8168297  27.4205723  40.8742142  63.6535721
  80.6116028  24.3027248  56.2524376  80.5742874  24.8427963  55.4630318
  81.1878891  24.7848492  56.8454666  71.6415482  67.2672119  81.6715927
  71.8682480  67.1573639  82.5950470  70.6848602  67.2969437  81.6617203
  34.6322632  64.8063660  32.7592163  33.7212944  64.9571228  33.0114937
  34.5812531  64.1681442  32.0476646  50.8682747  24.4632549  12.3005524
  51.4473305  24.0999813  11.6305075  51.0467491  23.9389172  13.0812244
  68.6836166  11.4869089  33.4532852  68.5082321  12.4266415  33.5019913
  68.0268097  11.1520004  32.8428154  36.4833832  59.8950615   2.6210446
  36.7016830  59.8203011   3.5500162  37.0781136  60.5673790   2.2886028
  25.7575493  42.9214706  24.3166046  25.7597256  43.4090462  23.4928970
  26.6830235  42.7667656  24.5058041  66.1170349  46.5843506   3.6311774
  67.0367737  46.7880707   3.8009355  66.1376038  45.7374649   3.1855433
  42.5607948  58.5133514  14.7392092  43.2213058  59.2006874  14.6524487
  42.1206741  58.7072144  15.5668201  51.8366623  10.6876841  83.3970261
  51.8609810   9.7417879  83.5416641  51.5282097  10.7843571  82.4960556
  33.1928749  42.5423851  84.1614456  32.3388443  42.6482773  83.7423477
  33.5338821  41.7215691  83.8061905  73.3696213  30.7335930  71.3477478
  73.7210846  30.2492962  70.6006470  72.5382004  31.0886803  71.0333099
  69.6535110  67.6053848   0.4299443  69.0401611  67.8218765  -0.2723142
  70.3455048  68.2624130   0.3545730  80.1307678  41.4877701  58.6902466
  80.4484940  42.1714211  58.1004105  80.2067566  40.6795387  58.1830788
  60.8971481  13.9815531  14.1776857  60.3166237  14.7228937  14.0055313
  60.5373878  13.5734720  14.9652596   1.4222224   7.4579701  51.3031006
   2.0340025   7.8220243  51.9429588   1.0339242   6.7031670  51.7455101
  72.6987534   8.1408625  74.1494904  72.9208298   8.7107477  74.8857880
  72.2617950   8.7180004  73.5232162   6.5611968  51.8291321  33.8522987
   6.6911054  50.9703560  34.2546120   5.6210346  51.9907646  33.9310455
  56.9149323  16.7188568  78.8022308  57.7909355  16.9648361  78.5050049
  57.0406418  15.8838816  79.2530594  74.0725327  26.4736500  47.1919098
  73.5671997  26.4513664  46.3792725  74.9841232  26.4009552  46.9091568
  83.6392288   0.5819219  74.7040482  83.4227066  -0.1057077  74.0743561
  83.3535004   0.2323707  75.5480881  18.9231319  25.8769684  10.0770283
  19.7623386  25.5870533  10.4346771  18.8500824  26.7918072  10.3489962
  81.6052399  43.2919846  67.9086456  80.9517517  43.1940651  67.2161102
  82.1325302  44.0428772  67.6359634   0.8838133  50.2589569  43.0594215
   0.9422029  49.6849670  42.2956429   0.4950468  51.0663948  42.7230644
  72.7924118  43.7630196  23.8298092  72.1373062  43.2171631  24.2646828
  73.5337143  43.7756805  24.4352303  10.6400318  49.0916405  32.5220909
  10.1252317  49.6966438  31.9880638  10.5759649  48.2537003  32.0638504
  18.2814369  70.1413574   2.0954459  19.1253109  69.6900253   2.0752566
  17.7921963  69.7034225   2.7919247  83.3306503   0.0096845  14.4144812
  84.1197510   0.5377692  14.2933111  82.8625488   0.0842110  13.5828838
  84.9913330  46.1724701  65.8556747  84.7792587  47.0326195  66.2181625
  84.1413574  45.7820854  65.6522675  15.8553572  68.1526947  28.4995098
  16.5096149  67.4558487  28.5503101  15.5078154  68.2202301  29.3888264
  76.6433029  25.9590092  76.1558533  77.4867172  26.3991737  76.2613907
  76.0950928  26.3217850  76.8516159  28.4691925  39.0605965  14.7645559
  29.2327099  38.4833336  14.7709026  28.1919460  39.0809784  13.8486128
  62.3858757  61.6624870  57.7671204  62.1171646  60.8062210  57.4342041
  61.6297874  61.9740906  58.2645798  69.4213943  10.6109896  61.6878815
  68.9424820  10.6402979  60.8596191  69.3334732   9.7048197  61.9834442
  81.2525787  42.3595161  56.1393051  81.8461151  41.6088371  56.1599236
  81.8011627  43.0908890  55.8557968  69.4116745  25.2018166  77.9530792
  68.6687546  25.5376110  78.4546204  69.3158798  25.5996017  77.0877304
  26.4134140  70.9312897  51.6237907  26.8705044  70.4018631  50.9703369
  25.5337276  71.0478134  51.2648888  15.2658796  24.2854004   0.3605072
  15.4000711  23.4609013   0.8278698  14.6022053  24.7463188   0.8736551
  44.6670341  20.0346413  81.5991211  44.6245842  19.2441826  81.0609741
  44.7833061  19.7104187  82.4922028  54.8145981  42.0411606  15.5039625
  55.2618294  41.1966324  15.4492340  55.2795601  42.5992470  14.8806000
  11.5738010  12.2084303  66.0324631  12.2738514  11.9374771  65.4385376
  12.0098648  12.7628708  66.6795197   1.3167658  23.7062855   7.9534693
   1.4562215  24.6269016   7.7315507   0.8843678  23.7285385   8.8071489
  69.5048218  69.5395050  83.4499969  69.0536423  70.0019531  82.7437286
  69.0952911  68.6745605  83.4698715  37.7139931  43.8406906  19.5150871
  37.7643051  43.1479683  18.8564224  36.9049683  43.6583939  19.9930801
  77.8590317  33.7806396  40.2199707  78.0032196  33.6395226  39.2842751
  76.9070129  33.7743263  40.3192329  60.3850212  31.2487774  14.6031675
  61.0310593  31.2227459  13.8973436  59.9906311  30.3766117  14.5991621
  80.4065933  62.1284599  19.1365223  80.5952530  61.1910477  19.1800785
  81.2579041  62.5370789  18.9798717  60.7444305  11.9272041  80.8789062
  60.1112442  11.2195692  80.7582397  60.4313927  12.3997602  81.6502228
  13.4719601  49.7245522  70.5522842  13.4902906  50.6766090  70.4548874
  14.2893629  49.5141945  71.0037613  20.5347214  69.3177109  78.0644531
  20.2069302  70.1954727  78.2602005  19.7718239  68.8462372  77.7298889
  71.6968384  67.8616180  69.5933838  71.3966522  66.9741440  69.7896194
  72.1444244  67.7822952  68.7510071  56.3701515  56.1761398  16.5068436
  57.0150375  55.5434456  16.8231564  55.6168442  55.6433334  16.2521362
  62.3130684   3.0751345  15.8133087  61.5412216   3.1328621  16.3764725
  62.6461601   2.1887925  15.9535904  41.2466698  30.8704586  80.0487900
  41.0918427  30.3911552  80.8627472  40.7655678  31.6906528  80.1585922
  76.4686508   3.6977389  74.2925873  77.0754776   4.2635145  74.7699738
  75.8674011   3.3721681  74.9624634  77.3495789  10.3877039  21.0964813
  76.8790588  10.2216702  21.9133530  76.9922943   9.7484436  20.4800987
  66.3436813   5.0095806  55.6633835  67.1921158   4.5696669  55.7169266
  66.5578384   5.9424543  55.6526489  19.4072266  48.3985443  52.9913406
  18.4821129  48.4336777  52.7481117  19.4034061  48.1270866  53.9092331
  17.8013172  67.7874985  80.0145035  17.0351028  68.3575211  80.0794601
  17.9533920  67.6969223  79.0738068  80.4773026   9.3386383  20.5248547
  80.2047501   8.4985380  20.1558323  80.2565918   9.2749662  21.4540825
  59.2486267  10.9667606  87.9261017  60.1625328  10.6853857  87.8832550
  59.0652313  11.0433044  88.8624496  47.4157791   1.4174246  28.9117260
  47.9867172   1.6287243  29.6503830  47.9441528   1.6113249  28.1374817
   5.2990136  49.2859306  54.1231499   6.0681767  49.5264854  53.6066704
   4.8164129  48.6766052  53.5645332  58.9132462  30.6411686  17.9889221
  59.6087952  30.0806580  18.3328342  58.2846794  30.7110386  18.7074280
  68.6927109  31.8317528  41.4890671  68.3512955  30.9865494  41.1970139
  69.5048752  31.9455070  40.9954224   2.5425653  56.7872581  71.7277679
   1.6998982  56.5124474  71.3663406   3.1909711  56.2935982  71.2256699
  78.7477798   1.0247316  23.2839355  79.0424347   0.4284039  23.9722710
  79.0452271   1.8879452  23.5713768  85.8291626  25.5435162  48.3085403
  85.0065536  25.5986500  47.8222122  85.9903564  26.4380283  48.6086998
  48.0224228  59.0576515  46.6600533  48.3039703  58.1439705  46.6136742
  48.5154076  59.4231987  47.3946075  80.1836777  11.6159792  43.2677269
  79.4488449  12.2260227  43.2037163  80.9303207  12.1029539  42.9189949
  80.3737564  42.8150864  71.4976120  80.2924652  42.4662209  72.3852615
  79.9386749  43.6669006  71.5342789  37.6966171  41.3179207  43.5254860
  37.1385994  40.8751564  44.1648674  37.0838356  41.7064896  42.9011917
  19.4276295   7.1847782  28.0730190  18.7979355   7.7427602  28.5294971
  20.2302532   7.7053933  28.0415897  23.0126381  31.3232746  74.9690628
  22.1593227  31.6590233  74.6945419  22.9544392  30.3781433  74.8291626
  24.0182934  49.7547340  22.5805283  24.1042881  49.6522598  21.6327229
  23.2520885  49.2287941  22.8097610  26.4047661  70.9800491  56.4363251
  26.9188347  71.1003571  57.2347565  25.5032787  71.1611557  56.7023163
  38.9283295  20.0609035  78.6165543  38.2613487  19.7450161  78.0069809
  38.6792831  20.9676991  78.7952499  38.6523819  27.7632675  85.3730011
  39.5335579  28.0889091  85.1893692  38.6071739  26.9236412  84.9156036
  37.2016983   0.6449964  61.9738464  37.8930130   1.0789719  62.4738312
  37.5150337  -0.2523981  61.8609924  16.5483055  67.0820618  24.5643578
  16.8255901  66.4464035  25.2241192  16.4504261  66.5680847  23.7628078
   8.8260479  32.7432022  20.2804413   9.0899992  32.9803505  21.1694431
   8.9941492  33.5305023  19.7626266  58.2373009  70.4804077  71.9106827
  58.0795822  69.6291275  71.5024033  58.4440689  71.0622101  71.1792603
  65.5619583  23.3299904  51.7418594  66.3266754  23.4769268  51.1852112
  65.7934570  23.7337170  52.5783081  24.2481880   0.8205169  57.6748543
  24.2063217   1.4099722  58.4278641  23.5065231   1.0782791  57.1273842
  22.8359337  31.6195850  15.6419792  23.6284103  31.3760414  16.1204128
  22.8232708  31.0334015  14.8853693  49.2852745  -0.1898637  59.4877243
  49.2666206   0.7665541  59.5216141  50.2141914  -0.4134980  59.5454407
  76.6675415  41.9480400  28.5150089  77.1382675  42.4498138  29.1804981
  76.5036545  41.0993919  28.9263077  86.5810242  22.9858246   1.5875034
  86.8358917  23.9084034   1.5764666  86.6314163  22.7344360   2.5097272
  48.4066544  53.8919563  11.0454559  48.8573532  53.3438759  11.6878834
  48.8699951  53.7283974  10.2239952  14.3187561  58.1241264  15.4054832
  13.5617790  57.5490341  15.5172138  13.9577198  58.9235611  15.0223475
  72.9227066  66.3219147  60.1562424  73.5256348  66.8302460  60.6987419
  72.1941605  66.1116180  60.7403908  78.0024872   3.4840834  36.3119698
  78.1338959   4.2117791  35.7041664  77.1633530   3.6718004  36.7324905
  74.6092606   7.5640192  84.8950577  74.6548157   8.2052526  84.1858521
  75.4560089   7.1183705  84.8697815  55.1439171   6.7176495  82.1469955
  56.0280533   6.5283298  82.4611511  54.6048508   6.0155187  82.5112152
  73.6396408  18.4498959  26.5352612  73.2743149  19.0071011  27.2224941
  74.5876465  18.5317421  26.6392574  54.3239937   0.7078730  17.7697277
  54.9850426   0.3595809  18.3680058  54.5182419   1.6436530  17.7166691
  30.1094913   3.5498793  20.3007774  29.5272923   2.7911692  20.3412170
  30.9694881   3.2049282  20.5408783  74.5623016  44.7328072  87.2221222
  73.7717743  44.8168831  86.6889877  75.1962357  44.3070030  86.6450195
  57.3973160  58.1998520  41.3611565  56.7595749  57.7972527  40.7717209
  57.8921013  57.4624405  41.7184372  26.4995022   3.2954557  47.6333275
  26.2376976   3.7696729  48.4225082  25.9046230   2.5465083  47.5955162
  65.3579254  38.7832756  21.0289288  65.2498398  39.6725159  20.6915798
  64.8927383  38.2306557  20.4008865  33.2693634   0.8299699  76.1940613
  34.2259560   0.8368546  76.2274323  32.9972343   1.1183089  77.0652847
  44.6954994  41.3689804  66.8036118  43.8794250  41.8676147  66.7633591
  44.6910248  40.9722099  67.6746902  81.5736694  31.6306858  12.6134682
  81.8602524  30.7471466  12.3822632  82.3751297  32.1538391  12.5992975
  72.8807068  67.6808319  66.9745255  72.4981766  67.0266342  66.3897781
  72.3940201  68.4834595  66.7870178  84.1378326  33.4644547  66.7314987
  83.2255020  33.2193031  66.5772858  84.6456299  32.7410088  66.3640747
   5.5971212  68.2309418  35.7391586   5.6875725  68.9414825  35.1041946
   6.4927731  67.9284668  35.8893356  11.8093119   5.8796253  31.8621254
  12.7468948   5.6965861  31.9226704  11.7543116   6.6754060  31.3330326
  70.2319870  35.9808693  67.9770126  69.9488144  35.0830498  68.1501160
  70.9396744  36.1337318  68.6031494  45.5211601  47.0359306  12.8872948
  46.1858826  47.5469856  13.3490314  46.0209961  46.4590683  12.3096895
  19.7610474  57.4697342  74.8977432  19.3620338  57.6627350  75.7461319
  19.9925880  58.3273888  74.5413055  41.2695274  51.1721725   0.8470409
  40.6889572  50.7424660   0.2189324  40.6825256  51.6799774   1.4072160
  16.1100807  51.3502579  39.5260696  15.9981499  50.4742470  39.1568680
  16.4534397  51.8733788  38.8017197   6.9943285  29.2850990  72.3812332
   7.5764933  28.5796261  72.0990601   6.6399760  28.9831333  73.2175903
  62.0075912  19.1675377  55.7006035  62.1567612  19.4688454  56.5968170
  61.3799095  18.4504623  55.7903519  55.4869080  69.0107269  40.5649986
  54.6269073  69.0615234  40.1478004  55.4243889  68.2569199  41.1516075
  12.2781372  55.9245148  10.8570890  12.1313000  55.6938667  11.7744074
  12.1124868  56.8664398  10.8174810   2.5828261  24.4406281  47.1485100
   2.6491282  24.3589058  48.0999069   2.4575758  25.3773823  46.9967270
  62.1098251  34.1455307  21.5778599  61.4266319  33.6386185  21.1390896
  61.6392670  34.6741142  22.2223816   4.5965300  55.3924866  42.0738525
   4.4144478  54.7329597  41.4044495   5.1298809  56.0484467  41.6249809
  37.6130562  65.9829865  61.7912483  36.7436447  66.0159149  61.3921623
  38.2163429  65.9508438  61.0487938  20.1063766   9.1606007  62.9553185
  20.7976723   8.6648855  62.5164490  19.8561764   8.6144228  63.7005196
  56.2588844  71.0058365  65.2526245  56.9641991  71.4869843  65.6853561
  55.7817612  71.6727982  64.7589111  23.1078777  43.5437775  15.9771194
  22.5250549  42.7882156  15.9017801  22.7616367  44.1769905  15.3483162
  47.3246765   8.7097874  47.9918480  46.5862808   9.0180321  48.5171967
  47.9522285   8.3763657  48.6331253  74.1293030   6.1200514  45.7780609
  74.2421570   5.7942529  46.6710052  73.1845779   6.0852537  45.6280136
  50.1716652  65.2250061  42.8907928  49.2997398  65.0101242  42.5594292
  50.2171478  64.7924728  43.7434807  73.0014420  67.4419022  46.9433022
  73.5862350  66.8624649  47.4316673  73.3069992  67.3830185  46.0380974
  31.8774433  45.1598930  11.7211533  30.9623508  44.8831749  11.6735487
  32.2269745  44.9827538  10.8478365  20.1160603  42.0086288  77.6200180
  19.6024990  41.7842140  76.8440552  20.5274467  42.8448029  77.4013672
  50.9962959  40.2316322  32.3015366  50.8782997  39.4072571  32.7734642
  50.1074295  40.5125237  32.0841637  19.2698517  44.6732330   2.2964649
  18.5456505  44.8035240   1.6842630  20.0535603  44.6884308   1.7471007
  85.6189804  52.8196526  18.6914349  85.2956161  53.6271248  19.0909977
  86.5720520  52.8917160  18.7433529  79.6020813  37.4101372  49.2054787
  79.5583038  37.4292870  50.1614876  80.5369186  37.4653816  49.0073662
  13.1371984  69.1289749  57.0688362  12.7461500  69.8847275  57.5071793
  12.3973532  68.5509796  56.8823280  57.4262085   9.7700090  41.1089897
  56.6526260  10.2414227  40.7998428  57.6486588   9.1776915  40.3907204
  43.4653664  66.4341965  68.6351776  42.5789261  66.6654892  68.3577576
  43.8614502  67.2673340  68.8905792  68.7957458  54.4550476  54.9903870
  68.8348389  55.4113274  55.0054932  68.0575790  54.2364960  55.5592308
  15.8474894  43.2094841  14.5242434  15.2622538  43.9600449  14.4223309
  16.3261929  43.1649055  13.6965427  53.0912285  37.2073631   3.9059381
  53.3541565  36.3184586   3.6673093  53.8636551  37.7425995   3.7239797
  26.0590858  67.0011139  87.2102127  25.6758995  66.1270599  87.1365814
  26.1776619  67.2877197  86.3046570  37.2572327  70.2438583  42.5977173
  36.9962578  70.8272095  43.3103294  38.2046089  70.3610001  42.5270576
  60.0624199   1.8379114   1.0979418  59.6723404   1.9516740   0.2312654
  59.3539162   2.0424428   1.7082055  74.4897690  24.6868019  19.3445263
  73.7193909  24.8931007  18.8151932  74.3758316  23.7673626  19.5851173
   0.5797104  22.6813011  70.8040771  -0.1214285  22.4516487  70.1942444
   0.1301916  23.0946045  71.5411987  63.7668457  47.9319229  12.6176720
  63.7184219  47.7465935  13.5555105  64.7028503  47.9145050  12.4181013
  50.4023132  56.6059875   8.7097578  50.3524590  55.6938553   8.4238224
  49.4902573  56.8928871   8.7553625  72.1049881  32.9168701  86.5275269
  72.8881531  32.3750801  86.6242065  71.3777924  32.2955742  86.5651474
  10.4515753  26.8748360  76.5964813  11.3140802  26.6631889  76.2393799
  10.2456770  27.7353039  76.2312012  63.2378807  38.7873116  17.1522446
  62.7529411  38.5102158  16.3748875  63.3884773  39.7232399  17.0196018
  63.9248505   8.7208328   4.9871511  63.5193977   8.1110964   5.6036434
  64.7788620   8.9179649   5.3719049  19.5501022  63.7304115  79.1985168
  18.8536453  63.7563019  79.8546448  19.7762794  62.8031693  79.1257629
  40.6409798  48.4397888  41.0142250  39.9359741  48.4170074  41.6612816
  41.2479286  47.7558250  41.2971344  46.8008614  19.7439003  64.9057922
  47.6649551  19.7399120  65.3175659  46.9596519  19.4378128  64.0128555
  24.6942463  28.2389832  86.1489944  25.4062595  27.7390079  85.7498779
  24.1486969  27.5790424  86.5768738  10.8081102  34.5355339  72.0060196
  11.4278498  35.2648430  72.0222855  11.3548927  33.7592430  71.8850479
  86.3922729  27.4498768   2.8144379  86.9376526  28.2137280   2.6264923
  86.6313934  27.1985207   3.7065563  76.0208435  14.7511425  34.7844543
  76.7692337  14.9375772  34.2175484  76.0505295  15.4354372  35.4531021
  86.1900406  57.6240616  23.2120094  86.9503403  57.0599556  23.0706997
  86.3863907  58.0917664  24.0237560  75.1773148  33.7148590  40.4600296
  74.7073898  33.8636513  39.6395035  74.8342819  34.3802299  41.0565529
  60.5193253  17.8701248   7.5591507  60.0723457  17.0709629   7.8380394
  61.4243813  17.7513275   7.8472357  51.9531898  60.3243408  32.3982239
  51.7965164  59.5222931  32.8966255  51.4530945  60.9960098  32.8619041
  22.4812641  24.6289978  16.8295193  21.8605442  24.3917046  17.5184517
  22.2308617  24.0841007  16.0834503  79.4393234   2.2227345  29.1498852
  79.9815826   1.5183667  28.7948437  78.9015121   2.5067534  28.4107494
  18.7954655  38.0714912  10.8549337  18.4556141  37.3739471  11.4154396
  19.7126083  37.8380394  10.7114725  51.5732765   8.4445076  38.3036842
  51.3152924   8.7090902  37.4206963  51.8935204   9.2493820  38.7109375
  61.3697586  32.0627098  51.6698570  61.1311378  32.9421425  51.9629250
  61.0287018  32.0069466  50.7772179   1.7587527  15.5678263  11.5056543
   1.5274303  15.3495770  10.6028309   2.7084775  15.6858635  11.4877176
  38.7145195  49.9557533  66.0183411  39.5843430  49.6724091  66.3000412
  38.2624168  49.1449699  65.7849655  38.4104881  39.3554611  70.7628555
  38.6815224  39.9968414  71.4196625  38.4695892  39.8250504  69.9308548
  83.8884735  50.7894249  12.1596231  82.9720612  50.9779854  11.9574633
  84.3184509  50.7475281  11.3054609  20.0247154  14.8588018  88.6416016
  19.2139091  15.1593580  88.2311249  20.4592190  15.6615829  88.9296646
  30.5927963   7.9657254  74.2826157  30.6721458   7.5800600  73.4101486
  30.6240025   7.2176108  74.8789215  55.6686249  10.3087721  79.8099060
  55.0814056   9.5573864  79.7273026  55.1328926  10.9874306  80.2205658
  55.1295052  24.0777416  78.4209595  54.2985039  24.4820786  78.6703186
  55.3958473  24.5460644  77.6297760  23.5035172   4.1152544  84.9128265
  23.6799431   4.8595476  85.4882660  23.7493534   4.4233499  84.0405426
  57.9079285  51.2453880  58.1321106  57.5680199  51.7572975  58.8660355
  57.2632751  50.5489845  58.0069084  59.1026382  54.7963409  71.0724945
  58.9109650  54.5367966  71.9736786  59.4308434  55.6925049  71.1460037
  48.5950089   9.1011362  86.2944794  48.4130211   9.8854008  85.7767487
  49.4302559   9.2860918  86.7238770  79.0413437  67.0491714  73.5967026
  79.5921783  67.4700317  72.9366302  78.4912338  67.7555313  73.9353333
  52.4795456  -0.1842732   8.9265394  52.9342155  -0.1634374   8.0844746
  52.0163574   0.6522982   8.9694033  57.9297066  19.7900658  69.1975479
  57.6392021  19.9852905  68.3066330  58.7410088  19.2954407  69.0819473
  56.0758858  21.4446106  49.3011742  56.9749870  21.7479153  49.1752739
  56.1563110  20.6953049  49.8913460  56.4583549  62.3224716  17.5292702
  56.5048714  62.0249062  16.6206875  55.5542068  62.6169930  17.6388512
  85.5126266  17.4262867  68.2345963  85.5571823  17.6424408  67.3031845
  86.2745209  17.8607368  68.6180038  12.6515207  61.6863556   3.4416263
  12.2033110  61.6534500   2.5964892  12.1589851  62.3315125   3.9489877
  54.1481667  57.0606384  83.7322693  54.0920753  57.9827843  83.9827347
  54.0973320  57.0685387  82.7764511  58.9697113  26.7124500  31.9722176
  58.4676552  26.0282478  31.5294533  58.3063202  27.2960339  32.3404236
  12.8137589  68.4053726  72.1807556  13.4508114  68.1907196  72.8621597
  12.4577532  67.5589447  71.9104843  72.3555603  43.0679893  75.6467133
  73.1686096  43.5410805  75.8238220  72.5951004  42.1441689  75.7203064
  85.0584793  42.3840866  25.4591827  84.2237244  42.6715012  25.8290615
  85.4405594  41.8252411  26.1358929  78.4074631  -0.3109897  57.2144241
  77.6075363   0.1929795  57.3639793  79.0005875   0.3037182  56.7824898
  59.7720909  50.6128578  80.5400925  59.4386292  50.1220398  79.7890091
  60.5414734  51.0722351  80.2035522  36.1723862  45.3985252  22.8299179
  35.9393387  45.2354965  23.7438869  36.7294884  44.6583405  22.5890961
  50.9353828  13.9883213  44.4382095  51.6132469  14.5066519  44.0045471
  50.3654556  13.6961746  43.7268257  54.9604874   6.4882755  87.9240036
  55.1981926   7.0683584  88.6473541  54.0205536   6.6254549  87.8059311
  24.2985096  46.0868530  74.2743607  24.2118244  45.7599525  73.3788986
  24.5095463  45.3107071  74.7932968  74.1380768  22.9075203  22.5227718
  73.4795151  23.4444332  22.0820179  73.8267593  22.8396320  23.4253826
  48.9226685   9.0494757  79.8805161  49.0183334   9.7455883  79.2305145
  49.1056976   8.2437420  79.3972702  10.5215807  61.2558174  34.7282448
  10.4523478  61.2260590  35.6824722  11.2500944  60.6699867  34.5225754
   5.7333584   1.2769600   2.8553805   4.8599463   1.6008573   2.6352143
   5.6177602   0.3333554   2.9670908  60.0538559  26.4197731  17.6847420
  60.3102303  27.1909714  18.1904659  60.6859016  25.7467518  17.9373131
   2.2748072  40.1211472  74.3009491   2.8347793  40.4022713  73.5773239
   1.4223067  39.9614334  73.8960266  47.9414330  43.8530998  13.0227718
  47.6844025  43.4167213  12.2105284  48.3853874  44.6510925  12.7358170
  49.7695389  24.8682899  34.6239281  49.5763817  24.3966656  33.8136864
  49.3235741  25.7092991  34.5236664  85.4207993  21.3935432  78.1896439
  86.1227493  21.9818516  78.4678421  84.8999405  21.9143848  77.5783691
  77.6222534  11.8846312  17.1437740  77.8884277  12.3571577  16.3550396
  78.4235840  11.4605703  17.4508152  -0.1122907  56.0949097  67.2553711
   0.7051598  55.5970650  67.2679291   0.0413783  56.8229256  67.8575439
  77.5257416  33.0603714  68.6352234  77.8050003  32.7128639  67.7881851
  76.5764160  32.9380760  68.6430740  63.0399666  14.2328491  28.0746708
  62.9882812  14.7343121  28.8883648  63.5762672  14.7728786  27.4941730
  67.7336121   8.3446493  83.5361099  67.6680908   8.3233232  84.4908295
  68.6726456   8.2887259  83.3591690  48.0919876  38.1958809  24.1396580
  48.7650719  38.7873230  24.4763908  48.4440536  37.3193703  24.2946053
  81.0972290  68.1221085  38.6388016  80.4174118  67.6276398  39.0965996
  80.6222839  68.6289749  37.9802017  13.0314856  47.9116783  27.7852955
  13.5388041  47.2339783  27.3385506  13.2847157  48.7260475  27.3506584
  54.6385765  13.4718781  58.9633331  53.9009895  13.4943504  59.5729980
  54.3400726  12.9117861  58.2467957   3.4345913   4.0996246   5.8318410
   2.6476297   4.5640364   5.5468063   3.9734528   4.7734718   6.2463164
  22.5253162  45.8407860  11.1483974  21.8406506  45.2197647  10.8998070
  23.3429451  45.3599243  11.0200033  84.0822449  48.9075394  59.2700996
  84.1736526  48.1037178  59.7817116  83.3615036  49.3776398  59.6893539
  19.1053009  25.3245163  59.6244125  19.1196289  25.0839462  60.5507774
  18.4037018  25.9720497  59.5559387  13.3688478  63.1238022  72.2807312
  13.2133541  63.4615059  73.1627808  14.1708488  63.5611191  71.9947662
  60.3534889   0.4423284  49.1396866  60.9461174   0.2269239  49.8598404
  60.7906990   1.1558484  48.6749649  67.0841675  34.1365776  27.0360565
  66.6127472  34.1718597  27.8683720  66.4089050  34.2764778  26.3722153
  58.7689972  16.8896141   0.2453547  57.9072418  16.9788551   0.6523511
  59.0008392  15.9699507   0.3745955  23.6808777  58.2971191  64.1014709
  23.7096310  57.3595505  64.2921677  22.7482319  58.5125237  64.0989151
  62.3952675   8.8490582  19.0345097  62.5038605   8.3926239  18.2001801
  61.5175056   8.6053267  19.3283844  22.6923046  16.4172707  12.8705835
  22.9773922  15.5036135  12.8569384  23.3885193  16.8784504  13.3383760
  76.3249664  55.8753510  78.9760742  76.1333160  56.3452187  79.7876968
  76.4950027  56.5650406  78.3344727  61.2317772  59.5326080  88.0483856
  60.7826500  58.7329102  87.7745361  61.3317719  60.0391502  87.2423782
  15.6922722  62.0816917  16.6616650  16.2998638  61.6834946  16.0383644
  16.2386551  62.3176651  17.4113407  71.4693680  14.1191578  48.4259415
  72.4149704  14.1981134  48.5517540  71.0911179  14.7145033  49.0730286
  50.8065529  68.7327042  41.4266891  51.0410500  69.1109772  42.2741280
  49.8729858  68.9209213  41.3304749  -0.2402847  54.8282547   3.3671436
  -0.0063484  55.0738602   2.4720547   0.2790408  54.0438194   3.5437622
  53.0533104  36.0923615  80.1231003  52.2366791  36.0401268  80.6197052
  52.8150673  36.5520592  79.3180237  80.7542572  49.8564110  51.2221832
  81.3793869  50.5296249  51.4909286  80.2417603  50.2692375  50.5270958
  23.7832565  64.3233414  23.7167015  24.0321445  63.4522820  24.0257893
  24.3741970  64.9188995  24.1774998  34.9469185  31.7287941  77.1879654
  34.0280647  31.5087910  77.0345383  35.4309311  31.1792126  76.5715866
  79.9958038  42.7538757  53.4604836  79.4339905  43.5101166  53.2910881
  80.0467224  42.7023392  54.4149399  59.6514473  69.2171860  59.3450432
  59.3368645  70.1010132  59.1549950  60.6051178  69.2989426  59.3530083
  86.8045654   1.0605372  10.6947680  86.6783905   0.3502547  11.3239012
  85.9587784   1.5077778  10.6656580  64.3173904  41.3645630  47.2722855
  64.9766693  42.0559349  47.2123680  63.4808311  41.8248558  47.2050171
  32.6424141  14.8019838  81.9507141  33.2181511  14.6026917  82.6889877
  32.1615677  13.9889727  81.7957001  35.6731110  22.0063839   3.6127372
  35.9495735  22.9166183   3.7189090  34.7766762  22.0653248   3.2823336
  39.3638649  14.6186581   1.9273156  40.1092644  14.0732403   1.6760596
  39.7567558  15.4404716   2.2214065  74.2159653  40.6279716  17.5718555
  74.6682816  39.8229637  17.3196545  73.7641678  40.9082756  16.7759018
   0.5539896  42.2527733  79.8395386   1.2128028  42.6847572  79.2958603
  -0.1124900  41.9576454  79.2191086  74.1984329  51.9963455  76.8432236
  73.8039856  52.7714577  76.4434204  73.6842880  51.2638016  76.5037079
  70.4228439  64.6362000  79.8399887  70.3970795  65.5462875  80.1354752
  69.9439163  64.1522827  80.5128021  30.5311031  43.5060005  82.7672119
  29.7655048  43.2844620  82.2371063  31.0388489  44.1024971  82.2171097
  58.9614677  53.1544113   4.4817924  59.8086586  53.5491180   4.6884465
  59.1787300  52.2900772   4.1325803  68.9918594  69.2346115  36.4877548
  68.1541748  69.3213425  36.0327911  69.5046616  69.9863205  36.1907806
  47.8403435  30.8748360  36.7166138  48.0844955  30.1151600  36.1879234
  47.3790398  31.4519215  36.1080055   2.5605252  23.5754204  83.2309799
   2.6948321  24.3220577  82.6472549   1.6723920  23.2760563  83.0364685
  56.9613304  60.2155991  48.1484718  57.0255241  60.5848160  47.2676811
  57.1508789  60.9511642  48.7309151  38.1463356  25.8117142   0.4876789
  38.1383591  26.4573574  -0.2189420  38.6974373  26.2043762   1.1646819
   0.4721848  22.4953671  44.1223106   0.0312085  22.8983326  44.8702354
   0.4255286  21.5550156  44.2949104  32.1564217  18.1584282  17.4289494
  33.0407448  18.0265999  17.7707500  31.9042854  17.3032169  17.0807056
  38.4512367  49.1099586  42.7181320  37.9231682  48.5782852  43.3136978
  38.2634544  50.0132675  42.9730873  13.8576384  13.6617069  16.3610344
  14.5820150  13.9702921  15.8167133  14.0588789  12.7409191  16.5280190
  34.3061028  61.1000633  27.9417286  33.9209404  61.8550339  27.4968605
  35.2062492  61.3661346  28.1292782  72.3493042  64.3307648  11.9030886
  72.2294083  63.4051514  11.6907349  73.2246552  64.3768539  12.2876167
  21.0454769  17.1246910   0.4735468  21.6798210  16.8233147   1.1239401
  20.5352287  17.7943420   0.9290092  31.6170845  43.1936073  27.8538895
  31.1351013  42.4119530  27.5838165  31.0335979  43.6329346  28.4725723
  53.2190437  40.9958038  33.6666031  52.5598183  40.8955116  32.9798737
  52.7315483  41.3297272  34.4196472  36.3788452  24.4398232   4.2939734
  36.4607315  24.3766823   5.2455716  36.6493111  25.3348827   4.0891662
  66.1617737  26.5080299  21.4966240  66.4931488  27.3998756  21.6016579
  65.8819656  26.2514496  22.3753204  82.0512848  35.5188713  19.4098644
  81.7200928  34.7313957  19.8416309  82.8579941  35.7287178  19.8804150
  53.7094955  17.8655281  53.9001846  54.0507736  17.6091518  54.7569427
  52.8767242  18.2961960  54.0931892  68.6728821  62.3894882  70.3393936
  69.1516800  61.5636444  70.4098892  69.3554001  63.0595169  70.3009872
  66.2781372  32.2722931  55.0106773  65.5982208  32.2567368  54.3371086
  66.2032089  31.4232559  55.4462891  19.5652256  64.0126572  12.6797543
  20.1461582  63.5388794  13.2749758  19.5331593  63.4686127  11.8928461
  44.2073708  40.2631721  10.3951292  44.2286530  41.2190514  10.4406691
  44.1183090  39.9819298  11.3057346  52.3661499  62.6712074  43.1491203
  52.4449043  63.3839722  43.7831497  51.8382263  62.0098877  43.5965462
  60.4095688  43.0126305  53.7599754  61.3503036  42.9260635  53.6058502
  60.1109810  43.6205215  53.0835533  29.6423073  47.9628830  51.8268852
  28.8453522  48.4830246  51.9295769  29.4312725  47.1196442  52.2276878
  37.1021843  52.2216644  56.3375282  36.4635849  51.7895508  56.9047203
  37.8835373  52.3132401  56.8828125  41.6998901  45.3009186  69.5710678
  42.3022766  45.3895226  70.3096542  42.2554054  45.3909988  68.7967834
  67.6076279  38.9887238  45.8884811  68.0843277  38.6158638  46.6300735
  66.8097992  38.4633255  45.8280258  60.8515663   7.2773728  63.1053963
  61.4836082   7.7750244  63.6241417  61.3514595   6.5345092  62.7670288
  60.0480843  21.5910473   4.3964939  60.1973228  20.6492367   4.4798861
  59.8351974  21.7188854   3.4720659  63.0844002  29.4114418  64.9791336
  63.7545586  30.0433540  64.7187271  62.6854439  29.7938156  65.7607040
  76.7240448  17.7306614  44.6220436  75.8707581  18.0217991  44.3005295
  76.5718384  17.5125504  45.5415535  55.1217575  50.5945091  64.7482910
  54.6348190  51.3260117  64.3687820  55.9044151  50.9972343  65.1244354
  48.1948929  29.3275852  89.4152679  47.7148552  29.4145069  88.5917206
  49.1159439  29.3121414  89.1551514   1.6906003  10.3823395  65.1883621
   2.0054929   9.4915018  65.0351257   1.4046634  10.6867743  64.3270874
   7.2063208  67.4005356  46.5527000   6.6350913  67.0300522  45.8798904
   6.6229506  67.5795364  47.2901764  15.3618402  26.4487152   8.4949951
  16.0481091  27.0390625   8.1839371  15.8361759  25.7128696   8.8819942
  69.8825302  46.6587830  60.4294472  69.3029861  46.9667168  61.1262550
  69.6889572  45.7245369  60.3523026  83.7926788  67.5300903  30.0656471
  83.8050842  67.7981491  29.1468315  83.7128983  68.3499069  30.5532589
  67.7199249  43.3578911  37.4263268  67.0185318  43.5661812  36.8091583
  67.3010864  42.8074837  38.0880356   3.0185580  35.8177223  73.3860016
   2.4357769  35.3950310  72.7551804   2.4475193  36.4005585  73.8864517
  80.7339249   4.2586851   6.7807317  81.3722610   3.7670367   7.2974873
  81.1994476   5.0524693   6.5172420  16.3444157  15.3245049  29.9130840
  15.7265902  15.1168633  29.2120781  16.4069233  14.5175247  30.4240704
  82.1378250  70.4928741  19.5053844  81.5088120  70.2689514  18.8195057
  81.9484406  69.8779678  20.2140827   5.0885077  64.2061691  23.1705265
   5.4996376  64.7703323  23.8254509   5.1745262  64.6904068  22.3493404
  10.7994947  56.9941101  29.2677517  10.5945911  57.9281197  29.2245522
  11.3919840  56.8445549  28.5309887  12.9120407   3.4249725  29.0407143
  12.2662935   3.6236084  28.3626385  12.4355974   2.8904831  29.6759739
  57.1420479  65.3012772   0.5537418  57.3674622  64.4995422   0.0818990
  56.9246902  65.0057907   1.4378656  58.3981781   5.7565813  68.0808029
  57.6827545   6.2397318  68.4942856  58.7791824   6.3775625  67.4599609
  19.4504108  17.8835945  34.8275719  18.9189339  17.3358002  34.2499161
  20.1797924  18.1726780  34.2792397  80.4009705  46.3448105  49.3689079
  80.4589767  45.6398811  48.7239723  79.5586472  46.2049294  49.8015175
   8.0898809  54.8745689  36.5283661   7.8319874  54.1177216  37.0545807
   7.2622414  55.2828407  36.2742805  12.1253214  37.7206230  79.5545578
  12.0590982  38.3826065  80.2427597  11.3313656  37.8373146  79.0327835
  78.4127121  27.6935253  21.3602047  78.6331024  27.5155678  20.4458809
  78.5789948  26.8662281  21.8120480   4.3893604  19.8161316  60.8999138
   4.1152534  18.9672966  61.2471542   3.6933715  20.0616093  60.2903442
  82.6080780  35.4348450  41.3134842  83.2288742  34.7062569  41.3117752
  81.7488098  35.0172310  41.3725815  61.6946144  67.4936447  56.6929741
  61.7207718  67.3536682  57.6395187  62.5265350  67.1421661  56.3757973
  32.5365028  56.0881081  84.3833694  32.3346901  56.4188576  83.5080948
  31.9171772  55.3705978  84.5169678   6.2254853   3.4043610  10.7660685
   5.7521358   4.2294545  10.8728046   6.1265407   2.9607606  11.6084814
  73.4791489  37.5377159  46.9921265  72.5635147  37.6821671  46.7534256
  73.7410660  38.3443108  47.4360123  83.8017197  63.6256180  22.6102676
  83.2622681  62.8651123  22.3937988  84.1123428  63.4537201  23.4991970
  75.4640045  57.6459236  52.1089249  75.2597427  56.8690605  51.5883560
  75.9119186  58.2320175  51.4989204  45.4768028  31.9178123  21.9888191
  45.6884804  32.1506996  21.0848351  45.7312508  32.6860886  22.4999352
  70.4259720  46.2979012  39.5855446  71.0861816  46.4001350  40.2710419
  70.1985168  45.3684082  39.6087837  29.2256641  46.7725487  20.2023773
  28.5135040  46.6091919  20.8207417  29.3209076  47.7249527  20.1929150
  62.0221977  43.3471298  29.1832466  62.5211411  43.3443604  28.3663750
  61.3352394  42.6947289  29.0465202  51.4031296  50.3598099  83.0205154
  50.9705086  49.6671181  82.5212631  52.3364563  50.2278862  82.8539963
  51.1470871  41.1646996  41.1510429  50.7681618  41.7591476  40.5035248
  52.0888138  41.1956749  40.9824448  64.4722290  31.0956745  52.6035423
  64.1394501  31.9820843  52.7441368  63.8707008  30.5337276  53.0920181
  72.6684189  41.7451477  15.5469313  72.9350433  42.0846748  14.6926088
  71.7789001  42.0767784  15.6694746  59.8123550  42.7868080  71.3388977
  59.2915039  42.2803497  70.7156448  59.7280464  43.6926041  71.0411453
  56.4160385  67.6449966  84.4487686  55.6392555  67.7989960  84.9864731
  56.6649017  68.5137024  84.1331024  47.8565788   2.3312817  73.6246643
  48.4142952   1.8737302  72.9955139  48.1764870   3.2334042  73.6165771
  57.0119972  34.4001160  68.6933441  56.2518234  34.9815903  68.6773758
  57.1940689  34.2694283  69.6239319  60.2607727   9.1937771   1.5935427
  60.4772491   9.5762672   2.4438784  59.6355286   8.4978867   1.7961233
  15.6457005   1.8445702   8.3740616  15.9805632   2.6132543   8.8358231
  15.5275526   2.1400816   7.4713182  76.0972137  64.2701340  36.1561813
  76.1345673  63.3496666  36.4161453  75.3856964  64.3098450  35.5171280
  59.8409920  56.8356552  30.3006210  60.0376434  57.7544594  30.4832649
  59.8232422  56.7798538  29.3452129  24.7765808  68.9164429  55.2794456
  25.4251480  68.3380585  54.8781166  25.2755814  69.4337158  55.9116325
  42.2861595   5.9727077  77.7729340  41.4703445   6.1719646  77.3136215
  42.9647064   6.4051089  77.2544403  62.3848076  48.5598564  65.9288483
  61.6384735  47.9784546  66.0744019  63.0570335  48.2421837  66.5317001
  57.1339836   2.9414356  20.7089901  57.0869370   3.0193965  19.7561302
  57.7509308   3.6232650  20.9749165  58.8647957  15.7613277  14.1323481
  58.7327461  16.1154785  13.2529325  58.0939560  16.0458260  14.6233635
  74.8064041   1.7765611  23.1865234  74.3897476   2.6162500  23.3803158
  75.3019028   1.5666991  23.9781494  80.6637268  53.7927094  36.5879784
  80.0050125  53.6557999  35.9071083  80.1999435  54.2670212  37.2780190
  63.1839142   5.9793968  43.4769745  62.2394371   6.1215134  43.5402031
  63.5603180   6.5825758  44.1178513  53.1697273   5.4862618  51.9122009
  52.9056931   5.5499716  50.9943466  52.4801559   5.9448905  52.3921814
  37.4438171  23.9398670  72.6510849  37.2250290  24.2950020  71.7895508
  36.5977440  23.8180046  73.0818253   4.9155874  10.5968161  55.3854408
   5.2826695  11.3651104  55.8227119   4.1866984  10.3283215  55.9447823
  25.6508770  25.1994629  77.8698120  25.9173756  24.7643681  77.0599365
  24.7913418  25.5706310  77.6706543  76.1831818  12.8324528  22.6182327
  76.8054886  13.3948460  22.1570644  75.7941742  13.4005365  23.2832031
  25.1910381  62.8336029  49.6011162  25.9708900  62.7100067  50.1422119
  25.3823490  63.6132469  49.0797806  49.2321014  63.4041328  22.6575813
  50.0792465  63.5155296  23.0890579  49.3312912  63.8499947  21.8163910
   7.0135078  60.8109245  39.6653023   6.1431766  61.2087288  39.6878738
   6.9776225  60.1977539  38.9311600  72.0668716  31.6018639  36.9399490
  72.6945724  30.9393730  36.6512718  71.5212860  31.1503735  37.5839386
  86.3289871  58.2702942  61.2219276  86.7132034  57.9475098  60.4068069
  85.3996429  58.3810959  61.0212517  56.7629128  56.5449715  81.5205307
  56.8086700  57.3417320  82.0490341  56.6959000  56.8591728  80.6188507
  24.7134819  35.6062164  60.0575790  25.4571266  35.2613754  60.5518532
  24.2304287  34.8285866  59.7779770  21.9744492  55.4484062  87.6688690
  22.5771809  55.3148041  86.9373627  22.5432186  55.6157074  88.4203644
  30.0104656  10.1494532  78.7231979  30.0980377   9.2088203  78.5690079
  30.8925972  10.4969025  78.5914612  31.6607647  58.0989227  53.7040710
  32.4368286  58.6591148  53.6920624  31.4203663  58.0029488  52.7825356
  49.0162964  52.6503181  31.9601078  49.3638496  52.7628403  32.8448524
  49.6648102  52.1043053  31.5156670  78.7123260  36.3857040  39.5801048
  77.7677917  36.3865929  39.7353134  79.0984039  36.4687119  40.4520454
  47.7837906  15.6823149  21.0862045  46.9212952  15.2967997  20.9322186
  48.3005791  14.9702368  21.4631729  84.2906113   4.3429646  54.2562065
  83.7616577   4.8745036  53.6613045  83.8120956   4.3630271  55.0849724
  66.4771500  25.3158703  37.5714684  66.8886490  25.0135784  36.7618256
  65.5384064  25.2107506  37.4167595  53.1510582  25.4440804  40.4855423
  53.1496582  24.5206432  40.2335625  52.5744858  25.8668861  39.8491211
  51.9076729  22.3611565  78.1956711  52.3601723  21.9878216  78.9520416
  52.5177460  22.2404804  77.4680176  41.7746429  14.1143427  29.2156487
  41.4950867  14.9777708  28.9113903  42.6482887  14.2596416  29.5787716
  42.2573204  57.4717140  40.5723953  42.2493782  56.6745605  40.0425682
  42.0285110  58.1696014  39.9585304  68.2667542  63.0975380  66.3416443
  68.2361221  63.5936432  65.5236206  69.1097412  63.3296890  66.7311401
  49.2185745   0.8211703  71.8297272  49.3748131  -0.0900606  71.5817795
  50.0001640   1.2874594  71.5332108   0.4653673  62.5602875  46.0069313
   0.4574344  62.7512245  45.0690002   0.3027886  61.6185493  46.0610275
  40.3199654  45.9611816   9.9749346  39.9306755  46.8350182   9.9418526
  39.8273735  45.5052071  10.6573353  16.8563442  39.8243561  19.6079979
  17.0979691  40.4013138  18.8834515  15.9834757  40.1189384  19.8679066
  80.9466782  28.9352322  42.5971146  80.7176666  29.8630466  42.5428429
  81.6449966  28.8227787  41.9521828  36.7516441  45.9729576  86.9442368
  37.3802681  45.2702827  87.1095200  35.9085999  45.6084061  87.2136993
  63.7438354  60.5076904  67.4888687  64.1683960  60.6096611  68.3406830
  63.9617233  59.6158829  67.2178802  52.6338959  43.2102776   0.1121594
  52.0846176  42.4406509  -0.0368257  53.3168297  42.9051399   0.7094223
  55.8340263  61.1951332   7.4925704  55.0907631  61.3751755   6.9169188
  55.6149826  60.3639183   7.9136815  71.7093353  29.3021183  19.5942135
  70.8698196  29.6626225  19.8796635  72.2104721  29.1932182  20.4024410
  52.1168213  12.9151001   4.1509433  52.4162331  12.6383820   5.0169764
  51.5038948  12.2317152   3.8797655  60.1814995  33.7734871  24.2321701
  59.2930794  33.9879379  23.9476585  60.2227058  32.8181381  24.1892052
  20.3836384   0.2544696  54.0819016  19.6788940  -0.3900182  54.1467247
  19.9584160   1.0931684  54.2607880  64.9975891  47.7398224  55.9677963
  65.3795929  48.4756508  56.4461937  65.7489319  47.2878532  55.5838089
  60.7841759  66.8859863   1.3002412  60.8620033  67.3420639   0.4622842
  60.3071594  67.4968262   1.8619905   9.1991730  46.5901871  25.0520325
   9.6629295  47.3636665  25.3727970   8.4761763  46.4718056  25.6680622
  43.6665154  58.8800621  69.2096100  43.6623306  58.5166245  68.3241043
  43.8366852  58.1277733  69.7764740  86.4277725  66.5736618  16.8681908
  85.8055801  66.9701233  17.4780464  86.1546402  66.8908920  16.0073795
  32.0544357  62.9706345  12.7614584  31.7021713  62.9813156  13.6514168
  32.1717339  62.0419502  12.5614214  72.9844437  51.8563881  24.2842293
  73.9211426  51.6595192  24.2752819  72.7751770  51.9831810  25.2096272
  26.2363110  56.8194275  74.0728073  26.3012638  56.8235855  73.1178284
  25.5665131  56.1630173  74.2644653   6.4644074  53.0964661  21.1927261
   6.3470454  53.8877792  21.7183533   5.6254864  52.9782410  20.7472305
  85.0016556  29.5986862  57.3786240  85.4901733  29.5022221  56.5611420
  84.4750595  30.3878059  57.2512665  34.9535217  55.7262611  79.4909973
  35.6652946  55.4695892  80.0772858  34.4595909  54.9192123  79.3462982
  58.5939713  23.2520351  43.5637474  58.6744652  23.9612122  42.9259224
  57.7032700  22.9224567  43.4443321  32.6408272  56.0861549  55.3552399
  32.9643631  56.5114937  56.1493683  32.4283943  56.8096352  54.7655945
  57.9958115  56.5277596   7.3789649  58.3902130  56.7440529   8.2238903
  58.4238777  55.7128601   7.1164165  40.5541420  58.9836235  70.5248413
  40.4120026  59.5803223  71.2596741  41.4316292  59.1982307  70.2083130
  29.9462013  20.0848846  81.0900574  29.3568268  20.8294811  80.9698639
  30.1977444  19.8326759  80.2016068   2.5115366  42.6404877  60.8623352
   2.2623990  43.5605087  60.7744217   3.2102387  42.6430206  61.5165825
   9.9557238   4.4762807   6.9927487   9.8252401   3.7917218   7.6489387
  10.9017296   4.6219444   6.9834423  81.0542526  29.0778198  84.3483200
  81.9849854  28.9932404  84.1414185  80.8579102  28.3110447  84.8865891
  42.0645905  52.4541054  33.8014793  41.3536301  52.1120186  34.3434601
  42.1005020  51.8608627  33.0511398  76.5426636  49.0845032  58.0161285
  76.2828903  49.8335571  57.4797821  76.7429123  49.4613724  58.8729248
  20.0700893  23.2671375  26.0092716  20.7987671  23.8863640  25.9666176
  19.4003372  23.6458092  25.4398232   0.1840066  21.5390472  37.7013397
   0.8118521  21.0428238  38.2265091   0.4616670  21.3949547  36.7966995
  69.2362289  41.3621216  45.4233093  68.8317871  40.4959335  45.4720917
  69.3597946  41.5163536  44.4867363  22.2443199   7.0720530   9.2524176
  22.0156994   7.9486179   9.5616074  23.1727047   6.9774947   9.4654694
  32.8440704  70.1739273  27.7621689  32.8311234  69.2179260  27.8083305
  31.9282436  70.4312668  27.8683281  12.1080647  61.4971619  18.1984978
  11.5420265  61.6782036  17.4481258  12.9583473  61.2875977  17.8120594
  18.1742992   5.8036318   4.5585532  18.4322815   6.5024438   5.1596684
  17.2509975   5.6464534   4.7561407  67.7855301  28.8031807  17.3041630
  67.6225433  28.4020424  18.1578331  68.1173859  29.6771812  17.5096550
  14.6570292   6.6983733  85.7908630  14.5515728   6.0042872  86.4415207
  15.5483837   7.0199933  85.9260635   0.9539648  56.0644493   8.1867294
   0.1792752  56.2311478   8.7236652   0.7343544  56.4295044   7.3295608
   6.4521565  11.3090477  24.1246948   5.8418689  10.9234848  23.4961090
   6.1229453  12.1969233  24.2644405  27.3610439   1.6375823  35.8609085
  28.1241055   1.2089851  35.4732552  27.5763874   2.5701115  35.8451767
  80.3161850   2.8328366  80.2751694  79.8714142   2.8196697  79.4276810
  79.6947174   2.4249129  80.8781738   6.9638786  41.5562973  19.4186172
   6.0325756  41.4704514  19.6224251   7.0401325  42.4157486  19.0041809
  12.0756645   0.7591398   8.6368513  11.6098347   0.6674415   7.8056922
  11.4487333   1.1920872   9.2162876  52.8079262   8.6715593  32.6729660
  52.6015854   7.7701526  32.4257393  51.9727020   9.1347094  32.6087151
  28.3203125   7.6407800  36.3116760  28.6166363   7.9564857  35.4580040
  27.7637634   8.3436680  36.6469879  63.1261330  28.5305405  48.5325394
  63.7987061  28.8392086  49.1396637  62.9448051  29.2850895  47.9721756
  23.4674740  60.5689659  46.1726646  22.9826832  59.7829285  45.9209595
  22.8007164  61.2532959  46.2306366   9.8544226  55.4781418  89.4740524
  10.3312931  55.7877769  88.7040176   8.9441137  55.4187393  89.1841507
  75.2245789  58.6674271   2.2002277  75.5324249  59.5662994   2.0840764
  74.3888321  58.7577591   2.6580408  12.9404736  34.5918312  12.4990549
  12.2716551  33.9738541  12.2040730  13.7410402  34.3066254  12.0586214
  36.6555023  63.6327896  26.8471928  35.7762413  63.8528442  27.1549435
  37.2288666  64.2539825  27.2961922  48.9665909  49.6265450  26.2086067
  49.1338577  49.5952454  27.1505585  49.3103676  50.4761086  25.9324017
  75.9179840  28.9610806  20.6007023  76.7452316  28.6453094  20.9642773
  76.0098953  28.8398075  19.6556740  82.2679062  40.3488541   1.7583721
  82.6562729  39.6145363   1.2827878  81.5771179  39.9520416   2.2890174
   0.4013745  15.5675449   5.2480879  -0.0537173  16.3853569   5.0473261
  -0.2952788  14.9613981   5.5000653  40.6640244  26.9407368   6.5378666
  40.1435547  26.8864555   7.3393621  41.4452591  26.4198627   6.7238626
  73.5678329   7.2331071  42.4630928  74.3121033   7.8230381  42.5826035
  72.8861008   7.5891309  43.0329285  80.5490875  15.4380369  50.1295547
  80.3006897  14.8006716  50.7991028  81.4483032  15.6800289  50.3510971
  40.1013069  68.0153503  23.9951725  40.6788292  68.7461548  23.7746658
  40.3039780  67.8173523  24.9094772  37.0886192  20.6070690  19.7478275
  37.6251869  20.1143837  20.3687820  37.2492142  21.5246773  19.9679089
  82.7443848  18.0607090  47.9782066  82.7111588  17.3829422  47.3031044
  82.6980743  17.5787640  48.8039284  80.5731812  66.3713684  11.6310682
  80.9060974  67.2032471  11.2943592  81.1195908  66.1862488  12.3948727
  22.9253693  59.6829224   1.3115615  22.0648727  59.4560471   0.9589947
  22.7642250  60.4492874   1.8619694  22.7441177  32.7685051   3.1802561
  21.8585987  32.8662529   3.5303037  22.7137280  31.9558582   2.6753671
   3.7031043   5.3644576  52.0518112   3.2930884   4.8666062  51.3445168
   3.0202246   5.4405851  52.7182274   2.1881051  21.8835125  26.4407406
   2.9321039  21.9180775  25.8394890   2.3995743  21.1699600  27.0426998
   7.5705757  35.1636086  65.6505661   8.3703699  34.7324371  65.9516525
   7.2954988  34.6532402  64.8889313  80.3561325  37.3614616  26.3824158
  81.1474609  37.1659851  26.8842335  79.6988220  36.7566643  26.7264996
  29.5144176  63.8212357  65.9361267  29.2231712  64.7023392  66.1707764
  28.8189487  63.4810562  65.3732452  41.3484383  25.0320435  54.2466545
  41.7870216  25.7747631  53.8316307  41.9614868  24.7378006  54.9203224
  80.8851013  53.9903564  49.7737579  80.6908798  53.2181969  49.2424583
  81.6882706  54.3465805  49.3939476  64.0266418  41.2165108  36.6831169
  63.8476524  41.3877296  37.6077156  63.3306236  40.6183090  36.4111938
  57.1190262  50.8223190  86.0675125  57.7135315  50.1912689  85.6618423
  56.6247139  51.1906700  85.3352585  42.7542000  31.3616543  64.2272263
  42.1116753  30.8849869  63.7016983  42.7303467  30.9320698  65.0822830
  59.0509148  69.9026794  46.8032455  58.7674675  70.5729523  46.1814575
  60.0044289  69.9838028  46.8247452   5.9338026  37.6107483  69.4261246
   6.5732694  38.2811584  69.6666794   5.0864487  37.9985390  69.6448517
  48.1875000  40.0305939  15.4863634  47.8461609  39.6407204  14.6815557
  48.3685570  40.9411697  15.2533264  33.5450745  49.2182426  74.4355927
  33.7763519  49.9887161  74.9543533  34.0173721  48.4978676  74.8529968
   8.5349550  27.9071407  32.8066216   8.4649096  26.9574051  32.7100525
   9.4273520  28.1111584  32.5269165   7.3160853  57.5896606  54.6781502
   6.4202647  57.2680588  54.5766144   7.2590361  58.2406120  55.3776054
  50.7690468  43.0045586  56.8348198  50.9239082  42.3426552  57.5087128
  51.2817230  43.7609940  57.1197777  83.1233749  59.3063774  43.2427483
  83.4138489  59.4248314  44.1470871  82.2970047  58.8290939  43.3171844
  79.3519440  41.9993629   9.2593164  79.1934814  41.2849960   9.8764067
  78.8693008  42.7416153   9.6231136  63.4394112  35.1376190  38.5010147
  62.4894981  35.1783447  38.6116409  63.6201820  35.7227821  37.7653961
  60.5566826   0.5037513  67.4619064  60.1960678   1.3751215  67.2978821
  60.0793953  -0.0697445  66.8622971  12.2240229  13.4992256  72.4091721
  11.5442772  13.3410387  73.0642700  12.7210255  14.2410402  72.7540359
  44.2420998  51.8316040  23.5357037  43.6361847  51.5032883  22.8713932
  44.5490456  51.0463638  23.9889317  81.4485931  12.6833544  56.1368065
  80.9252625  11.9194345  55.8943558  80.8497849  13.2333784  56.6419106
  83.7513733  51.9493256  47.4479828  83.0075989  51.4183197  47.1632576
  83.5188751  52.8426094  47.1945686  17.1743240  34.9286652   4.6144361
  16.7316628  34.5218811   5.3592930  17.9136791  34.3494682   4.4297247
  82.9520950  68.3842850  53.8484192  83.5365372  69.0571976  53.4993591
  82.1990738  68.3910980  53.2575340  65.3439789  55.0248909  32.1387291
  64.8083725  54.2854881  31.8512516  64.7157974  55.7310066  32.2904434
  85.8717651  53.9606056  59.4488373  85.3885498  54.7324638  59.7437439
  86.6541977  53.9428520  59.9999390  53.4000397  11.9166374  77.9639206
  54.1623116  12.0881290  77.4109650  53.6401215  12.2719498  78.8196869
  32.9988251  44.1500282  79.2578964  33.7625237  43.7729492  79.6947098
  32.4738770  44.5181656  79.9686203  60.8943443  26.4691391   8.9231710
  60.2471809  27.0928555   9.2523985  61.7351418  26.9105759   9.0432796
  82.4800644  65.1282501   8.9930286  82.8894882  65.8729477   9.4335136
  82.4886246  64.4290466   9.6466894  63.1898384  30.0242500  85.8518982
  63.5490646  30.7491035  85.3402557  63.7458038  29.9816055  86.6299210
  15.9915886  61.0521011  35.7455673  15.0886946  60.9309044  36.0393753
  15.9556246  60.9163094  34.7987289  41.2403603  68.0933990  82.4616013
  41.1266365  68.9913940  82.1503143  40.5869064  67.5877991  81.9782715
  34.8418083  22.3863583  77.3313828  35.3265457  21.7444115  77.8501968
  34.0414772  21.9297028  77.0722198   3.8407354   5.2807732  85.0651016
   3.0727360   4.7153754  84.9830399   3.5296254   6.1470003  84.8022461
   7.4988866  16.3479557  66.5265427   6.9075670  16.5550632  67.2501984
   7.6739087  15.4116182  66.6207275  36.4465370  56.7437782  53.4374428
  36.4770317  56.5567245  54.3756905  36.8529663  57.6061707  53.3518143
  51.0833778  51.5337868  64.8974533  50.9056435  50.7271461  64.4137497
  51.0317650  52.2251434  64.2374573   7.2473083  30.7549343  22.2034321
   6.9982514  31.6634731  22.3730240   7.6761932  30.4695702  23.0101891
  21.6108131  66.9056091  83.2302780  21.5481911  66.2764130  82.5116501
  21.1898746  67.6965561  82.8934708  57.4008751  26.0568733  72.0237350
  56.6287689  26.5912285  71.8378677  57.6135712  25.6440239  71.1867447
  61.4490318  60.0915833  63.5043983  62.3975601  59.9791031  63.5666542
  61.0951424  59.5249519  64.1899109  29.3395348  64.7669449  88.7241058
  29.2998447  64.9527359  89.6622620  29.9278336  64.0151749  88.6534958
  78.3116913   5.3299818  27.7282009  78.7728500   5.9202480  28.3241444
  78.8733215   5.2839837  26.9544525  45.1134911  54.6980476  38.7834549
  45.8892746  55.2559509  38.8394585  45.4502945  53.8468590  38.5036850
  31.4402485  36.3958702   3.6936975  32.1165810  35.7922707   3.3863308
  30.7354946  36.3131599   3.0512698  39.0629997  57.1395226  77.0172195
  38.7335243  57.8515129  76.4688110  38.7643967  56.3422890  76.5796280
  74.7910309   8.4785099  82.4738083  74.3190918   8.4438934  81.6417618
  75.4517822   9.1592150  82.3462448  11.7833605  65.9477005  76.6275406
  12.2930040  66.1183319  77.4196167  11.3304043  65.1237793  76.8070374
  49.4047050  52.8310509  34.5703850  50.1579933  53.3885880  34.3755913
  48.8497238  53.3674698  35.1364937  15.1630096   8.9945974  37.1702957
  15.0226765   9.1676197  38.1012115  15.7222424   8.2179508  37.1526718
  68.3045197  34.3878098  33.9661255  67.7609100  34.7855721  33.2860413
  68.8744125  33.7814598  33.4930649   2.5076282  20.5483513  70.8372116
   1.7652966  21.1407108  70.7176895   2.3758821  20.1717854  71.7073135
  39.2053299  46.1955528  25.8936176  39.1138802  46.7676353  25.1316528
  40.0902061  45.8380737  25.8199024  10.7876749   4.1088228  44.7984505
  11.6862831   3.8752747  44.5656624  10.3719931   4.3234477  43.9633598
  72.8818665  66.7726746  30.6554050  72.3119736  66.0156250  30.5200024
  72.5932007  67.1436768  31.4892273  46.5672340  11.9838743  71.0128632
  46.2037582  12.7093401  70.5051041  47.5154076  12.0821457  70.9260330
   1.9528847  25.1514835  59.9516449   2.3836348  25.9466743  60.2652626
   2.3095419  25.0162182  59.0737305  37.3130913  67.6988525  83.0087357
  37.1675453  68.5766602  83.3615799  37.9341660  67.8287354  82.2920532
  38.3322487  29.5944500  81.2296829  38.7038345  29.0277824  80.5536346
  37.6337967  30.0733261  80.7835007  68.5167465   9.2202196  21.1593723
  68.3186188  10.1222048  21.4111633  68.4934998   9.2280560  20.2024860
  41.2266121  45.1449089  88.1185150  40.9833679  45.6489449  88.8950500
  40.8084106  45.6072617  87.3921738  71.2858963   0.8423091  69.5123978
  71.7044525  -0.0126333  69.6129761  71.6635132   1.3774561  70.2104340
  24.2686234   2.0342407  52.1647758  23.8875008   2.8856936  52.3792648
  25.1996899   2.2144589  52.0349007  37.2142868  23.2306023  12.0790033
  37.8699913  23.1631966  11.3849287  36.6414108  23.9444103  11.7987843
  23.8746548  64.1413269   4.4089489  23.4372730  64.8782654   3.9825065
  23.1772442  63.6932945   4.8876095  37.5352898  10.3839216  73.4054642
  37.3461304  10.3467083  72.4678802  36.9556084   9.7281437  73.7929688
  42.8046646  47.0759354  38.5260696  41.8892517  47.1664658  38.2613869
  42.9210167  47.7312737  39.2139854  13.3361759  28.0974617  22.3149071
  12.7215843  28.7815475  22.5804901  12.8738918  27.2782288  22.4920597
  69.1070175  35.3357201  36.6666336  69.9246292  34.9977798  36.3012047
  68.5564423  35.5080261  35.9028168  16.7916241  43.3123360  11.7357502
  16.9300117  43.4425163  10.7975960  16.9079742  42.3712997  11.8667078
  37.1538391  42.1577034  36.1123123  37.0106583  43.0236473  35.7303886
  36.4178848  41.6325874  35.7978973  81.4961090   1.0154063  16.6013565
  82.4322357   1.0249377  16.4018631  81.1594391   1.8210967  16.2092438
  18.6074162  20.7484646  78.6661301  18.1031036  21.1691933  77.9697952
  17.9702797  20.5942516  79.3636322  76.5180740  39.9353600  49.3817101
  77.1805038  39.9640312  50.0720711  75.6906357  40.0908012  49.8371277
  82.0889740  36.2961655   6.3993902  82.5328064  36.8786049   5.7829399
  81.9230652  35.4980202   5.8977265  32.8104362  29.4030838  82.2563477
  32.0513229  29.9854355  82.2272491  33.5579796  29.9896259  82.3720093
  53.7684402  57.4952812  15.4601564  53.6213341  58.0799637  16.2036209
  54.6387138  57.1273308  15.6133490  64.9638901  65.8570938  68.8302841
  64.9043350  65.4215469  67.9799957  65.4049225  66.6860504  68.6444016
  43.1337509  33.9153290  86.0603561  42.2542305  34.2075500  85.8210144
  43.6783257  34.6975555  85.9721146  32.4303703  51.0116272  82.2165756
  32.0982513  50.1295738  82.3836441  32.7294426  50.9867706  81.3076401
  50.7702713  38.7841568  15.2077694  49.8535690  38.5552635  15.0544834
  50.9302254  39.5312881  14.6311922  17.6369934  32.4313965  12.9313278
  17.8887520  31.9438210  13.7156219  17.1068249  33.1572380  13.2604351
  72.2772522  71.0969467  30.8036919  71.9558334  70.3536072  30.2934170
  72.9083176  71.5280914  30.2274132  24.8853550  46.4170494  71.2670288
  25.1538906  47.0521507  70.6031265  24.4838867  45.7050781  70.7688828
   8.1375408  39.5373268  72.6102142   8.6433477  38.8028564  72.9579926
   7.5391388  39.7730522  73.3191452  73.0617371  48.0253983  16.2132530
  73.2506866  47.2214699  15.7292852  73.3363953  48.7290611  15.6253290
  78.6971207  44.4351654  37.8104134  77.8188324  44.6954384  37.5327454
  79.2541733  44.6300964  37.0568047   2.4539459   7.8255234  64.7498322
   2.5327950   6.8833299  64.8991165   1.8251368   7.9025331  64.0322647
  68.3389053  31.3754864  61.5033264  69.1182861  31.8342209  61.8169479
  67.6090851  31.9369869  61.7646866  49.0541077  55.0751801  64.7991562
  49.0827942  56.0256996  64.9083557  49.9111748  54.8496704  64.4374695
  65.3411179  20.3337250  71.5627899  64.6459503  20.1394005  72.1914520
  65.9090881  20.9551716  72.0182495   9.3818150  24.2567883   5.4731545
   9.8992691  24.3958931   6.2663274   9.4819965  25.0688076   4.9763451
  54.0395775  35.5135345  19.7906380  54.7849007  35.9093361  20.2423763
  54.3592377  35.3437157  18.9045181  19.4779911  32.7666931   5.2431884
  19.1648979  32.6929741   6.1447258  19.8394909  33.6512070   5.1867633
  57.4832230  26.1137314   7.6991286  58.1385689  26.7453060   7.4027052
  57.7238007  25.2963715   7.2629175  65.5195618  54.0663643  66.0044708
  64.6600113  53.7755737  65.6997757  65.6445999  53.6121063  66.8376923
  46.1798706  42.4906693  47.8394051  46.1827431  43.3403435  48.2801781
  46.2383499  41.8520279  48.5500031  72.1960449  58.1576767  26.6304760
  72.6662064  58.9778023  26.7807350  72.4330215  57.9058075  25.7379303
  44.1461868  64.7989044  64.4879837  43.7397690  65.6553726  64.3555984
  43.9392014  64.5731735  65.3948593  32.2536621   1.3845174  17.0774193
  33.0020676   1.0069889  17.5395794  32.6170921   1.6987717  16.2495346
  17.7940693  68.8882904  88.8999634  18.6671238  69.1403046  88.5991364
  17.6020470  69.4961624  89.6140060   1.3999352   4.2231665  83.9264984
   1.4748032   4.2431717  82.9724350   0.8326243   3.4735217  84.1065598
   3.6465168  57.8981400  40.5666084   3.6746960  58.2657967  41.4499359
   3.1834509  58.5560532  40.0480042  35.6609459  55.9976387  87.6667862
  34.9553146  56.4474068  87.2019958  36.4633789  56.3383827  87.2715302
  15.9463167  17.6021690  21.3496704  15.5711298  16.7489376  21.5675278
  16.2967472  17.9284058  22.1785259  20.3830776  46.9116211  75.1639099
  19.5677662  46.5011711  74.8757629  20.7902946  47.2275505  74.3573151
  12.4909487  67.7862167  32.6436005  12.1283779  68.4728928  33.2032967
  12.3907833  66.9830093  33.1545296  21.2737064  62.7336578  14.6462059
  21.7327690  63.4202728  15.1299992  20.8908958  62.1775742  15.3247757
  50.3159409  61.4835320  53.5921440  49.4091606  61.3580399  53.8718414
  50.6794968  62.1000443  54.2277298  79.7964325  46.7499657  42.5886955
  79.7149734  45.9680443  42.0426216  80.6999054  47.0388260  42.4601364
  21.6097832  41.7188835  59.0037804  21.0264072  42.4247017  59.2825737
  21.7947388  41.9101334  58.0842972  52.1177330  33.9315834  12.1522961
  52.7199821  33.7728806  12.8791676  52.6186333  34.4697800  11.5393744
  65.5939560  16.4559574  12.8363991  65.5909500  15.8198690  12.1211281
  64.6764297  16.5236187  13.1006060  59.7883339  59.5862465  23.1756573
  59.0121231  59.0921135  23.4394016  59.5325317  60.5035667  23.2721939
  70.9933167   2.8601501  87.5673141  70.4266815   2.2024953  87.9706039
  71.6932602   2.3532860  87.1557312  30.3673935  22.1415768   5.4982462
  30.3174267  22.3522053   4.5658455  31.1242313  21.5602398   5.5722451
  35.4468536  11.0202742  21.2698841  35.7355309  10.8684406  22.1697960
  34.5838356  10.6089411  21.2225685  47.1344833  67.9622269   7.9276247
  47.0048218  68.4201889   7.0971498  47.9131737  68.3697433   8.3068333
  81.8737411  56.3625107  37.5111427  82.2198105  56.5098763  38.3913422
  82.1141891  55.4586678  37.3074646  25.5836849  65.7736053  48.9227600
  25.9631786  66.6523361  48.9157677  24.7594547  65.8648605  48.4446945
  75.4430618   7.0314713  24.8807449  76.2014084   6.4625015  25.0126915
  75.6068039   7.7843690  25.4486923  58.5627403  25.0322933  21.3022404
  58.9491577  24.5063534  22.0024548  57.6496582  25.1476078  21.5653267
  24.6373634  55.7963562  65.3538361  25.2249680  55.0818825  65.5997620
  24.1598549  55.4630394  64.5941544  76.7359390  50.9527817  33.6441650
  75.8205566  51.0992737  33.4057236  76.7107162  50.2079735  34.2448807
  69.1250992  51.4318085  32.5142517  68.2689972  51.4003067  32.0872612
  68.9254913  51.5543289  33.4423561  36.8400688  36.8122826  63.0266876
  37.3085632  36.3244057  63.7039795  36.9584084  37.7309532  63.2680855
  68.5247192  70.2763214  14.9599133  68.7192688  69.3687363  15.1937208
  68.5707703  70.2925339  14.0039587  39.6082153  40.9786224  72.8365250
  39.3176651  41.5058937  73.5806961  40.2515678  41.5288506  72.3897781
  82.6583862  29.2519417  40.3859863  83.0599670  28.4711761  40.0047035
  82.3688354  29.7650528  39.6315918  78.0993347  41.6408806  37.7515335
  78.3779602  42.3415031  38.3412170  78.5038528  41.8594017  36.9119835
  86.0491028  59.8756905  42.3338966  85.4206238  59.1537170  42.3311119
  85.8915176  60.3272171  43.1630630  50.5601196  56.7547226  41.4680328
  51.0624619  56.6020813  42.2683983  49.6786385  56.9665070  41.7752342
  70.5510101   7.6654148  67.2313309  69.9791489   7.0892825  67.7385635
  70.7260284   8.4035530  67.8150711  55.8640862  39.0845490  23.5820198
  56.1794205  38.3025208  24.0350418  54.9771690  39.2145576  23.9177322
   3.0764468   1.4812783   5.0564523   3.2063267   1.8491286   4.1823535
   2.9570601   2.2442095   5.6220622  70.6761246   7.6775322  21.3038177
  69.8834076   8.2124367  21.3451958  71.3911819   8.3121958  21.2577000
  49.1983986  20.0119877  25.7994690  49.3922386  20.0441761  24.8626537
  49.2761383  20.9202366  26.0914841  27.7197266  49.9860764  51.4466743
  26.7637959  49.9647636  51.4911003  27.9230442  50.8431892  51.0721779
  43.4351158  50.0907059   7.7192998  43.3452682  49.3204079   8.2803726
  44.2790642  49.9724121   7.2834272  82.6053391  50.2469177  65.5126724
  81.9499359  50.2982254  64.8169403  82.1211853  50.4493027  66.3132095
  39.3666229  59.0235252   0.3140741  39.5087700  59.3846703   1.1890589
  38.8015823  59.6627159  -0.1199735  26.1952896  35.5532112  69.7370453
  26.0277824  36.4015198  70.1475830  26.8516827  35.1408157  70.2985687
  82.3611145  44.4008408   0.4934091  82.8678589  44.2032967   1.2810761
  81.8786392  45.1979523   0.7126545  20.5248508   1.4950596  84.7063980
  20.1673717   1.8210516  85.5323334  20.6005840   2.2733867  84.1544037
  55.7824211   8.2807169   0.8965424  55.7146263   9.1810293   1.2144634
  56.6127930   8.2565212   0.4210078  40.1306381  21.3232288   6.0987339
  40.0642586  22.2723713   6.2033997  39.8314781  21.1593876   5.2043676
  84.0140686  44.4474144  58.6584778  84.5620804  45.2317963  58.6326866
  84.5020981  43.8321648  59.2057686  29.1803474  66.4711456  66.9263611
  29.7359676  66.9006271  67.5767899  28.5463581  65.9743195  67.4435196
  40.0482445   2.4475667  68.2665253  39.5316048   3.1664035  68.6306534
  40.8426552   2.4292631  68.8002014  55.7086945  42.5762024  58.5959282
  55.3558235  43.4602394  58.4949760  55.6243057  42.3899651  59.5310326
  21.9401875   8.6273737  27.2679577  22.2666397   7.7468529  27.0826340
  22.7043018   9.1022320  27.5948696   4.7504821  27.8118820  82.0215149
   5.5160837  27.6281776  81.4771500   4.3949246  28.6270485  81.6675262
  44.0045929  18.0234051  25.4071903  43.3781090  18.6653442  25.7413540
  44.7461128  18.5475388  25.1044312  34.4187813   1.7374961  84.6260300
  34.4857635   2.3471868  83.8911667  33.8902969   2.2018616  85.2751083
  78.2931442  17.8977547   6.1534877  77.3454971  17.9270935   6.2851481
  78.5460663  17.0166416   6.4289918  26.4137135  14.5464602  -0.0688308
  27.2911835  14.5093012   0.3118208  26.1312637  15.4507065   0.0682544
  53.4903679  39.0640945  86.3376389  52.7322540  38.6541824  86.7541351
  53.9285507  39.5339394  87.0471954  42.0904465  50.3277855  27.8772888
  41.6394424  50.1072197  28.6922607  42.8857346  50.7801743  28.1585217
   4.5568504  21.5354042  13.4591837   5.3451853  21.4209976  13.9899111
   4.0698166  22.2312145  13.9006348  34.3800392  67.5248947  63.5140686
  34.3308029  66.7810287  62.9136848  33.5448990  67.5110321  63.9815941
  44.1332016  69.2828598  20.2763481  44.8322105  69.8843613  20.5328941
  44.5724907  68.6166763  19.7477112  79.6481628  48.9228249  63.2409935
  79.1638718  48.7292099  62.4383698  79.8246613  48.0649147  63.6270905
  80.3057022   9.4680119  63.2932739  79.9225464   9.5079756  64.1695328
  79.8317871   8.7601681  62.8566971  84.2534027  18.8142090   7.1013556
  83.3568039  18.8525276   6.7683668  84.2183456  19.2785053   7.9376764
  23.6382885  40.5389519  17.8370037  24.4346066  40.0353546  17.6681881
  22.9636116  40.1014175  17.3177700   1.1771021  57.8619118  25.7292385
   0.3259074  58.2825241  25.8508224   1.8002093  58.5877190  25.6950150
  56.0218735  12.5987854   5.2521915  55.1951904  12.5177412   5.7278576
  56.6928864  12.5890703   5.9347453  84.7783127   7.5688944  33.0993233
  84.9235687   6.7367573  33.5495224  83.8952332   7.4945388  32.7375679
  29.8219051  33.8649750  22.0042038  30.4829750  34.5105476  22.2541122
  29.4902439  34.1755943  21.1617393  32.8170319  65.0683899  11.2963905
  32.3626785  64.4680557  11.8874807  33.0282860  65.8266525  11.8410416
  27.2430897  62.0206337  29.9700737  27.0678310  62.0776291  30.9093666
  27.7953644  61.2444916  29.8761368  47.3531799  36.8651657  30.5846767
  46.5839043  36.5108185  31.0306416  47.6312332  36.1651344  29.9940166
   8.5444384  25.4431896  25.1455879   8.4961243  24.6429482  24.6226063
   7.8509574  25.3451481  25.7980461  22.1412048   1.0858458  72.0304718
  22.3037205   1.5240064  71.1950989  22.6357155   1.5984209  72.6699677
  83.4035645  26.3657207  36.6310120  84.2537689  26.8023777  36.6831703
  82.8919678  26.9084568  36.0310669  81.7546616  21.4453411  27.7238750
  80.9956055  21.2396336  28.2695332  81.5469894  21.0637188  26.8709583
  12.2754860  36.9222031  41.5610809  12.1055813  37.5393295  42.2727814
  11.4890289  36.3778877  41.5231857  45.1506538   4.6214714  85.9953232
  45.9792671   5.0460191  85.7730789  44.8040047   5.1386409  86.7223740
  81.5606995  24.8284149  30.0615654  81.7523346  23.9652195  29.6949635
  81.4662170  25.3974552  29.2976933  50.9458847  46.6340103  88.9038696
  50.3434334  46.2351837  88.2759933  51.4548950  45.8996124  89.2471008
   7.5930123  69.0307846  28.6704369   8.2313766  68.7695007  28.0067711
   7.8317456  69.9310989  28.8910618  56.6826782  21.1134205  59.1914024
  55.9327888  21.5522633  59.5930405  56.2986832  20.3954506  58.6881142
  85.3036423  36.3538628  81.2375870  86.0920486  36.0942268  80.7609024
  84.5809631  36.0349083  80.6969986  18.7582607  68.9901657  19.9650669
  19.4361534  69.0832138  19.2957115  18.0099049  69.4750366  19.6170769
  41.4513741  33.7097206  17.2925472  41.8295479  34.5570831  17.5274830
  41.9553146  33.4257011  16.5299149  45.1022873  46.1510468  36.6971397
  45.2821045  47.0035362  36.3007088  44.6070518  46.3554459  37.4903564
  26.0717106  27.6662426  79.1046829  26.0661087  26.9067936  78.5220642
  26.9805374  27.9666100  79.0979080  45.8598099  42.3989296   7.4314065
  46.1835480  41.7049255   8.0056753  45.0712891  42.0312233   7.0323343
  59.8175125  57.6156731  12.9881926  60.5716209  57.0661125  12.7748032
  59.4613724  57.2328300  13.7899570   2.3877411  44.7918434  84.8529587
   2.3767986  44.6009598  85.7908630   1.7521282  45.4993706  84.7450943
  83.8711166  26.4522457  39.4108582  84.4673309  26.9427662  38.8450432
  83.3419189  25.9313545  38.8068275  83.9893112  36.8708344  37.0405884
  83.5181198  36.2551918  36.4791718  84.7008743  36.3540115  37.4184837
  37.2279282  64.2955704   9.6413937  37.7705231  64.7045517   8.9671841
  36.3319130  64.3917694   9.3186951  52.5467720  30.9517612  23.8975868
  52.9944611  31.7913227  23.7929611  51.7383728  31.0469990  23.3939514
  53.9484215   3.1046283  52.6573105  53.6174660   2.5386202  51.9599342
  53.7374268   3.9917374  52.3661919  84.8370285  45.3556862  27.6397114
  84.3326874  44.9081955  26.9602795  84.4061279  45.1104660  28.4585056
  83.3310623  21.9177036  36.4485588  83.4707108  21.6019878  37.3413353
  82.4513779  22.2947826  36.4627151  71.5847931  24.5961971  35.5127068
  70.9074936  24.4969673  36.1817665  72.1648712  25.2748528  35.8579178
  70.8814850  67.5243607  72.3309021  70.9941864  67.7787018  71.4150162
  71.6494598  66.9875717  72.5266495   1.4103355  14.9046173   2.5515769
   1.0691968  15.2989969   3.3542731   1.3767377  15.6098194   1.9052068
  49.1463165  12.4219322  74.9395599  49.9531517  12.7742405  75.3152390
  49.4369240  11.7001791  74.3820190  81.2653580  25.6639023  71.6134338
  81.1381683  25.2006092  72.4413300  80.4179306  26.0713634  71.4343414
  61.1256409  36.2219086  46.4611435  61.3888474  36.9276924  47.0517578
  60.6386261  36.6618042  45.7643356  -0.0197724  30.5458927  10.6380558
   0.2635542  29.8064251  11.1757774   0.3425411  30.3641815   9.7709103
  63.6993179  61.8474922  79.7009277  64.2963943  61.2604713  80.1647568
  64.2216339  62.1999741  78.9803925  22.6722641  59.7498016  25.7692528
  22.2866077  59.0519104  25.2396774  23.5649567  59.4520721  25.9444313
  42.1906509   0.1363673  42.5136528  42.6442261  -0.1693972  41.7281532
  42.8903160   0.4448624  43.0894432  71.0775757  53.3995819   6.2252307
  71.0281754  54.3372955   6.0395222  70.8152847  52.9790955   5.4063144
  67.6630936  32.4585228  44.9554062  67.1110611  31.7306633  45.2412605
  68.5079880  32.0547752  44.7569656  62.7990074  69.9527130  61.7549438
  62.3879852  69.7175674  62.5868073  62.4075508  70.7951431  61.5240593
  29.9468365  43.9338608   8.2141190  30.3840237  44.6634064   7.7749605
  30.5507088  43.1978683   8.1146688  73.9814453  28.6155739  81.3002777
  74.3225098  29.3501816  81.8104324  74.7407150  28.0506535  81.1567459
  52.2499542  28.7085781  44.7399559  51.8538132  27.8422966  44.6458092
  52.8168869  28.7972393  43.9738235  23.5840111  67.6255264  22.0043316
  24.0621300  67.4692612  22.8187122  23.2407112  68.5144424  22.0949268
   1.9128073   3.0246830  19.4637413   0.9628429   2.9275324  19.5297813
   2.0471237   3.9575665  19.2966499  50.3872833  33.7958946  35.8413696
  51.0506821  33.2115288  36.2083206  49.6630669  33.2168503  35.6037712
  16.5496311  33.0692329  24.6126385  16.0560417  33.2777061  23.8194561
  17.2328739  33.7384377  24.6523876  14.1505423  58.8860474   8.7213125
  14.6996927  59.4013176   8.1304121  13.6019411  58.3592873   8.1401167
   3.7256427   2.5668902  78.2108688   3.1055362   2.0862184  77.6625519
   4.0987453   3.2278404  77.6276321  59.6282921  68.0231781  35.3690796
  60.4376297  68.5342407  35.3652267  58.9406967  68.6648331  35.5472031
  21.6692410  42.9356575  66.6946106  20.7771397  43.2696381  66.7886505
  21.6750259  42.1224823  67.1995316  35.8633728  52.0763130  63.1488838
  35.6767731  51.7630692  64.0339203  36.7433281  52.4485016  63.2071037
  34.6248169  56.8429031  70.2179718  35.0484276  57.7011299  70.2027283
  34.6661797  56.5716400  71.1350021  23.9473000  39.7965660   0.0061543
  23.8539009  40.4520302   0.6974385  23.9962025  38.9620323   0.4724092
  86.8404312  32.3853149  60.4396515  86.4885788  31.5382195  60.7132568
  87.2265091  32.2179070  59.5799103  33.7391777  48.3021164  25.5200176
  34.5248642  48.6186829  25.9657841  33.0217438  48.5213356  26.1145458
  31.0269375  65.7235107  19.0495605  31.9478989  65.9672318  18.9564838
  30.9457207  65.4371719  19.9593086   2.7468781  34.3941154  84.6398773
   2.8015020  34.8768158  83.8151016   2.3591359  33.5525818  84.3996582
  47.5583572  71.5604630   6.1792393  47.4888077  70.6884003   5.7907772
  46.7018051  71.9595947   6.0267553  45.4720078  44.8437309   3.4914937
  45.9266930  44.0755081   3.1460567  44.8508835  44.4886131   4.1273632
  18.8734074  34.2634773  16.6732292  18.2004356  33.7655602  17.1373634
  19.3178139  33.6146355  16.1275730  82.0428009  55.0630188  23.0430107
  82.5489883  55.4483376  23.7582226  81.1304092  55.2363930  23.2747974
  51.3737221  53.6947250  63.1657333  51.3019753  53.4786644  62.2360001
  51.9794159  54.4353981  63.1934547  76.9779510  49.5608635  30.6453190
  77.6913376  50.1716347  30.8304462  76.1817627  50.0615387  30.8232021
  68.9482269  49.7478981  83.8581619  68.1548157  50.2832832  83.8487625
  68.6322708  48.8497238  83.7597427  49.8881760  63.2248306  69.6903076
  50.5712585  63.0448456  70.3362503  50.0737190  62.6212006  68.9709778
  18.5277729  12.7577753  63.4256935  18.2910347  12.3893223  62.5745621
  18.0882511  13.6077719  63.4493446  55.6375275  69.2422714  34.4514427
  55.5075722  68.8385696  35.3095589  54.7766266  69.5887985  34.2169228
  18.0419369  55.4892464  60.2519951  17.5013924  55.1056824  60.9425926
  18.7246704  54.8375854  60.0924759  40.7589989  68.7596512  74.8604507
  41.1347237  69.6217346  74.6819305  39.8327942  68.8510666  74.6367874
  83.1306839  63.8143463  82.0379028  82.4921722  63.1598396  81.7547989
  82.7076874  64.2597580  82.7720108  73.2905884  62.0323753  78.0001297
  73.2671738  62.9311943  77.6717834  73.3933411  61.4934502  77.2157593
  16.0717583  55.9972610  80.0929565  15.5487862  55.2432327  79.8206100
  16.7415619  56.0818405  79.4143982  42.5049744   2.4525800   6.5756493
  42.8776512   1.5716766   6.5388694  41.8689613   2.4736178   5.8606119
  59.1094780   6.4511127  10.7690334  58.5557327   5.7784686  10.3726149
  59.9573479   6.0233393  10.8888445  62.1458015  53.2857704  42.5798492
  63.0396309  53.5808182  42.7537880  61.9581032  52.6632462  43.2823181
  54.1538315  16.0832729  68.9598770  53.1966362  16.0848370  68.9620132
  54.3957634  16.8466091  69.4842987   0.1864352  59.8866272  46.6748161
  -0.1836439  59.2498856  47.2862358   1.1188139  59.6726570  46.6413689
  31.5412674  62.2789764  15.5284805  31.9497833  61.7770309  16.2337437
  30.7083817  61.8347626  15.3696976  32.1941681  47.8182831  13.2295132
  31.9136047  48.5801849  13.7364874  31.4213734  47.2543945  13.1970644
  46.7097931  44.4353561  45.8048210  46.5823250  43.6436501  46.3274918
  46.8680038  44.1135521  44.9173279   0.5249514  18.0796509  56.3903694
   0.6875951  17.3065929  55.8498497   0.9459624  18.7965145  55.9159355
  33.9791107  11.2475824  87.8077698  34.9323807  11.2326555  87.7224045
  33.8205833  11.1276512  88.7441025  45.9863739  47.3938026   2.5516024
  45.7878685  47.4085617   1.6153281  45.7703590  46.5032692   2.8282294
  84.1651154  45.7089233  15.0190754  84.5935898  46.4166107  15.5005512
  83.8495560  45.1135139  15.6988859  70.0226288   8.5952854  52.1418495
  70.2337189   7.9867539  51.4337807  69.3794403   8.1283092  52.6752167
  10.8526535   0.6382826   5.8033895   9.9493980   0.7241158   5.4984407
  11.3660402   1.1506255   5.1787524  13.7032909  34.3746948  72.3033829
  13.6887417  35.1347084  72.8851013  13.8765497  33.6328087  72.8828812
  85.9024277  14.9286413  69.4776077  85.5893173  15.8247738  69.3545532
  85.4181366  14.4148455  68.8313065  78.0896301  30.1838150  48.7670059
  78.7441864  30.4544754  48.1231613  78.2274094  29.2418976  48.8671951
   5.0382204  67.2157288  64.5614319   5.9152179  66.8393478  64.6352081
   4.7478275  66.9757233  63.6814880  61.2364197  17.7604561  44.7564392
  62.0084763  18.0610657  45.2358017  61.3278770  18.1497250  43.8867645
  39.2394104   6.1859460  28.7347317  38.9772682   7.1048141  28.6782036
  40.1706429   6.2156129  28.9541912  78.8306198  35.6286316   1.0239141
  78.1834259  35.8816490   1.6822103  79.5974426  36.1658020   1.2230768
  85.4407196  49.8542671  44.6060066  85.7305603  49.9696655  45.5109406
  86.1838226  50.1453781  44.0775299  24.0334415   4.4487252  12.4175472
  24.5860825   4.3393502  11.6436892  24.2408562   3.6940331  12.9685926
   4.2581201  47.2869225  89.0327530   4.1425757  47.9078674  88.3135147
   4.8854737  46.6463165  88.6976624  20.4540672   7.2470279  69.3534317
  20.7429142   7.0210209  68.4692841  20.5002613   6.4230947  69.8384399
  85.0664520  58.8945923  80.4225235  85.7534103  58.9973526  81.0811234
  85.3621445  58.1634598  79.8800812  22.4131660  20.8763847  15.2282429
  21.8253002  21.5974407  15.0030231  23.2205162  21.0675507  14.7508821
  68.5931778  62.3646927  32.1808624  68.7270203  63.3057556  32.2936440
  68.8938217  62.1850777  31.2900257  28.8602810  63.0633583   4.8401093
  27.9629860  62.9078674   5.1349254  29.1173038  63.8770103   5.2738662
  41.4341278  52.6401787  37.3384972  41.6212578  52.9161034  38.2357597
  41.6680489  53.3971825  36.8014107  50.7726021  45.4689293  32.4529037
  51.3303452  44.9821548  31.8461056  51.2830811  45.5172501  33.2611771
  58.7986870   4.6139746  24.2019043  59.0308342   3.7242208  23.9360542
  59.5517769   4.9164953  24.7094154  59.3991394   6.0127382  30.1098022
  59.0472641   6.6801052  29.5207043  58.8628998   6.0835791  30.8995266
  25.1493816  60.9156914  28.3291569  25.5840836  60.0638924  28.2878571
  25.6244392  61.3943405  29.0084553  30.2125263  66.1919708  40.3011703
  29.9557858  66.7349396  39.5558510  31.1361980  65.9941559  40.1464806
  79.8449326  39.8277435  56.4638748  79.5515289  39.9734077  55.5644684
  80.7970123  39.9176712  56.4227486  69.1378479  59.1077538  65.1286697
  68.9749146  59.5472717  65.9632416  70.0197449  59.3848305  64.8802185
   0.1319276  32.2722740  63.8415527  -0.3275197  33.0707397  63.5815697
   0.4788269  31.9181461  63.0227203   5.5791998  36.5757980  73.8690567
   4.7033458  36.1967621  73.7952805   6.0518975  36.2362938  73.1091080
  20.4954491  56.4636345  46.2903519  20.6496468  55.5299301  46.1466408
  21.2890739  56.8900146  45.9669456  59.9421730  31.9420147  42.8903923
  60.8542824  31.6935940  42.7401390  59.5498428  31.1736259  43.3049812
   8.2427273   4.4466286  46.8274269   7.7360044   5.2178059  47.0818863
   8.1579189   4.4079533  45.8747749  56.9469681  48.3593521  21.4771328
  56.0247269  48.1262436  21.3705521  57.0230217  49.2252312  21.0762577
   5.9647236  45.8395309   7.6085963   5.8557110  45.2853355   8.3813934
   5.1669154  45.6990967   7.0986819  21.4451160  67.0533905  37.4188309
  20.7813187  66.3648148  37.3805275  22.2036743  66.6800461  36.9700165
  52.7082253  62.0444565  30.5116119  52.3381882  61.4479179  31.1623363
  51.9462166  62.4254417  30.0752316  40.2384033  68.0869293  63.0382767
  41.0773430  67.6273727  63.0033264  39.5830193  67.3892899  63.0393257
   9.5709257  56.6653099  56.2430077   8.9858055  56.8785439  55.5160980
  10.3495798  57.2001610  56.0885201  26.4870682  70.4934082   8.5623312
  27.2151184  70.6174622   9.1712523  25.9866982  69.7660828   8.9322672
  62.4797554  32.6813393  55.9453087  62.8663559  32.8533516  55.0867119
  63.1220856  32.1289787  56.3908882  66.4666901  46.8790779  16.3024521
  66.8381042  46.6059723  17.1413155  66.6997604  47.8044167  16.2272186
  49.9617043  60.5726700  71.3245392  50.8293228  60.2474937  71.5648117
  49.3657951  59.8614235  71.5596085  84.2939911  10.6014318   4.9270034
  85.1432724  10.4576159   4.5095420  83.9940338  11.4403143   4.5769553
  83.5893478  45.7840767   7.6869674  83.3503952  45.4283028   6.8310709
  83.4033279  45.0743904   8.3017607  40.3080444  53.3366089  77.1717606
  40.6058884  53.2523689  78.0775299  40.9711761  52.8758774  76.6577454
  75.0174408  12.6615086  52.4102211  74.5683060  13.4598036  52.6881256
  75.7814102  12.9730864  51.9249229  27.8509827  10.7666225  85.6083679
  27.4415340  11.5658741  85.2770309  28.0605469  10.9654427  86.5209351
  65.0736542  67.7604675  88.1293564  64.3985291  68.4262848  87.9985123
  64.6871262  67.1470108  88.7542572   2.3939514  13.6965647  25.7973843
   2.3083789  12.7740126  26.0378151   1.5141263  14.0561829  25.9105854
  64.4147873  47.2546425  35.3241959  63.7599678  46.9445915  34.6986542
  64.3915634  46.6122322  36.0334244  35.1489601  31.0680351  29.3148079
  34.2400894  30.8023129  29.1748962  35.0891991  31.9710560  29.6265984
  45.7577896  42.0318604  17.0015488  45.7511826  41.0913391  16.8237743
  46.4568443  42.1491203  17.6448288  78.6146317  53.7649498  76.1807785
  78.3221207  53.8130608  77.0909195  77.8272400  53.9429321  75.6664200
   8.7044172  50.0929337  67.7852478   9.5918894  49.7922897  67.5896988
   8.1443605  49.3512421  67.5561981  39.3677902  20.0171776   3.7476745
  40.1066322  19.6880646   3.2357867  38.7742653  20.3927841   3.0973818
  53.4727249  36.8431854  49.1004486  53.1794090  36.1755981  49.7205505
  54.4193420  36.7146873  49.0401573  57.7249756  55.5151291  66.3338470
  57.6638298  56.4256821  66.6226120  57.7106743  55.0054741  67.1439590
  73.8842468  36.5011940   1.8811079  73.8422089  36.2703743   0.9531064
  73.5276871  37.3884926   1.9236097  54.6736374  17.2410660  21.5628700
  54.6821861  16.7253704  22.3692303  54.1684570  16.7119827  20.9455414
  49.6248817  18.9341412  54.1856804  48.9471512  19.2648296  53.5961380
  49.8246651  19.6736259  54.7596893  35.6495209  28.9774113  89.5760651
  35.5689735  29.5464973  88.8106384  36.3576164  28.3735332  89.3520966
  47.4090691   5.7655244  50.1337090  48.2586021   5.3457565  50.2690544
  46.8968010   5.1185598  49.6486816   9.7741241  53.4814491  80.5455170
  10.7010212  53.3899078  80.3247986   9.7656307  54.0583076  81.3093185
  64.1747360  13.4322443  55.8234367  64.0942535  13.8416300  54.9619484
  65.1093216  13.2462368  55.9138603  18.2642345  67.8399353  77.2322464
  18.3901291  66.9792633  76.8327179  17.5607281  68.2404938  76.7214966
  22.9030590   2.1353319  43.5955009  23.7640152   1.8420832  43.2971878
  23.0778408   2.9487169  44.0688820  62.6646538  66.0922699  15.5709953
  62.5868149  66.4348907  14.6806097  63.2174263  66.7283707  16.0249252
   0.7315626  64.2791061  68.1977844   0.5710506  65.2072906  68.0276794
   1.2075691  64.2665939  69.0281372  29.1172085  68.5404739  61.0793610
  29.5256691  67.7996292  60.6315460  29.4440136  69.3109283  60.6147881
  67.1795120   9.6904001  14.6941376  66.3782043  10.0043688  14.2751360
  67.0284958   8.7548723  14.8290901  48.4102402  54.0450821  48.1027565
  48.2110176  54.2954369  49.0049019  47.6846504  53.4758568  47.8463669
  56.6217766  71.2103806  68.7462158  55.8796539  71.7112732  69.0847321
  56.9931335  71.7659988  68.0609360  53.0203514  40.4136620  17.9913216
  53.4255371  40.9802284  17.3347740  52.0851021  40.4443665  17.7898216
  72.9582062  29.4631748  32.9695663  72.2806549  30.0656490  32.6626816
  72.9262390  28.7322750  32.3523178  50.8675575  61.6076736   7.0060568
  51.5633545  62.2405014   7.1839104  50.0949974  61.9738541   7.4365144
   6.4475517  44.9118958  50.4163704   6.2348495  44.0287552  50.7181129
   6.7039971  44.7970886  49.5013351  16.7250233  29.5680046   0.9053563
  17.0850163  29.0415993   0.1915387  17.0931435  30.4409161   0.7684540
  23.3218651  44.8939362   7.9280381  23.3459187  45.8122368   7.6590090
  23.8130703  44.8720131   8.7492990  65.8225403  27.1594143  49.9018364
  65.7249374  27.0626240  50.8491173  65.5166626  26.3263245  49.5431786
  67.6747360  68.2768860  18.3252926  66.9300308  68.7136383  17.9118977
  68.4173126  68.4795914  17.7563286  75.1228714  47.6502190  83.1874847
  74.6553955  47.7987366  82.3655090  75.9561081  47.2609062  82.9221802
  21.6412411  18.7146282  11.3886499  21.6289730  17.7810097  11.5994530
  21.0889282  19.1185760  12.0579834  12.3291788  12.2564688  11.3350859
  12.9673481  12.0827446  12.0270329  12.8105907  12.1050148  10.5217371
  69.1465912  32.8406639  31.5203934  68.7139206  31.9993858  31.3745079
  69.4131851  33.1275253  30.6469707  50.4359703  43.0869026  38.8920441
  50.2222748  44.0192947  38.9268074  49.7411537  42.7016792  38.3581276
  76.8740845   6.2785277  21.3421574  76.5548019   6.5036192  20.4683018
  76.0810547   6.1825190  21.8695297  68.1071091  11.5306377  22.4515591
  68.8656387  11.3451462  23.0051498  68.4493484  12.0935087  21.7570934
  75.2605896  25.9408665  43.1973572  75.3265381  25.0124130  43.4206429
  75.6266785  26.0016022  42.3150215   4.2196298   1.3752165  29.3583050
   3.8534534   1.5714649  30.2206459   5.1464434   1.6020690  29.4343739
   6.4053583  46.0269623  87.7244492   6.6437473  45.1128502  87.8787079
   7.1667786  46.4015999  87.2815933  69.8235092  61.9930496  18.8142776
  68.9160461  62.1361198  18.5454407  69.7700806  61.8166733  19.7535686
  30.5612049  47.6643143   8.3436480  31.4578686  47.4095078   8.5611315
  30.4171619  47.3086891   7.4667130  38.6144562  45.4859619  68.9142761
  38.5858612  45.1867523  69.8230591  37.7048836  45.4429512  68.6192245
  29.3181229  67.1969681  56.9785652  28.6686058  67.1210709  57.6775665
  29.6932049  68.0700302  57.0938988   2.1008775  22.8654938  74.4350204
   2.5545082  23.0939636  75.2463455   1.7567621  21.9862690  74.5924377
  11.8427124  20.0456848  16.4706192  11.2311478  20.4167595  15.8345966
  12.4690714  19.5523434  15.9409771  44.1002235  64.7237930  73.6383209
  43.6671638  64.9239731  72.8084946  43.5630493  65.1594620  74.3000336
  10.5771065  36.2578468  88.6735764  10.7481556  36.2089233  89.6140976
   9.7530155  35.7855377  88.5551224  15.7829857   1.9153731  20.3893528
  15.0798407   1.4008864  20.7857399  15.4028473   2.2569494  19.5799999
  66.3955688  61.6813164  38.4917068  65.4872284  61.3873482  38.4229469
  66.3971710  62.2819214  39.2370262   0.4580625  65.8895798  29.2124577
   1.1161948  66.1510010  29.8564701  -0.3053934  65.6455383  29.7357254
   1.0727319  18.2486038  36.4403114   0.4009016  18.4495316  35.7887726
   1.2132770  17.3055019  36.3564186   6.6680808  57.6813240  51.2264671
   5.7984262  57.2850494  51.2803116   7.2415304  57.0628929  51.6791611
  80.3043976   6.3180962   1.1089394  80.2538986   5.7800217   0.3189035
  81.0877075   6.0057306   1.5618023  22.4335785   6.4484601  20.8378601
  22.4316845   6.6107521  21.7812004  22.7993336   5.5685811  20.7469387
  30.3225060  27.2733650  23.9696693  31.2030468  27.1413517  23.6183090
  29.8943806  26.4232273  23.8686562  19.2918205  59.6922493  73.1319427
  19.4064255  60.0431480  72.2487869  18.6770248  58.9666519  73.0234604
  64.9955597  70.3155289  35.6007919  64.6622925  69.4208984  35.6701202
  64.4344177  70.8260574  36.1844978   2.3492534  61.9118347  42.6580887
   1.4065657  61.9708633  42.8132896   2.5142853  62.5316505  41.9475784
  24.8967915  16.7616043  32.8973999  23.9718151  16.5970001  33.0805931
  24.9035206  17.1363831  32.0166473  30.4932899  71.9679108  63.0642815
  29.5767689  71.8541260  62.8127327  30.7101898  71.1699066  63.5463448
  10.7336588  14.2288942  25.7512722  10.5307465  15.0818138  25.3671017
   9.9780655  13.6827049  25.5345020  52.0080452  49.4315453  69.9853592
  51.3012543  49.6397629  69.3743515  51.9672852  48.4802704  70.0835495
  71.7169342   1.2601693  77.3012085  71.9510956   1.0963469  78.2147522
  70.8956528   0.7848485  77.1755295  15.8699579  53.2605095  12.3999519
  14.9685793  53.5664749  12.5006161  16.3883648  53.8629341  12.9334049
  69.2015305  31.3929405  76.8914032  68.7675476  32.0717278  76.3745575
  68.5953827  30.6523933  76.8713760  39.6485786  67.6907501  50.0311470
  39.9149208  67.7884216  49.1169510  40.3025627  67.1031723  50.4096832
  66.9017258  27.7108765  73.7658310  66.8227615  28.0750217  72.8841324
  66.0188522  27.4098148  73.9805832  67.7890167  60.6210365  35.9016495
  67.4753418  61.3163185  35.3233566  68.6945724  60.8621368  36.0967789
  73.2746582   8.8107567  55.0762939  73.2443161   9.7156944  54.7658119
  73.3094254   8.2845106  54.2774925  43.2012177  44.4911003  85.5393524
  42.3447380  44.7169342  85.9022141  43.1841354  44.8418884  84.6489105
  10.4560089  21.5162048  87.5039444  11.1177845  21.4661884  86.8141785
  10.9471569  21.3940067  88.3163910  83.0899658  21.3210392  69.3083801
  82.1366730  21.4000645  69.2734909  83.3844376  22.1442547  69.6980362
  77.4763260  62.1225357  68.3830338  76.9337845  62.9111290  68.3832932
  77.8666077  62.1006126  67.5092926   6.2042046  55.2133026  86.5701370
   5.8153167  54.8809280  85.7611160   5.4548116  55.4252930  87.1266479
  54.2721863  46.1080208  24.2412548  54.7600746  45.2885246  24.1598663
  54.3106194  46.3179893  25.1743507  79.0696106  31.1079845  37.5630875
  79.4701080  31.8194332  38.0627632  78.9587784  30.4013672  38.1992035
  83.4926758  45.0680389  80.6177292  83.6749191  45.5860710  79.8337250
  83.6832733  44.1664696  80.3587418  55.3525200  52.7850113  75.3331604
  55.0056000  52.8407516  76.2235336  54.5864639  52.8966980  74.7702026
  78.6903992  22.5267181  56.8625412  78.9697418  22.0530605  57.6460228
  79.4327621  23.0909882  56.6463699  77.8200455   1.6108755  68.0190506
  76.8763428   1.5036974  68.1380615  78.0504761   0.9720111  67.3445206
  47.9442177  46.3100777  11.5798807  48.3053627  46.1290321  10.7121077
  48.5816612  46.8967514  11.9869604  13.3565941  53.7547302  55.2212906
  12.6766424  53.1685829  54.8891296  14.0273008  53.1689110  55.5722885
  27.0485706  54.6089134  77.9190140  26.2831650  54.0954475  77.6606750
  27.4822102  54.8244171  77.0933304  71.1810074  21.1668987  47.6153107
  70.6968689  21.7715225  47.0529327  70.5104065  20.7632294  48.1662903
  52.1013794   6.9226751  16.4652405  52.0058517   6.2032280  17.0893402
  52.9943352   6.8337994  16.1321220  63.8115540  68.6814880  48.4932823
  64.1902466  69.4822540  48.1305199  63.7928123  68.8321915  49.4383621
  74.1190872  68.2590561  61.6600227  74.5801086  68.2412567  62.4986954
  74.2515793  69.1487350  61.3327065  53.7788429  63.2819710  17.3993473
  53.5601425  62.6149406  16.7485981  53.6525307  64.1132889  16.9419842
   9.5115023  41.5284653  88.7960129   9.8193579  41.0053635  89.5361633
   8.6503820  41.1658401  88.5881500  63.0766602  68.2910843  26.7325420
  63.0362320  68.3289261  25.7769451  62.2739258  68.7237015  27.0235519
  80.2034073  47.4039116  33.1636734  80.8484802  48.0458603  33.4603310
  80.6815186  46.5748825  33.1451721  75.7450714  67.1531677  49.7182198
  75.8881454  68.0499496  50.0207825  76.2647934  67.0848236  48.9173126
  30.8275375  68.8141632  86.5393677  30.5720615  69.5709229  86.0118484
  30.0357761  68.5822449  87.0247040  51.0072250  42.7095032  73.6439667
  50.9772873  41.9128647  73.1141434  50.1629181  42.7293816  74.0944977
  59.1407700  46.3997688  88.6886444  58.2701073  46.0168457  88.5811996
  59.1447983  46.7380753  89.5840607  58.1724091  46.5171089  49.0040321
  58.9694901  46.6647873  49.5130348  58.4858398  46.2932472  48.1277466
   9.6910849  47.4625092  50.7177849   9.1799345  47.4525604  49.9085541
  10.5476704  47.7999992  50.4558792  43.5457954  54.3398743   8.1946249
  43.1399460  54.7288017   7.4198666  44.4758224  54.2838173   7.9752111
  62.5316544  53.7556114  82.5466843  62.0454674  53.7362709  81.7223816
  62.2794380  52.9470139  82.9925461  21.7711105   4.3338876  35.3854713
  22.5193462   4.5156012  35.9541130  21.0456142   4.1722169  35.9885902
  65.2422485  50.6791573  68.1727371  64.8183441  51.5065422  68.4007034
  65.0022659  50.5311432  67.2580032  23.9584427  21.7869568  39.4449043
  24.1178665  22.4839878  38.8085365  24.3302822  21.0033512  39.0400200
  83.9693985  29.5545769  44.9825974  84.6537094  29.1316929  45.5013733
  83.4185715  28.8329945  44.6790581  65.4280472   1.3783458  59.0960274
  65.6944885   0.4865335  59.3194351  65.8116913   1.5338264  58.2329597
  46.9988670  25.2354202  72.0527420  46.2856560  24.8424873  72.5559006
  47.6761971  25.4219551  72.7028580  55.4335098  52.9582825  29.5875664
  56.0640640  52.3907661  30.0309143  54.8896027  53.3089142  30.2928696
  71.4460297  33.1526566  40.7389450  71.8815308  32.6830711  40.0275688
  72.0063477  33.0060349  41.5010338  62.2334137  60.6931992  36.4814110
  62.5564804  59.8012009  36.3541336  62.3688812  61.1200027  35.6354103
  85.7041245  35.4106026   2.9924970  86.1608429  34.5895004   2.8096454
  85.9091034  35.9705696   2.2437289   3.5244653  27.4541931  88.9494324
   3.5805881  26.5378647  88.6784592   3.1201737  27.4232216  89.8165054
  12.5604458  59.1907616  34.4311943  12.7397223  59.2493172  33.4927597
  12.9287176  58.3469849  34.6932030  25.3672829  21.4195309  11.2175522
  25.9274921  20.6478786  11.1342001  24.5883923  21.2066975  10.7034845
  75.2904892   5.0573940  76.8061142  75.4304581   5.6263118  76.0491638
  74.3756561   5.2014503  77.0480957  71.2030792  57.7013092  67.9695969
  71.3842773  58.6390381  68.0333023  70.3202972  57.6031647  68.3263931
  36.7443695  25.1057377  25.7054138  36.0475159  25.7252140  25.4889030
  37.5501785  25.6175785  25.6352386  59.2168961   3.8488479  54.0267906
  60.0833054   4.2546167  53.9964485  58.6137886   4.5811439  54.1542091
  47.3451424  65.2588196   8.1098328  48.1937370  64.9623642   8.4388237
  47.3751640  66.2118149   8.1942968  78.5263596  49.4769135  41.0685577
  79.0493011  48.7128105  41.3112755  78.7872925  50.1538734  41.6929512
  71.0176163  23.6955128  25.3974628  71.9270935  23.5824986  25.6737137
  70.8690796  22.9899330  24.7679195  45.7138023  70.7825928  10.7114239
  45.5534096  70.1072464  11.3705244  46.6643181  70.8955307  10.7106133
  62.5323257  46.0739594   6.3714647  62.1869011  45.8141403   5.5174093
  61.8465805  46.6242447   6.7498469   6.3568697   6.4945111  61.2927856
   5.4619555   6.5288663  60.9548798   6.6436038   5.5976300  61.1206818
  17.0505028  14.9157267  69.0205841  17.1143398  14.0379572  68.6441803
  16.2389145  15.2726126  68.6597672  15.7660494   4.5810771  71.7475662
  16.2612534   3.7995350  71.5022125  16.4196320   5.1702991  72.1242294
  79.3653946  55.4743309  33.9801483  79.8312607  55.3253822  33.1573410
  78.6625290  56.0822754  33.7507668  71.4712982   5.6511254  74.7065582
  71.9125137   6.3879972  74.2839737  71.6153564   5.7905149  75.6425400
   7.1987858  33.6211548  23.0061016   7.7761269  34.3750954  22.8857613
   6.3179383  33.9696579  22.8686771  73.3524628   5.7058311   1.8436110
  72.8258896   6.3474960   1.3669367  74.1121292   5.5542488   1.2813294
  10.0667744  40.0061836  20.3295345  10.5598698  39.2034035  20.1603317
   9.2918568  39.7145538  20.8098335  16.0862675  35.8280907   0.4143509
  16.9189758  35.3706741   0.5309556  15.8629179  36.1457291   1.2892526
  47.7054749  38.3159523  48.9850502  46.9735413  38.9298897  49.0449715
  48.4142952  38.7404022  49.4684258  15.3049927  20.2800770  13.1767702
  15.7100286  20.8637218  12.5352592  14.4369612  20.6545677  13.3268023
  79.3317871  46.3298798  59.5931587  78.9764175  45.8047829  60.3102493
  80.1263046  45.8666000  59.3279457  36.2616463  60.3145256  72.9746628
  35.7278290  60.5994377  72.2329788  36.4354897  61.1168671  73.4668579
  38.5309906   7.3936105  17.6779652  39.1702423   6.7605343  17.3511543
  38.7810135   8.2207651  17.2662182  82.4353409  39.3844109  43.8589439
  82.3768387  38.4292870  43.8822899  83.0247498  39.6059685  44.5798759
   8.4520864  70.4567108  75.8667297   9.2698231  70.1722260  76.2749100
   8.4508572  71.4082489  75.9707031  79.6634598  47.3482590  21.0904713
  80.1463318  47.5536537  21.8910236  80.0221176  47.9459229  20.4344234
  29.5190220  53.1810112  27.9699764  29.3195610  53.8869591  27.3550930
  29.9152374  53.6225128  28.7211895  50.8369255  71.2046967  52.7254829
  50.1270790  70.6703033  53.0815392  51.4885483  71.2348709  53.4259872
  48.4329681  60.0278473  56.8753929  47.7572098  59.4621277  56.5018387
  49.2388763  59.5160065  56.8063889  68.8055038  18.8407936  35.1052742
  69.5260925  18.2365379  34.9267654  68.5287552  19.1454735  34.2410927
  12.4981947  16.0277290  88.4522400  12.5844936  16.0249233  89.4055328
  13.3336000  16.3727512  88.1371384  40.3909264  57.3126869  16.8204517
  39.7424507  56.6455154  17.0453815  40.0615540  57.7036209  16.0111828
  53.7488022  32.1102638  31.6299038  53.4573402  31.9387417  32.5253716
  53.4166336  31.3688469  31.1237469  56.7211800  42.7469673  80.3151474
  57.5636444  43.0418892  80.6608505  56.7270508  41.7988434  80.4465256
  60.9045906  30.2358627  69.7084732  61.1784630  30.1438026  70.6210251
  59.9573860  30.3658810  69.7546234  32.6305618  49.5113182  44.2562523
  33.5116501  49.5176468  44.6302528  32.0632935  49.7904930  44.9749336
  61.5777740  35.3986664  43.7822609  62.2937431  34.8144646  43.5326042
  61.5191269  35.3125954  44.7337761  51.3933563   4.2001190  78.6169128
  51.1089668   3.2905989  78.5267563  51.9005089   4.3722491  77.8235626
  78.8170013  67.0853653  39.7902031  78.4259949  66.3542862  39.3117981
  78.1205673  67.7403030  39.8377876  43.5225029  47.7422600  16.0658779
  44.2091446  48.4066200  16.1240406  42.7739143  48.1312752  16.5181065
  61.5603523  12.2556477  68.2681351  60.8390541  12.2799959  67.6393509
  61.2197952  11.7465200  69.0036926  38.6796150  27.0912781  12.1111708
  38.1195946  27.6558437  12.6439686  39.1712875  26.5722504  12.7476444
   1.7176436  59.0509071  11.7215424   0.8642653  59.4818153  11.7694654
   1.6468774  58.3115654  12.3253593  46.4821701  17.8887978   4.7021580
  47.3649216  17.7657318   4.3531055  46.3535156  17.1481590   5.2947240
  84.4526978  10.0882492  14.2956142  84.4575195  10.8043575  14.9307489
  83.5497284   9.7706518  14.2995987  14.1671619  55.7270126  62.5399094
  13.4741678  55.8825073  61.8981857  14.2780533  54.7762871  62.5470505
  77.5303040  66.1755447  71.3803101  77.6498184  65.4085541  70.8202362
  78.3424759  66.2335358  71.8835526  11.5701265  31.6688843  70.9042816
  11.0039587  31.0210247  70.4848022  12.1339731  31.9866333  70.1990585
  58.5753403  19.3992290  33.3933334  58.4430962  18.5982609  32.8861885
  59.0388412  19.9867992  32.7965393  46.7449646  56.1985435  28.1958637
  46.1601639  55.4987602  28.4866257  46.1813431  56.7898827  27.6969814
   2.7686217  59.2616730  47.2402649   3.5709109  59.0955505  46.7453232
   2.8091965  58.6492538  47.9747925   9.2345343  36.1161079  83.1803055
   8.4490604  36.5824471  83.4662933   9.9544430  36.5656242  83.6229095
  78.6268921  67.7866287  18.2852936  77.8205872  68.1370926  18.6638088
  79.0064850  68.5232468  17.8061924  51.5354500  60.5407677  46.6246910
  51.5552444  59.7301407  47.1333427  52.4525871  60.7114639  46.4103165
  46.8217049  44.9003334  -0.3120493  47.2615356  45.0063324   0.5314820
  46.1234055  44.2685661  -0.1403431  21.1530304  60.4656715   6.7764544
  21.9126740  61.0097313   6.5686669  21.2559795  59.6899834   6.2251496
  41.8093338  43.1983147  31.5618954  42.6453362  43.4794312  31.9337864
  41.1556129  43.4806442  32.2015572  57.1827812   9.0818634  21.3443394
  56.3874092   9.5251589  21.6394768  57.6611824   9.7499285  20.8533707
  13.9445353  16.5540791  71.0955658  14.4185324  17.1420441  70.5074692
  14.5639811  16.3714542  71.8020782  64.6920090   1.3589729  55.3999023
  65.2381134   0.7646977  55.9145279  63.8035851   1.2076721  55.7224579
  62.2231827  51.6912575  40.3653030  62.2255821  52.2106056  41.1693573
  61.7858391  50.8752861  40.6085243  35.9628754   8.8326550  85.7301483
  35.5292511   9.5347118  85.2450485  35.3079529   8.5392647  86.3635788
  39.9962540  57.3586884   6.7048221  40.5922356  57.2756882   7.4492321
  39.7191544  56.4615860   6.5186687  41.7221680  46.5150032  82.9526215
  41.5246849  46.9799118  82.1395416  40.8822708  46.1482964  83.2289047
  67.6126785  41.4504013  78.5603714  66.7356644  41.7786064  78.7587738
  68.1386566  41.6975861  79.3209381  54.8587151  27.0287609  71.7817535
  54.0894432  26.4751434  71.6477509  54.8126030  27.2839146  72.7031708
  32.3681030   6.5016737  78.2999496  32.9916573   6.0265288  78.8491745
  32.5272713   6.1711230  77.4158478   4.8134227  45.2425117  45.3752785
   4.7658577  45.2278595  46.3311844   5.0562778  46.1433334  45.1613312
  85.4799500  54.6394310  26.8694382  85.6037369  53.8333130  26.3683567
  84.5679398  54.6044312  27.1579742  74.4139099  15.5276804  58.1308403
  73.8516235  14.7583685  58.0401268  75.2742004  15.2320309  57.8329773
  43.3821297  59.2020035  35.5314674  43.9562950  59.9623718  35.4397926
  43.4357071  58.7579994  34.6851692  83.2277145  45.4249802  62.4930534
  82.5186844  46.0662231  62.5412254  82.9757614  44.8427162  61.7763100
  19.1896114  66.2309265  66.4825745  19.2129841  67.1452332  66.7649460
  19.8231907  65.7893372  67.0480881  25.6157093  17.0806541   0.3535053
  24.9471474  17.6203232  -0.0684112  25.3277531  17.0106869   1.2636797
  44.0674133  47.5472412  50.4901276  44.6523247  47.5252724  51.2475090
  43.2314491  47.8532524  50.8419037  69.2699890  37.8689995   0.2711926
  69.1563568  38.8183670   0.3160898  68.5120468  37.5147934   0.7362646
  25.3817272  48.0420151  58.7307205  25.6048069  48.9094963  58.3931732
  25.3645630  48.1520729  59.6814156  31.4287968  36.2517242  12.2988577
  31.1151314  35.9542007  11.4448528  31.1308079  35.5789986  12.9111280
  70.2232590  71.3463135  46.9418831  69.6529388  70.5871201  47.0626602
  69.8619232  71.7984543  46.1794968  47.6811562   6.8017907  71.8361588
  47.6055870   6.7285171  70.8847580  48.6237755   6.8309860  72.0000153
  55.4784393  26.7453804  23.9053593  56.2201462  26.5411797  24.4749241
  54.8375664  26.0591488  24.0913773  56.8198051  45.1515846  14.0898008
  57.7170601  45.4813385  14.1390476  56.5848503  44.9600449  14.9977331
   1.3682892  67.8229599  76.3908768   2.2234917  67.9157104  76.8107071
   0.7762605  67.5831070  77.1037598  44.4780579  63.4370117  87.6253357
  44.1808319  63.8213654  88.4500580  43.6915512  63.4002800  87.0810165
  47.2031059  55.8666687  78.0525284  46.4879951  55.2567215  78.2336731
  47.9916039  55.4007072  78.3307114  69.4721451  13.2951641  58.9464912
  68.7541428  12.6827059  59.1065178  70.2602158  12.7525072  58.9728584
  49.1197090  16.3885078  72.8313904  48.8805466  15.4729424  72.9755096
  48.3427200  16.8829422  73.0922623  28.6794147  42.8019714  15.4021912
  29.0020123  43.6893044  15.5596704  27.7532921  42.8378410  15.6414423
   6.9944992  54.2173920   4.2087779   7.6479130  54.5210037   3.5786173
   6.1606007  54.5315628   3.8592873  59.8811569   1.2170101  19.6427784
  59.8783340   0.3837992  19.1716270  59.4820175   1.0150008  20.4890118
  37.1943054  59.0400238   4.9175329  37.0044098  58.1397362   5.1814537
  37.5999413  59.4353256   5.6891742  39.3613472   7.6265163  64.3054581
  39.4498062   6.6766596  64.3840637  39.1353645   7.9198809  65.1881256
  34.6914520  14.4694262  10.0534506  34.7125549  13.8984842   9.2854586
  35.6092529  14.5603905  10.3095636  41.9783592  15.9094210  77.1791916
  41.4920616  16.7286453  77.2720184  41.4731636  15.4016209  76.5442581
  57.3259811  14.0302324  74.7592087  57.8044205  14.7531710  75.1650314
  56.7892303  14.4468088  74.0849762   7.9941587  34.1620560  39.7935524
   7.9400301  33.6207695  40.5811501   8.5723381  34.8844528  40.0386772
  51.3919601  54.8609962  23.6609497  51.3094101  54.3354683  24.4567127
  51.1434288  55.7450676  23.9309139  61.7831039  28.9222736  75.2312622
  60.9145584  29.2508507  75.4634247  61.6141968  28.0897255  74.7901611
  74.8539505  33.0189018  63.0079346  75.7386246  32.7180367  63.2154732
  74.5156937  32.3646011  62.3966217  83.9036942  48.5829010  53.5572548
  83.5873566  48.1198425  54.3329773  84.1707611  49.4422150  53.8835793
   6.9559131  25.0473537  20.7616539   6.6198220  25.3101425  21.6185188
   7.6285181  25.6974163  20.5585480  83.1300659   3.1961055  44.1631775
  82.7706604   3.0842996  43.2830887  82.9853668   4.1204553  44.3653412
  19.4352570   6.0975084  23.6451454  19.4935799   6.9982233  23.9638042
  18.5267448   6.0030589  23.3589401  83.8905106  32.3972816  44.7563515
  83.7738800  32.5386772  43.8168640  84.0873871  31.4638958  44.8354645
  79.6881638  35.3742294  44.1040955  79.2873917  34.6450310  44.5772591
  79.7542801  36.0739441  44.7539139  22.9890919  42.1560974  64.4264221
  22.1557388  42.2979088  64.8754730  23.2963715  41.3104935  64.7531738
  55.6928177  14.0866261  36.3432961  55.9012070  13.3723679  36.9454918
  55.2970161  14.7593174  36.8974228  76.2393265  50.6401482  62.6695786
  75.7880478  49.9775848  62.1465225  77.1529922  50.3549614  62.6808548
  13.7022696  57.0347404  83.5946503  12.9463253  56.4476395  83.5851669
  14.3171215  56.6237488  84.2023315  40.2339745   2.6746068  57.9400177
  40.2211685   2.1890728  58.7648354  39.6394691   3.4104607  58.0859985
  84.4013824   6.9024467   1.8070949  84.7116165   6.4615855   1.0161283
  84.8753662   7.7339659   1.8193843  26.1678295   1.8533810  67.8809662
  26.0118351   1.2896053  67.1233063  25.9327469   1.3121747  68.6346664
  28.7586002  51.9353828  38.9250755  28.7159328  52.6947060  38.3438339
  28.1438560  51.3078766  38.5448761  67.8998566  35.4852943  70.9652863
  68.5090332  34.7645187  70.8052368  68.4569321  36.2616348  71.0218277
  47.5787773  13.6458464  86.5432053  46.8060799  13.9312487  86.0556488
  48.0759506  13.1192989  85.9172668   0.9452893   1.4039433  83.5986328
   1.1691118   1.0281148  82.7472229   1.7128996   1.2341011  84.1446686
  61.8294296  12.9794712  58.1940765  61.6049347  13.3876667  59.0302620
  61.2719116  13.4220839  57.5541534  49.2425957  13.9836645  22.5369854
  50.1535873  14.2229176  22.7075195  48.8103027  14.0655222  23.3870754
  79.5692291  27.7985115  46.3211288  79.0940933  27.3659687  47.0306244
  79.0764160  28.6027832  46.1582947  42.8971291   5.1075001  37.3261414
  42.4460411   5.7285500  36.7542610  42.9595451   4.3056960  36.8070602
  19.9468784  45.0837402  70.4735489  20.5813351  44.3716888  70.3918457
  19.1418133  44.7319756  70.0935974  80.1491394  70.3596573  30.1283550
  80.4919281  71.0788422  29.5977802  80.9130249  69.8133698  30.3134861
   8.8235826  70.1385040  57.9508133   8.6154232  69.2368011  57.7062035
   8.0452976  70.4464417  58.4152260  57.1587486  11.2546892  74.0494995
  56.6030693  10.8972654  74.7421036  57.2524834  12.1810055  74.2717209
  80.5367126  11.6779423   4.5069466  80.8013763  11.6288223   3.5883744
  80.9143219  12.4993811   4.8214006  12.2789831  17.2233410  63.6512718
  12.5999556  16.3314342  63.5181923  11.6688557  17.3687096  62.9281960
  73.9197083  31.9018288  74.2755280  73.1021118  31.5004730  74.5699539
  73.9757156  31.6775703  73.3466568  17.9732780  47.6606140  44.0892334
  17.9777775  48.4525299  43.5515709  18.0710430  46.9444847  43.4616699
  49.4276314  27.8612461  46.2335014  48.9518089  28.0578461  45.4265480
  50.1731606  27.3324947  45.9491806  80.0676956  65.5763855   2.4191835
  79.6570892  65.5902557   3.2837319  79.4807739  65.0423889   1.8838243
  18.9095116  60.7669830  70.3910828  19.1205482  59.9743996  69.8976212
  17.9602051  60.8560219  70.3066864  68.2150574  62.0138931  15.4735947
  67.5375671  62.5828857  15.1082497  67.7364426  61.3956337  16.0257797
  51.1847076  64.2485886  12.8249931  51.5754433  63.3794785  12.7344074
  51.6611252  64.7919846  12.1973190  29.2173042  62.1847687  40.7800446
  29.4347305  62.1044922  39.8513260  28.5357285  62.8562088  40.8092918
   9.5610237  56.6471558  52.9289284   9.7089739  57.5928192  52.9366455
  10.3553829  56.2836342  52.5376740  75.6280289  20.7424278  72.5943451
  76.5589905  20.9591560  72.5436020  75.2574844  21.0859127  71.7813568
  79.2146835  67.9877853  88.4148254  79.0859909  67.8843842  87.4719696
  79.4275436  67.1077576  88.7254333  10.3157988  33.7713661  65.8421326
   9.7471094  33.0224876  65.6632385  11.0645666  33.6482849  65.2586670
  38.2263527  70.8418198  86.9713287  38.7445641  71.2064972  87.6887512
  37.7886467  70.0816040  87.3543701  37.0642815  17.0256042  12.3901386
  36.9957733  17.9571495  12.1809444  36.2652512  16.8307018  12.8798313
  45.4092941  57.0747185  51.9040718  45.8018341  57.2099075  51.0415916
  44.8389091  56.3143692  51.7911072  45.4856224  49.6593437  16.0542660
  45.1206017  50.4747581  15.7106228  46.1053200  49.9394684  16.7278652
  30.0643158  28.5451069  47.1017418  29.1222191  28.7135468  47.1194801
  30.4516106  29.3043003  47.5374718  72.5608368   4.9823828  87.6719055
  73.3940353   4.6619382  88.0173416  71.9145813   4.3449707  87.9757080
  73.0385056  45.4559097  68.2979202  72.7467575  44.9044342  69.0238571
  72.6209183  46.3023453  68.4572983   1.4956205  26.6296577  14.4038095
   0.9437551  27.1142559  15.0176830   1.9278169  27.3072910  13.8839521
  77.3966904  25.7266235  28.0036583  77.8244095  26.5757771  28.1142197
  76.9616699  25.5667133  28.8411636  34.1617126   2.1914361  35.4080276
  33.7299385   2.3875272  36.2395020  33.5184174   1.6780548  34.9193153
  41.8087463  37.2862320  28.6169567  42.5870819  37.0589561  29.1256542
  42.1530151  37.6831245  27.8168411  71.0742340  53.6211014  50.3827477
  70.1497345  53.5631142  50.6239204  71.3263092  54.5152435  50.6134033
  68.4952698  42.8643036  58.5763550  69.4238739  42.8726349  58.8084297
  68.3898163  43.6085472  57.9837227  67.3872757  52.8778191   3.3048427
  67.0664749  52.7861404   2.4076731  67.0689316  52.0949097   3.7542152
  86.7123489  14.8346920  54.9847641  87.5065460  14.7154207  54.4639511
  86.3633575  13.9502630  55.0953178  62.3979378  64.3751068  22.3320484
  62.2151337  64.0284500  23.2053432  61.5392418  64.6192398  21.9866886
  74.5828705  22.1077671  77.6586456  75.0453415  22.4439354  78.4263382
  74.9465637  21.2326317  77.5241318  62.9284630  64.0411987  81.3409348
  62.6765938  64.4357605  80.5060043  63.2070847  63.1544151  81.1124115
  49.2617455   5.7572112  11.5708895  50.1355476   5.6952572  11.1850624
  49.4114342   6.1123433  12.4470778  37.0694923  68.0212860  63.7757225
  36.1162415  67.9380951  63.8007355  37.3665733  67.2352142  63.3173943
  16.5115910  67.8505478  44.5295448  16.0984955  66.9910812  44.6125984
  15.7791376  68.4654922  44.4896965  28.3458652  59.1447258  84.8935394
  28.6939087  59.1682510  85.7849121  27.6890564  58.4486504  84.9111633
  86.3992310  18.0986176   5.4719877  85.6372299  18.3318138   6.0022674
  87.1147461  18.6173000   5.8397403  25.8330841  62.4536934  39.7201271
  25.1296234  63.0573578  39.9587898  26.0525818  62.0065422  40.5375061
  85.1250839   3.8839557  58.7411766  84.8221512   4.2123699  59.5877037
  85.1112976   2.9314592  58.8349419   3.0664854   9.0653763  73.6646042
   3.1014211   9.9484921  74.0321808   2.7767849   9.1932182  72.7612991
  39.9184227  37.2482033  67.2222672  40.6178741  37.9011765  67.1973190
  39.7555008  37.0364990  66.3031006  66.7292633  58.3496323  66.7879486
  67.0690002  59.1320877  67.2221985  67.5052185  57.9183769  66.4299774
  52.6598358   0.9597474  74.7369461  52.9941673   0.0768341  74.8947983
  53.2174492   1.3059995  74.0402374  57.9814758  58.2693596  62.6990433
  57.6707191  58.9619598  63.2821121  58.6520767  57.8120918  63.2064247
  69.9964371  44.3729134  70.3579559  69.5177231  44.8769035  71.0160370
  69.7191086  43.4679871  70.5008774  65.0967484  61.6611862  29.7512207
  64.5774765  61.0876923  29.1875801  65.8171234  61.1093445  30.0557861
  16.2890873  46.1050529  14.3645582  16.7018909  45.9628105  13.5127420
  15.4193726  46.4457207  14.1553345  20.3907013   0.5774778   2.8734531
  20.8558140   0.1739970   3.6063271  19.5000210   0.2324970   2.9359660
  14.7198639  60.6740189  79.0965347  15.5104713  60.1344223  79.0933228
  14.1967611  60.3281441  79.8197021  75.3062210  60.0294113  25.2940483
  74.5027008  60.1158028  25.8070030  75.2238922  60.6905632  24.6067848
  84.0362778  55.7801132  60.6217537  83.5660019  56.5957184  60.4489403
  83.8940582  55.6144867  61.5537262  38.7530060  61.8874092  76.2299728
  39.4369125  61.6190186  75.6164017  39.2104530  62.4201660  76.8804626
  59.1040344  57.2031822  89.1326599  59.6480827  56.9323311  89.8721695
  59.6152153  56.9648285  88.3592758  31.1722870  66.3222656   1.8856270
  30.3647575  65.9182968   2.2033334  31.7854767  65.5928574   1.7951328
  34.4080009  58.0186539   9.9184618  35.1025047  58.1809120   9.2800512
  34.7940369  58.2629395  10.7596130  72.7280121  13.2394962  81.8451233
  72.6583405  12.6101236  82.5629425  73.1566849  14.0012569  82.2352448
  12.6050825  65.4066696   1.3090533  13.2760191  66.0259781   1.5963457
  11.7860889  65.8993225   1.3617156  46.9834747  34.5432053  67.7424850
  47.1721268  35.4385757  68.0234756  47.8285027  34.2004204  67.4515228
   9.0485783  46.1406708  86.7791367   9.3280535  45.2260933  86.7382126
   9.4854984  46.4901009  87.5558167  22.2620316  68.4638214  76.0138626
  21.5500011  68.3571243  76.6446304  22.5829201  67.5748520  75.8622513
  44.0828590  19.0138073  68.4233932  44.4023857  19.8614311  68.1140900
  43.2806244  19.2206917  68.9028168   7.7555718  69.7282867  45.5889893
   6.9369078  70.2236862  45.6134949   7.5215511  68.8622665  45.9228630
  75.0120392  48.4253502  53.4209175  74.4592361  47.9268951  54.0227318
  75.6901932  47.8064117  53.1502533  86.6841354  56.4539223   5.6770592
  85.8615952  56.9182167   5.8322821  86.5403519  55.9790993   4.8584599
  28.5971222  28.2513180  76.2745514  27.7269726  28.6127205  76.1058502
  28.7561493  27.6573944  75.5409317  11.3561974  46.5280876  21.3008900
  11.6119928  47.4246178  21.5177631  10.5146055  46.4061890  21.7403164
  54.9560852  56.3391266   3.6318221  54.9970398  55.3840561   3.5828516
  55.7028008  56.6378059   3.1127484  84.1194458   9.8167181  87.2958832
  84.2608185   9.9445229  86.3578491  84.9521942  10.0618839  87.6991959
  86.3984528  38.7089500  83.3232040  86.7430649  39.4442253  82.8164062
  86.4469681  37.9626350  82.7257996  30.4063396   9.5628920  47.6060715
  30.6954460  10.1209984  48.3279915  30.2188778  10.1724949  46.8922997
   3.4002175  70.5894623  75.0426941   2.8432043  70.1160889  74.4247208
   3.6649921  69.9278870  75.6817932  49.8878250   0.7472585  12.2715778
  50.6949654   1.1549866  11.9577122  49.2609444   1.4685065  12.3268690
  57.9452400  13.9218187  79.8330078  57.2286758  14.1783609  80.4134827
  58.7370110  14.2051477  80.2902374  18.5440769  39.1631432  23.6654892
  19.2315445  39.7134361  23.2902603  18.0698986  38.8218842  22.9072475
  50.8453178  70.9549561   0.2570422  50.7456779  70.8591537  -0.6901250
  51.4053688  70.2225494   0.5142546  46.6972008  54.9054642  56.6543388
  46.2691040  55.6270180  56.1935501  46.5053520  54.1337013  56.1216049
  58.0183754   8.1501818  88.5345459  58.0532532   7.2342405  88.2587509
  58.2328339   8.6464920  87.7446671  63.9176483  12.4138775  15.5259180
  63.3111382  11.8579559  16.0151272  63.3593330  13.0742435  15.1155119
  63.1857643  34.4649467  83.8268127  62.4280853  34.5794716  84.4004288
  62.8103523  34.2306442  82.9780426  28.7466145  49.6214104  63.2754173
  29.4707260  49.3551369  62.7088585  28.1893463  50.1607552  62.7143555
  13.5682068   9.6647196  35.1853142  12.6989555   9.3202162  35.3901329
  14.0695143   9.5448322  35.9918823  78.1259155  11.0967541  78.6771851
  77.9587784  11.7721262  79.3345795  79.0346451  11.2397175  78.4126053
  50.1281776   9.7636728  20.3447800  50.9132233  10.1534548  20.7294922
  50.3540611   8.8416319  20.2221050  34.4601250  63.6859398  75.4654846
  33.9389076  64.2034912  74.8517227  34.6614838  64.2916489  76.1787872
  38.7432213  12.6094809  19.5647945  39.3879318  12.0560560  19.1239986
  38.8077316  12.3638201  20.4876823  56.6756172  29.3836269  39.2498856
  56.1566887  28.6641788  39.6095238  56.0582237  29.8781986  38.7109451
  74.8740616  43.0860786  36.5763969  75.3792877  43.6802635  37.1313019
  75.2416840  43.2054520  35.7007065  27.5656471  46.3425598  75.3394089
  27.2839680  45.8023529  74.6011276  27.9816017  47.1035919  74.9343872
  39.5052834  45.7878189  20.1050224  38.9717903  45.0752907  19.7529945
  39.6720161  46.3562164  19.3531208  63.4875450  39.2822418  67.7429047
  63.4753876  39.9236488  68.4533157  64.3096008  39.4505272  67.2823181
  15.3432522  69.2518692  52.7143326  15.6410961  68.3671494  52.9259567
  15.2389717  69.2482986  51.7628365  58.8176270  44.7471237  25.9485321
  59.3990402  44.2329636  25.3883266  58.7877197  45.6098366  25.5349331
  51.3089943  33.1198769  49.5547447  50.6374207  33.5257492  50.1029091
  51.7787933  32.5326157  50.1468964  30.3871765  55.1784325   2.9820154
  31.3340797  55.0386848   2.9907482  30.2848835  56.1154404   2.8153355
  36.7870941  19.7789345  14.6817245  37.6573334  19.8369675  15.0761194
  36.4073639  18.9836617  15.0553265  42.3916397  37.3054008  69.4890060
  41.8801498  38.0955734  69.3151169  42.9420242  37.2007332  68.7128906
  70.8746262  21.5226192  23.6926270  71.2989273  20.7101135  23.4168835
  70.1255951  21.2362518  24.2152805  43.9468079  19.7758827  14.4241467
  43.3813477  20.5188217  14.6351624  43.6808281  19.0906906  15.0373335
  74.9111328  30.8285637  53.5961838  75.0473251  31.4202347  52.8561783
  75.5759125  30.1489182  53.4849358  60.9305916  39.2199097  89.0459595
  60.3127213  39.2389717  88.3151321  61.5155334  38.4890747  88.8460693
   1.5412405  26.9136639  53.3270760   0.8084414  27.5294876  53.3266068
   2.2054849  27.3313828  52.7788773   5.0538235  51.9945221  43.6970482
   5.0278530  52.8137589  44.1914291   5.6518121  52.1718063  42.9709549
  17.6648579   0.0920519   7.6842561  17.3419724   0.9797399   7.8391309
  17.6846161   0.0072822   6.7310219  19.1448860  66.8907471  44.3073807
  19.0584545  66.7097397  43.3714333  18.2589493  67.1171951  44.5903511
  39.3802490   0.4618468  25.2692528  39.9128685   1.2279176  25.4829941
  39.7972717  -0.2590212  25.7411346  24.1763229  45.2709961  34.4319305
  24.8787289  45.8775330  34.6663933  24.6270847  44.4550362  34.2145538
  34.2205200  40.0828819  75.7813721  34.8749428  39.3911896  75.8789368
  33.3985214  39.6750526  76.0538101  74.6313171  34.9114723  52.6926651
  74.9516602  35.0479202  51.8010406  73.8021927  34.4464417  52.5807419
  64.1614380  63.8762054  63.6683502  63.9859924  62.9454575  63.5299416
  64.4642487  64.1920471  62.8170090  11.1170254  22.7808056  24.2731667
  10.3110075  23.2966232  24.2508335  10.8401785  21.9169769  24.5787640
  39.4011574  18.3710957  15.4856720  40.2232666  17.8831940  15.4375248
  38.7444305  17.7121754  15.7109842   5.1886849  16.1127815   7.1303492
   4.9995894  16.9761238   7.4979262   4.4853768  15.9620838   6.4987798
  80.9543839  16.4759464  16.9171810  81.2434006  15.9202518  17.6409912
  81.6337128  17.1462879  16.8438206  81.2302322  57.3269081  32.0045967
  81.7595673  57.9223671  31.4740601  80.3258438  57.5461006  31.7804070
   6.0413156  17.6585960  68.8251648   6.3449078  18.5459709  69.0165558
   5.9430647  17.2485123  69.6844711   1.7171216  16.0747604  33.0082817
   1.5460213  16.3565407  33.9069214   2.5982292  15.7019224  33.0378304
  49.1844673  35.5427742  33.7737885  49.3570633  34.6552162  33.4596405
  49.7125053  35.6225929  34.5681686  18.1172962  50.9687042   2.4365575
  17.7116241  50.6456451   3.2411036  18.6636219  50.2426567   2.1355329
  63.5246582  -0.0425330  37.4999886  63.3287086   0.8787046  37.3292313
  63.7160034  -0.0769731  38.4372330  10.5210972  52.5827560  66.7380219
  10.1929321  52.6473808  65.8411560   9.7361784  52.6272507  67.2840576
  60.7754555  23.9368572  10.1780195  60.6615753  24.0304031  11.1238060
  60.4705315  24.7690964   9.8165874  80.5971603   9.6334124  10.0473862
  79.9746399  10.2965698  10.3455868  80.9977646  10.0150013   9.2662735
   8.6420116  52.4314804  86.9329910   7.7343278  52.4984932  87.2293854
   9.0329313  51.7717171  87.5058060  39.5446510  64.4210129  85.9588013
  38.7261200  64.9119034  85.8862457  40.1759682  64.9317627  85.4520416
  59.4532433  13.3976154  72.1608200  60.1900482  13.9962378  72.2833023
  59.0989647  13.6264973  71.3015594  42.8510742  55.3694191  33.8851624
  43.2005997  55.8482742  33.1336555  42.7826881  54.4641991  33.5816231
  62.9462967  47.7422981  83.1511612  63.6163445  47.0629005  83.2265472
  62.9835167  48.0147209  82.2342987  35.4147072  69.6931152  76.2745590
  34.6528625  69.4909515  76.8176575  36.0319023  68.9838715  76.4542007
   9.2010145  65.9362030  62.1142654   9.9732380  66.5017242  62.1235809
   8.4688244  66.5331573  61.9600754  86.2399673   8.3994474   6.5159006
  87.1743698   8.3117428   6.3276663  85.8059387   7.9643612   5.7820401
  70.8896408  26.9006348  40.5782509  70.2021637  26.7417488  39.9314384
  71.4092102  27.6129093  40.2054977   7.5770988  58.5414314  12.8864450
   6.9474640  57.9553032  12.4666309   7.1239419  58.8603363  13.6669464
  65.2311020  23.5854721  33.9679718  65.6313629  24.4549637  33.9703636
  64.2911987  23.7546558  33.9032021  82.0821686  17.6545563  44.4261856
  81.4939499  18.4085026  44.3837891  82.7893677  17.8679962  43.8174667
  62.2337608  51.0959816  44.4262199  61.4875717  50.8177795  44.9572906
  62.7897072  50.3189163  44.3685989  43.6521835  57.5778809  80.5257797
  42.9243660  58.1519279  80.2870789  44.0872955  58.0305939  81.2482529
  80.6425629  16.6556797  34.3303299  81.0712204  17.3914986  33.8932343
  81.3622284  16.0851326  34.6001358  73.6682587  29.6331844   3.7192273
  74.5492706  29.4512253   3.3922062  73.1360626  29.7345829   2.9301028
   4.9109478  40.0013962  32.6102905   5.2124138  39.9159698  31.7058277
   5.5493517  40.5841179  33.0215149  68.4864349  43.2014351  13.8496857
  68.4786377  44.0982742  14.1841240  69.1658096  42.7612305  14.3604660
  22.8309155  67.0942001  57.9162521  21.9849682  67.5076294  57.7439575
  23.3128815  67.7407684  58.4319038   8.8580580  48.5728798  76.5498581
   8.8745165  48.9817619  77.4151764   8.1300449  47.9528198  76.5917511
  48.0213165  63.3702011  35.9474411  48.3783340  62.9887466  36.7494774
  47.4506683  62.6890259  35.5916405  76.3887711  18.4259872  26.8670502
  76.5946884  18.1283150  25.9809246  77.0970306  18.0764198  27.4077892
  75.1639252  16.6151352   3.3989172  74.9641418  15.7107916   3.6407435
  76.0964279  16.7140026   3.5910072  11.5287752  55.2039413  33.5350380
  11.1335154  55.8787193  32.9830627  11.5258760  55.5818710  34.4144669
  34.6671906  61.1286163  70.8837051  33.9870911  60.4987068  70.6451569
  34.3816757  61.9513130  70.4863663  81.2929916  49.5700798  19.7322426
  82.2283478  49.4335556  19.5815639  80.9364624  49.7635651  18.8652458
  83.0816727  56.2133598  46.6032066  83.9624023  56.1421700  46.9712906
  82.8594208  55.3204575  46.3394585  67.0238571  20.3550472  87.4509735
  66.6015320  19.7352676  88.0457458  67.8220215  19.9091206  87.1675797
   0.3661375  69.1585464  24.2646523   0.5165808  68.8404312  25.1548233
   1.0979745  68.8068542  23.7577419  33.7622643  32.6392097   8.1828899
  34.0106850  31.9495831   7.5673122  33.7889366  32.2154846   9.0407810
  14.3796549  68.0084381  26.0106106  14.8391008  67.9799805  26.8498554
  15.0339413  67.7300339  25.3698063  58.1684799  53.4121590  10.7097149
  59.0956001  53.2265739  10.5605822  57.8382416  53.6854706   9.8538675
  60.5367393  47.5935669  18.8445072  59.7111282  47.2985992  19.2286758
  60.9750252  48.0659294  19.5523300  35.5684357  67.8748093  59.8242950
  35.0457726  68.2083054  60.5535660  35.1931114  67.0150452  59.6341019
   3.4888301  40.9902687  15.4342899   2.7246594  40.6423378  14.9747047
   3.1447961  41.2963562  16.2734451   9.3793421  28.7741489  67.2821579
   9.2480297  28.2417145  68.0667038   8.5631533  28.6818447  66.7906876
  85.5136108   3.2491500  45.7010880  85.4197693   3.9872231  46.3033142
  84.7743149   3.3355918  45.0992584   8.1268063  29.6616001   2.4641829
   8.0689354  29.7014084   1.5095634   7.7460628  28.8134613   2.6920555
  36.5654488  31.9384460  27.0603657  35.9012833  31.5305710  27.6160202
  36.3939247  32.8774261  27.1320000  79.4326782  34.1939163  71.6626358
  79.1671295  33.2782288  71.5775757  79.0765610  34.4690857  72.5074387
  57.2920723  11.7112255  78.4066849  57.6342201  12.4199781  78.9515076
  56.6093178  11.3062191  78.9415131  64.5301895   3.4074578  37.9843102
  64.5101166   4.3468161  38.1671638  63.6268768   3.1187747  38.1143951
   5.6738324  28.4600868  68.0309906   5.6807313  27.7566929  68.6801605
   4.7936931  28.8317318  68.0898743  54.2685432  17.4839458   1.4038351
  55.0021095  17.2345695   1.9659089  54.3941879  16.9720230   0.6048476
  45.0648994  38.6895332  25.8652573  45.7864189  38.2183495  25.4485741
  45.3417282  39.6058044  25.8586903  21.7275009  39.1108437  16.5167580
  21.8747005  38.8513641  15.6072350  21.1461430  38.4360085  16.8672619
  44.2629585  17.0826283   7.5583334  44.2920494  17.4685230   8.4338169
  44.9484901  16.4146557   7.5681167  76.1664429  26.2439270  85.6959305
  76.0775757  27.1969261  85.7071304  75.3073196  25.9265137  85.4177322
   8.9375982  17.0740166  27.1457176   8.4952860  17.2284241  27.9804344
   8.6975622  17.8262959  26.6047096  57.2368965  47.9176941  76.3624649
  57.3399315  48.3055878  75.4934692  56.6353874  47.1853333  76.2280655
  56.7668877  34.5303040  81.6267471  56.9799156  35.4151459  81.3302612
  55.9328156  34.6260643  82.0865173   5.8988571  17.0277519  83.3267746
   5.7467647  17.8044167  83.8651886   5.0691223  16.8860035  82.8710556
  18.1942215  61.4633179  62.8182716  18.2692547  60.8283730  62.1059189
  18.7196198  62.2097473  62.5301285  37.3310852  70.6201401  55.3513374
  37.4117508  69.8531570  54.7843552  38.0840683  70.5633926  55.9395828
  66.0621490  22.7197762  25.3178844  65.7979813  21.9054546  25.7460518
  66.7605896  23.0666027  25.8729725  19.5665894  12.1733055  89.2198944
  19.9115791  13.0158129  88.9242706  18.6388340  12.3396273  89.3867416
  46.7398071  54.3678780  18.0740871  46.7887726  54.7010040  18.9701138
  45.8237114  54.1136894  17.9627876  59.7296257   9.5292521  31.7662849
  59.2351456  10.0415983  32.4059906  59.5617905   9.9638405  30.9301052
  86.0786591  62.9545746  48.2901726  86.4396591  62.9339790  47.4039001
  85.9475250  63.8847961  48.4738197  28.4489269  57.6944733  51.6582146
  27.8914089  57.4950294  52.4102936  28.3604851  58.6400414  51.5385704
  28.9676247  32.9325829  78.2045441  28.1586494  32.4211082  78.2181778
  29.1142216  33.1242676  77.2782669  83.8644409  60.7913857  28.7154694
  83.2020264  60.3682404  28.1692162  84.0151825  61.6385345  28.2961311
  17.6932144   1.6532855  24.3655739  17.1208248   1.0547441  24.8455219
  18.4543266   1.7651834  24.9351540  65.1150665  66.2572861  51.5321312
  65.9486542  65.8509598  51.7693405  65.3619232  67.0652084  51.0820770
   9.0536661  14.0765324  86.8359146   9.4840450  13.5937214  86.1302948
   8.5640812  13.4101992  87.3181381  77.8258362   5.5663352  62.0146675
  78.2202606   5.3136978  61.1799011  78.4822693   6.1254587  62.4302559
  38.7453995  18.8876953  87.5602798  38.4259682  18.9915714  86.6639557
  38.1061287  18.3097782  87.9769058  48.5084648  14.3483200  13.2881145
  48.0757179  14.9935760  13.8472271  49.3906975  14.6965208  13.1590614
   6.6751871  39.5474243  45.3209229   6.6425214  38.8568497  45.9829407
   6.5045362  39.0953636  44.4946327  62.6463203  36.5277519  50.1180420
  62.9993706  36.0811119  49.3485603  62.2028465  37.2989960  49.7648468
   7.1125278   8.5618334  66.5328369   6.5406213   8.7570143  65.7905045
   6.5192208   8.2530594  67.2175827   5.3291645  46.8921623  84.5177078
   4.8886800  47.6371841  84.1088715   5.6336403  47.2272530  85.3610611
  43.4637947  28.1279278  28.7175350  43.6972961  27.6456146  29.5106812
  43.8017998  29.0110703  28.8660107  67.4638062  55.9748344  30.4624367
  66.7338257  55.6374130  30.9815731  68.2458801  55.6644669  30.9187984
  66.6026535  68.9558334  70.8911514  66.3135681  69.1888885  71.7733917
  67.2538757  69.6212311  70.6689072  71.2735977  64.0363541  14.9531651
  71.4601440  63.2184105  15.4140282  70.3181229  64.0929031  14.9428186
  26.8415394   2.3959150  17.5979004  27.3194160   1.6739131  18.0060406
  25.9206753   2.1449568  17.6704426   8.1945591  20.2335148  73.0055008
   8.7227364  19.6545067  73.5550537   8.5177383  21.1124287  73.2037354
  40.4876442  61.1800385  12.9301901  40.9635811  60.6032944  13.5277548
  39.5806198  60.8778419  12.9772778  37.1919937  68.7820587  23.3721981
  38.1174698  68.6871262  23.5973873  36.9486160  69.6413574  23.7165966
   1.5795085  41.8314896  30.5337849   0.7054953  41.4430580  30.5719147
   2.1172094  41.1692085  30.0996304  41.0717545  68.9932785  52.0129623
  40.7973366  68.0897217  52.1695099  42.0135498  68.9332352  51.8528137
  42.9787254  68.3380814  71.3042297  43.2094612  69.2293854  71.5660782
  42.9881325  68.3595428  70.3473206  79.4419937  10.9449263  38.0149536
  79.4564819  11.3339539  37.1404915  79.0569458  10.0782509  37.8851814
  44.4992256   9.0838022  54.1506577  44.0151978   9.8343010  53.8061256
  45.3448181   9.1183748  53.7034378  71.1115570  17.9036427   9.2300978
  70.8908920  18.4633141   8.4855785  70.2727127  17.7331371   9.6584759
  34.6993141  27.7185726  75.7793655  34.1760406  27.0850201  75.2884216
  35.0783119  28.2869625  75.1089020  79.7682877  24.7374763  78.1476135
  80.6805420  25.0017166  78.2667618  79.3848190  24.7992325  79.0224686
  84.2957306  16.3683128  87.7618408  83.8633881  16.1205692  86.9445724
  85.2301788  16.2762012  87.5759506  54.6943932  15.1309900  38.8028679
  54.5436516  16.0514088  39.0181313  55.2082024  14.7943640  39.5369759
  41.8743172  31.4513645   4.3306556  41.1381760  31.4246292   3.7194159
  41.7991409  30.6393013   4.8317885  57.0977020  38.7941551  46.2560158
  56.8721352  39.2781334  47.0504456  56.4549370  39.0837059  45.6085243
  68.1972809  54.6212769  73.5299759  67.8400345  55.5013618  73.6485291
  67.4324341  54.0464516  73.5586395  70.3288193  24.9564381  33.1770554
  69.7872086  24.5725098  33.8666115  71.2152481  24.9518223  33.5382500
  17.5498142  11.2043800  73.8263168  16.8518047  11.7270451  74.2210846
  17.7003727  11.6112528  72.9730759  26.3429890  50.5896225  78.7518692
  26.7527447  49.7413712  78.5821686  26.7653046  51.1873283  78.1349106
  76.5887222  28.4748688  17.8832321  76.2221146  27.9058189  17.2064629
  77.1821060  29.0581837  17.4100857  30.3137760  21.4018269  85.7824020
  30.3049717  20.7366066  86.4706192  29.9366398  20.9627380  85.0200348
  17.4001198  48.6124611  75.5758896  16.4707928  48.7371521  75.3834534
  17.5471306  49.1105118  76.3799820   5.0422206  57.8115692  47.3910942
   5.6981425  57.4746780  46.7807655   4.9339113  57.1126709  48.0361099
  28.8423748   7.9350500  84.8765869  28.4340744   8.0691671  84.0212860
  28.1730938   7.4870572  85.3938828  71.5936737   0.3946716  17.0629482
  71.5004883   0.3950197  18.0156021  70.7027969   0.5174830  16.7351074
  65.3291321  15.5780745  74.7977219  64.7172394  15.9873028  75.4095612
  65.0087280  14.6811304  74.7025070  64.4093246  30.1592598   9.5472755
  64.3787460  30.0530624  10.4980755  65.2352600  30.6145153   9.3835640
  72.8172226  60.2223663  15.8166256  72.0140610  60.7411156  15.7711897
  72.9757767  59.9468231  14.9137583  13.7097740  15.4556246  24.9808445
  12.9351568  14.8934069  24.9702930  14.2557716  15.0979958  25.6810017
  44.6637039  20.5415382  20.3791866  45.5154877  20.9268246  20.5847397
  44.8049355  19.5973473  20.4484005  45.7108231  53.2021141  46.8390350
  45.4923019  54.0903664  47.1209641  44.9839592  52.9452820  46.2716408
  45.7694550  60.6302414  50.6745338  44.9341469  61.0315018  50.9142914
  46.1761360  60.4054604  51.5113831  55.0144730   1.3892767  49.9011688
  54.8434067   0.6341029  50.4639130  55.8090401   1.7821336  50.2625008
  23.0615578  26.6721745  23.3144073  22.3594818  26.6968002  23.9645729
  23.8637581  26.7877979  23.8236599  60.7197647  35.2602501  67.8473434
  60.1681061  35.4536781  68.6052933  60.9071121  36.1165123  67.4626999
  26.7098999   1.7000136  77.5723953  26.7835255   0.7535062  77.6946030
  25.8338509   1.9153986  77.8923645   9.6961527  16.5754204  24.1009617
   9.0363855  16.5679646  23.4075031   9.1915083  16.6501579  24.9108887
  51.0470581  50.9897003  38.7461433  51.3808365  50.1370125  39.0249863
  51.6241837  51.6236877  39.1718369  29.1804276  57.7466736  31.6697865
  28.9754696  56.8697968  31.9943104  28.4173298  58.2739677  31.9061604
  70.8151245   9.8632259  31.5819931  71.5892639   9.4713669  31.9862041
  70.2678070  10.1292000  32.3208656  50.0065041  27.6111317  32.7894859
  49.9338951  26.8131580  32.2658463  49.1926613  27.6424751  33.2923889
  61.3937912  45.3635368   3.8645890  61.6690826  44.5568886   3.4289689
  61.7277222  46.0642166   3.3044391  24.2507725  51.4687080  29.0968170
  23.9248600  51.9393196  29.8639793  24.1574802  50.5439529  29.3256283
   0.5459289  40.4789963  14.5431213  -0.2757907  40.4731255  15.0340128
   0.3247749  40.8969879  13.7108927  20.9500790  65.4134369  68.4277039
  21.0218086  64.4814301  68.6337585  21.8549709  65.7249832  68.4092560
  32.4553719  11.0253630  13.7443800  32.8438644  11.1521368  12.8787966
  33.2051163  10.9307795  14.3318901  20.0100288  65.7944565  52.0533333
  20.8049145  66.3271713  52.0288124  19.3522606  66.3639450  52.4524040
   4.5435863  53.8751755  54.2987823   5.2199516  53.5679703  53.6951370
   4.4155316  53.1463814  54.9059906  68.1874237  51.4600372  77.5259323
  67.4892197  52.0551949  77.7989349  68.5244904  51.8419914  76.7155380
  39.3541489  26.1907959  23.3817310  38.5011482  26.4342995  23.0221024
  39.3106689  26.4544544  24.3008747  56.5044250  17.3887596  41.2929802
  56.5330963  16.4344177  41.3610916  56.7320480  17.6983967  42.1696472
  68.5596161  47.8163757  72.0802078  67.8865814  47.1798897  71.8390884
  68.7856140  47.5953293  72.9837036  -0.0456450  71.0358429   1.5870042
  -0.0589960  70.1350098   1.2636521   0.2062861  70.9563675   2.5070293
  63.2761078  12.2660999  64.2405472  63.4260521  12.5915756  63.3529587
  63.1961288  13.0561371  64.7750397  37.8256912  10.6692963  52.3558960
  37.4574661  10.3521948  51.5312233  37.9727135   9.8772078  52.8728218
  33.8858795  59.9128761  56.2947998  33.6669769  59.0197372  56.5605278
  33.9714203  59.8653107  55.3426170  33.9941444  55.0887718  63.0837402
  34.6057243  54.9997444  63.8146820  34.5350304  54.9697495  62.3030319
  13.9941740   4.4645519   9.7546968  14.0192623   5.2537460  10.2957840
  14.3043957   3.7677107  10.3329754  56.8341103  33.7823486   8.8975916
  57.5907669  34.3292160   8.6863165  57.0174408  32.9449348   8.4717274
  84.0020294  63.4825897  28.1102295  83.4743195  64.0223389  27.5216541
  84.1823044  64.0507660  28.8591671  41.1714821   4.6545496  55.9838219
  42.1116562   4.7762003  56.1161308  40.8927956   4.1172757  56.7253761
  33.5032806   9.9966803  10.3116989  32.9885368   9.8880157   9.5120344
  33.1768990  10.8093529  10.6980534  16.4230747   2.8612814  15.1832142
  15.5980015   2.4099391  15.3614712  16.3987675   3.0425920  14.2436571
  22.7866802  57.9114761  60.6640129  21.9975796  57.5119019  61.0299301
  23.3058853  57.1715317  60.3491440  67.5081940  58.9332237   2.6602063
  66.9370651  59.6993332   2.7161107  67.9882050  59.0516243   1.8405682
   8.0993919  33.3360748  84.7598038   8.3204250  32.9628906  85.6130905
   8.4852877  34.2119217  84.7742081  49.3214264  39.4597626  81.8701859
  48.4477310  39.1124420  82.0497818  49.1615562  40.2892342  81.4200134
  12.8351679  60.8586731  44.2229996  13.3089800  60.8302116  43.3917809
  12.1002426  60.2577553  44.1004677   1.7116735  46.2936096  88.9824066
   1.8022830  45.5620613  88.3717880   2.6115003  46.5357323  89.2013168
  68.7307510  22.7655258  29.6063519  69.5561981  23.2453728  29.5383720
  68.2725983  23.1794930  30.3377590  81.2273712   8.4721966  74.0578918
  81.4807281   9.3515568  73.7772293  81.6368484   7.8894129  73.4184189
  69.8308945  19.2075443  28.0057697  70.7450256  19.4613075  28.1330967
  69.7958145  18.2917881  28.2821636  49.1564217  44.3513222  28.8278847
  48.9478531  43.4442558  29.0514069  50.0994911  44.4234772  28.9750080
  31.0058727  66.8453293  28.6060677  31.0790405  67.4490204  29.3452778
  30.2318497  66.3178635  28.8033066   3.0689712  68.0532837  24.3888950
   3.2044384  67.9721375  25.3329811   3.9511197  68.0342331  24.0178394
  80.7036285  52.9199715   7.5948811  79.7991714  52.7130165   7.8301544
  81.0787430  52.0816841   7.3250680  36.6477280  49.6245728  51.6757545
  37.5795593  49.4061432  51.6903763  36.4991798  49.9818344  50.8002357
  43.6501083  29.4100018  86.8158493  42.9236755  29.9118843  86.4461975
  43.5204735  28.5214291  86.4843903  32.8269310  33.4912453   4.1992893
  32.5610085  32.5765686   4.1050348  32.7432671  33.8569603   3.3186729
  61.2439651  23.2874355  83.7956619  61.7880173  24.0219898  84.0796890
  61.3618736  23.2550850  82.8463058  10.5072308  -0.2835699  64.1274414
  11.1468897   0.4274018  64.1672821   9.7887478   0.0089611  64.6881866
   1.8335589  48.4945564  85.5540619   1.2421658  49.2108841  85.7850494
   1.2584091  47.7394066  85.4308243   4.8902898  56.7335320  20.7457256
   5.7292495  57.1388206  20.5263653   4.2481718  57.4336777  20.6286163
  47.5733643  39.6402092  55.0879555  47.9266815  39.1698112  55.8430176
  47.7277718  39.0542221  54.3470039   8.3086910  24.6637669  83.3178787
   8.6440744  24.2355289  82.5302505   9.0749044  24.7584896  83.8837204
  49.2506371  19.1789837  66.7677689  48.8249512  18.3644943  67.0354080
  49.5220528  19.5885410  67.5892487  33.1506653  50.2120285  79.6740341
  32.2947121  49.8855972  79.3965073  33.7602196  49.5102615  79.4455566
  49.1703262  27.5575905   3.9866462  48.4042664  27.2690659   3.4905200
  49.9078522  27.4134865   3.3937545  59.5784798  46.4633064  15.1041670
  59.3258438  46.9565048  15.8846531  59.9412155  47.1218262  14.5117111
  52.3376617  49.6930466  75.7810059  52.6265831  49.0876808  76.4638596
  53.1032410  49.8004684  75.2165756  62.6790619  15.7386408   6.1105194
  62.5908394  14.9818192   5.5311489  62.0165062  16.3560543   5.8005958
  37.2785645   0.4640342  80.2868423  36.7358131   1.2440355  80.1717300
  37.8364220   0.6690205  81.0371780  69.2549820  34.0672150  25.4130611
  69.8559799  34.3200722  26.1138401  68.4165421  33.9307175  25.8542194
  75.1354141  54.9087410  88.5507584  75.6967545  55.6160851  88.8682404
  74.3991776  55.3561363  88.1335907  28.9236031  52.9368973  16.5914555
  29.1132259  53.0636292  17.5210857  29.7843304  52.8607216  16.1796570
  11.2394629  13.4392233   7.5473914  10.4739752  13.5804539   6.9903336
  11.0221310  13.8793087   8.3691721  29.3012161  11.5878592  83.4841614
  28.9714336  10.7689791  83.8541718  28.6915531  12.2554388  83.7986145
  86.1537247  51.9087296   5.1941113  85.4930267  52.4978561   5.5583172
  86.9895477  52.3125114   5.4277449  81.9618225  11.2409887  50.2112846
  82.3695984  12.1061192  50.1725845  81.1595688  11.3311234  49.6969910
  75.4483490   0.3218923  36.5217476  75.0575409   0.7952241  35.7872658
  74.9262238   0.5833617  37.2802010   3.0959482  13.4748602  46.9807091
   3.5190094  13.5373898  46.1243553   2.3017776  14.0022202  46.8945923
  66.9009552  50.3913383  31.5244904  66.9607697  49.9450417  30.6798153
  66.0632629  50.1045151  31.8881378  71.3003616  22.4216900  40.4702759
  71.7815323  23.0343571  39.9140854  70.7867432  22.9804115  41.0535927
  11.5535908  65.9721680  71.7572937  12.0391254  65.8465347  70.9420013
  11.3013544  65.0883026  72.0244827  47.7062035  54.8414574  53.4513321
  46.9981422  55.1691704  54.0058479  48.4489479  55.4119110  53.6491661
  26.1973572  27.2996578   9.9990673  25.8733349  26.6941433  10.6658459
  25.6629543  27.1140022   9.2269421  77.5724945  23.0471344   2.0865679
  76.9503632  22.6607552   1.4702063  77.1047668  23.0615673   2.9215837
  56.2620697  38.1684608  65.1924820  55.3762550  38.4310951  64.9423065
  56.6756897  37.9069633  64.3698196   5.2729821  56.6432762  75.6016235
   4.5898447  56.1323547  75.1674423   5.1403852  57.5372620  75.2862930
  69.7226181  45.9556503  36.1200562  70.4433365  45.3654213  35.9000130
  69.3274460  45.5700378  36.9019623  38.3487015  35.0945015  64.5786514
  38.2240868  34.3441277  65.1597214  39.1979828  34.9389839  64.1654053
  58.9418526  39.7367477  55.7383385  59.3507233  38.9482155  56.0950928
  58.9205933  40.3491592  56.4736862  51.4573441  34.4717751  57.3886070
  50.9175835  34.3147316  56.6138611  52.3575401  34.3856316  57.0748215
  21.5626965  60.4908371  12.9289675  21.9862480  60.8859978  12.1669397
  21.5164204  61.1989861  13.5713196   5.0508590  47.5299110  56.8314247
   4.8234649  48.1964912  56.1832008   5.6333771  47.9798050  57.4433861
  29.2927685   6.3098431  33.5714073  30.2157364   6.0739617  33.4780159
  29.3074207   7.2048273  33.9105568  56.8367805  51.2068558  73.4587479
  56.7672424  51.9284248  74.0838318  57.2433090  51.5981407  72.6855316
  36.3000183  54.1611176  38.5911598  37.0307961  53.7654762  39.0662003
  35.7885132  53.4163284  38.2751160  72.5758057  65.0887299   0.3768793
  71.7116852  65.2992935   0.0230433  73.0175018  65.9348068   0.4496163
   3.1003418   6.1951122  19.2080898   3.9895034   6.1693468  18.8545933
   2.5650775   6.5247579  18.4862461  15.8180189   2.6766334  43.6167831
  16.7149582   2.3424399  43.6099091  15.3376131   2.0852120  43.0374184
  32.0335655  50.8664474  69.0439987  31.9607525  51.3314629  69.8774796
  32.9693069  50.8803139  68.8429413   4.0305085  49.2145615  86.9653320
   3.8262975  50.1496811  86.9741058   3.4043584  48.8384628  86.3466873
  75.1126404   9.9394894  43.4373550  75.5955505   9.5685682  42.6988144
  75.6594162   9.7508593  44.2000389  72.5548477   9.4555912  80.8475571
  71.9084167   8.7497435  80.8589401  72.4478683   9.8645191  79.9887390
   2.7015543  26.6114731  17.5531979   3.3190556  27.1367302  17.0442486
   1.8808876  26.6652546  17.0634575  57.3450737  29.7404461  77.8703156
  57.1413879  30.5254974  77.3619537  56.5199852  29.5113239  78.2980576
  46.7938347  41.2386818  59.0769119  46.9674683  41.9736824  59.6650047
  47.2866669  40.5093842  59.4530487  12.7221642  45.3648911  12.1663084
  12.3079844  45.5070152  11.3151407  13.0251408  46.2327805  12.4331474
  -0.0070104  33.9836578  42.7959900  -0.4674811  34.8211479  42.8490143
   0.8310395  34.1966858  42.3854713  56.7274284   9.5578518  28.9772301
  57.1885262  10.3956337  28.9355202  55.9494019   9.7386732  29.5046864
  66.7008514  34.5377045  13.7104883  66.8232651  35.4687653  13.8958702
  67.5805359  34.2146111  13.5155783  68.3702927  27.0997429  63.5754662
  67.5942841  27.5490303  63.9104042  68.0523224  26.2358646  63.3130951
  24.4168110  58.1123810  28.4300499  24.1728992  57.8642044  29.3217602
  23.8022003  57.6356773  27.8721600  50.3525620   2.9142244  64.6716156
  49.6183281   3.1335702  65.2452164  51.0841408   3.4296315  65.0112839
  59.7526665  46.6737480  62.9405670  59.5940819  46.1165123  63.7025185
  59.2452545  47.4666557  63.1139488  45.1569405  25.2856197  85.1691666
  45.1561699  25.5882759  84.2610703  45.6651344  25.9453640  85.6410828
  49.1727943  70.2580643  37.9740143  49.1489525  70.4052048  38.9195366
  50.0452499  69.9004517  37.8091965  12.9420757  55.8029938  87.6727600
  13.5311413  55.9839745  88.4052048  12.9408131  54.8488350  87.5965347
  22.1237793  64.9798431  88.0431519  22.9734898  65.3708649  88.2464600
  22.1791248  64.7563171  87.1140671  46.0595856  20.3285923  12.9648228
  45.4812584  20.0180473  13.6614790  45.4706268  20.7291832  12.3253813
  77.0699387  39.3755035  38.7624817  77.7323151  39.4778900  39.4458618
  77.2576065  40.0778961  38.1398621  43.3815880  52.8328934  88.7145157
  43.9663200  52.6146088  89.4402390  42.6303558  52.2508125  88.8288193
  19.1534100  67.0358429  69.8745041  19.6354122  66.3367844  69.4326553
  19.1654778  66.7878189  70.7989349  50.6096306  33.7349205  39.2166672
  50.6900826  34.4605103  38.5975685  50.9531174  32.9770927  38.7434349
   6.6471148  52.3263893  41.3488159   6.1161180  52.9222870  40.8204384
   7.0983815  51.7761421  40.7086449  37.5476608  28.7420025   7.1199841
  38.1561470  29.4806843   7.1019068  37.1515541  28.7366047   6.2486048
  22.1648788  60.8430023   3.6336155  21.5254135  61.3671455   4.1158919
  21.7515965  59.9843407   3.5434611  12.9687729  67.5035477  35.8813210
  12.7063904  68.3577042  35.5381088  13.7835751  67.6751328  36.3534317
  30.0981998  39.5950165   6.6591444  30.4439945  38.7145348   6.5128155
  29.4634209  39.7232437   5.9542708  21.4544125  58.8426514  52.7284622
  22.3911247  58.9849434  52.5922546  21.4048138  58.0137901  53.2046585
  14.7794733   8.7300673  11.6875086  14.2394447   9.3638582  12.1596422
  15.5249548   8.5720387  12.2667465  59.3435822  30.3816147   5.3228416
  59.8193970  30.7894821   6.0463591  59.8292389  30.6415863   4.5400343
  21.1699295  41.6629028  13.2827997  21.1203861  41.8387566  14.2224016
  21.7970409  40.9437828  13.2064562  77.1266022  56.8218117  19.3591270
  77.4909286  57.6962662  19.2219067  76.2990875  56.9759178  19.8148708
  57.7687035  46.2531700   7.2171607  57.6526146  46.7137108   8.0482187
  58.6601372  45.9068604   7.2577314   0.7093754  56.6951752  49.7800102
   0.7031490  55.9292488  50.3540726   1.3446070  57.2891006  50.1799622
  45.8106956  23.9053516  18.2528763  45.4169960  24.6113415  18.7655239
  46.2538223  24.3516846  17.5313091  70.5198898  33.3089485  18.2261486
  71.2526398  33.5672340  17.6670456  70.1038437  34.1350365  18.4725628
  28.6025772   3.7964330  43.4931717  28.7536392   4.7022209  43.2230606
  28.8466320   3.7785828  44.4185638  24.3238926  13.6396494   6.2052302
  24.1754246  14.5569859   5.9757037  25.1249084  13.4024544   5.7379584
   4.7997522  62.3085747  25.2440529   4.1342416  62.8785477  25.6293564
   5.1998701  62.8392143  24.5551701  25.9444523  70.0590820  83.3814545
  25.3816414  69.9087524  84.1409760  25.5301037  69.5641708  82.6746216
  69.2640076  31.1148415  19.4237671  69.7618027  31.7597599  18.9212627
  69.0800247  31.5500088  20.2562389   0.8546113  52.7613411  64.5223923
   1.1598330  53.3616562  65.2026062   0.5604888  51.9864464  65.0011978
  14.9356451  70.7881622   5.3944330  14.3819914  70.5402527   6.1348658
  14.3298044  71.1712418   4.7600513  60.6477661  64.6565323  75.0537262
  61.3546982  65.0620499  75.5557480  59.8707542  65.1688385  75.2773895
  17.0036507  23.2845497  62.3586693  17.5795403  24.0491257  62.3564377
  16.6055565  23.2820053  61.4881859  17.2304058  48.8633194  29.3440533
  16.8194923  49.4914017  29.9381027  17.2955780  48.0569878  29.8557320
   1.6940188  56.4179726  62.2695122   1.0200493  57.0415154  61.9989738
   2.5201108  56.8438416  62.0405235   2.8336146   0.5713467  64.4540253
   2.9064112   1.0801272  63.6465111   2.6604004  -0.3226442  64.1590500
  63.7029533   0.1355387  66.1269379  62.9672279  -0.2641584  65.6630630
  63.7000084   1.0484675  65.8392181  60.0400047  24.6021271  24.2707958
  60.8023071  24.0320759  24.1699810  60.3871193  25.3968201  24.6760197
  85.3084412  14.0860243  65.1316986  85.2090683  14.2752399  66.0647278
  86.2519379  14.1323376  64.9770813  30.0352955  40.8891563  27.5966244
  30.3155899  39.9772415  27.6745701  29.1283741  40.8879738  27.9027710
  25.5410881  33.2782555   3.3906412  25.6710358  33.5124245   4.3096137
  24.5935459  33.1763573   3.3011184  80.4822083   3.4687216  63.9214821
  79.6093445   3.0987365  64.0535965  80.7525024   3.7614777  64.7918091
  55.2178688  54.0143776  82.2567291  55.9893074  54.3657417  81.8121490
  55.3156586  54.2975006  83.1658554  33.2683678  10.2018328   1.1223252
  33.1448746   9.6221619   1.8739654  33.8934517  10.8595114   1.4272184
  73.9781723  34.8087845  69.2260666  74.6402435  34.5540733  69.8687286
  73.5742416  35.5935440  69.5964966  11.4222698  13.3401871  59.6420097
  10.7416668  12.7528524  59.3133011  11.0620403  13.6924763  60.4558640
  51.2680397  49.2144508  32.2169762  51.3453331  49.7044106  33.0356293
  51.2270737  49.8877411  31.5378342  77.5157166  16.9510384   0.8188968
  78.2745895  17.5113220   0.6563627  77.8904419  16.1124325   1.0882447
  28.5290947  65.5014267  14.3288813  28.4773312  66.4133759  14.6150608
  29.1379585  65.0917358  14.9434319  23.3962212  60.4840126  84.6535263
  22.9073486  60.2013359  85.4263992  24.3126373  60.4639702  84.9292374
  16.1460552  43.1752777  23.6315403  16.7018032  43.7761040  23.1351738
  15.3017073  43.2028961  23.1814899  77.4000168  58.7974434   8.1592617
  77.5120544  58.0549583   8.7528925  76.5390244  58.6603813   7.7641201
  34.7345123  17.0013123   9.6493864  34.4940376  16.0789089   9.7364264
  35.4009171  17.0112934   8.9623356  32.0456161  71.0161591  46.4179878
  31.4197960  71.6501541  46.0677986  32.8693428  71.5001450  46.4768181
  35.3768425  62.3507042  24.8675156  35.9029427  62.6271553  25.6178646
  35.9211311  62.5518417  24.1062508  25.4986286  10.3275146   9.3449106
  24.6155205   9.9903116   9.4953890  25.5592785  11.0995989   9.9074402
  72.1360016  30.7376671  45.4987640  71.5150681  30.5068951  46.1897163
  71.6101456  30.7516747  44.6990700  42.4099960  10.5661888  51.7057610
  42.2142868  11.4996548  51.6246986  43.0738831  10.4016247  51.0361328
  61.1544228  70.8253555  64.0933228  60.3686180  71.3653183  64.0085754
  60.8249207  69.9275513  64.1334763  30.8315487  70.4656067  17.5049572
  31.2301331  71.1927490  17.0268040  31.3505669  69.7012634  17.2547092
  38.9086304  70.8949585  11.2237883  39.4581566  71.5805511  10.8440409
  38.6872749  70.3285446  10.4845905  72.2438354  54.2166634   8.7614021
  72.0715485  53.4839249   8.1700964  73.0235825  53.9522591   9.2495785
  56.4006348  64.4049072  11.0192633  55.5470161  64.1717529  10.6542921
  56.3469925  64.1449890  11.9389343  33.7804565  48.6735268  32.9470253
  33.1088371  48.2086067  33.4460297  33.8654785  48.1729202  32.1356087
  50.3989601  67.2099457  88.1666565  50.1395454  66.3293457  87.8955917
  50.0463982  67.7835770  87.4863052  41.1182747  14.8012152  79.5791931
  41.2589493  15.5474539  80.1619186  41.3143311  15.1393452  78.7054291
  12.9174023   6.2631788  19.7808304  12.7393494   6.6383653  20.6432476
  12.1265898   5.7680178  19.5671406  40.1231308  55.2984009  83.7192764
  40.4029655  54.4376488  83.4077759  40.1984558  55.2444611  84.6719818
  66.2872391  12.5227995  28.6140289  66.7323074  13.3302469  28.8712769
  65.7629013  12.2843237  29.3785076  11.9371748  52.2541847  35.2130623
  11.2378759  52.7627487  34.8024826  11.4797287  51.5798302  35.7152748
  37.1267433  26.8999672   3.3299015  36.6540108  27.6622219   3.6641526
  37.8756981  27.2689590   2.8617730  78.7613983  44.6354713  61.7834549
  78.3457870  43.8345947  61.4639359  79.3509293  44.3391342  62.4769058
  37.0518150  50.1690559   3.7664447  36.7901955  51.0086327   4.1444592
  36.2335014  49.7798653   3.4580154  83.0982666  66.0462112  71.4012222
  82.6321259  65.5939331  72.1043549  83.9283981  66.3122406  71.7966156
  13.3628292  52.2251358  69.8686600  12.8047256  52.2533455  70.6458054
  14.1040392  52.7906914  70.0854263  72.4483795  31.6518879  81.7799606
  72.9026184  32.4161949  81.4253616  71.7162552  32.0174332  82.2765503
  19.9405289  23.1782074  31.5532475  20.1531620  22.8008957  30.6996346
  20.2632942  24.0780277  31.5044880  32.6221046  36.9993019  71.2302856
  32.1749001  37.7901306  71.5316696  32.0875511  36.2794304  71.5653534
  11.4069853  42.4755554  56.7390747  11.5649748  42.8597755  55.8767242
  10.4929962  42.6853905  56.9309731  22.6097546  25.1500931  73.8181610
  23.1416645  24.3615990  73.7105560  21.7144909  24.8242760  73.9107742
  37.1089592  34.8178177  27.2683773  37.1138916  35.1698761  28.1584682
  36.3401375  35.2140694  26.8583393  76.9018478  13.5290289  58.5328712
  77.3626785  12.9836702  59.1704025  76.3321762  12.9194984  58.0636444
  86.3380661   9.4148550  51.3839569  87.0821152   8.8354549  51.2198830
  86.7342834  10.2404270  51.6626587   2.2022297  66.1211243  19.9026489
   1.3907434  65.6996002  20.1855583   2.6700377  65.4400787  19.4193745
  58.8217010  22.5847855  75.0968933  58.2361069  23.2720699  74.7791672
  59.1239357  22.1421127  74.3038406  47.6578369  56.4022369  88.4774780
  48.2820930  56.6167297  87.7842789  46.8030624  56.6202393  88.1058960
  73.6155396  40.7665253  37.6456528  73.2661972  40.3824234  36.8414993
  74.2880859  41.3783417  37.3463440  21.0402412  71.0957870  75.1619186
  21.1680374  70.4457550  74.4710159  21.1512260  70.6048965  75.9761276
  32.9054413  54.8456268   3.7285028  33.0481987  53.9075546   3.6025021
  33.7346039  55.2504158   3.4738076  52.5975418  32.6635208  84.8370819
  53.5542107  32.6499405  84.8658524  52.3518677  33.4065285  85.3882751
  65.1259460  17.0827255   6.3632197  64.1893845  17.0101910   6.1793170
  65.4789963  17.5708675   5.6193728  50.7176666  20.7405586  38.3350220
  50.4853783  19.9555702  38.8310699  50.9507446  20.4143791  37.4658203
  47.7069931  61.3521194  53.8139877  46.8124428  61.6580086  53.9637871
  47.6023331  60.4650230  53.4699860  14.1109295   1.0141103  42.3507118
  13.1914978   0.9768239  42.6143150  14.2144270   0.2852800  41.7388878
  74.6087036  53.2051201   9.8018856  75.5658798  53.2086143   9.8087549
  74.3741226  52.3061447   9.5715714  51.4771652  10.0262270  50.3614311
  50.9792976  10.8058481  50.1153603  52.3894882  10.3158503  50.3648453
  14.3796988   8.5947294  32.8876495  14.3297338   9.0920334  33.7039986
  13.4706526   8.3722906  32.6866798  53.8385658  52.3662987  79.0102005
  54.7081680  51.9701614  78.9544983  53.9534531  53.1149406  79.5954971
  28.6545887  46.8489914  13.6086311  28.3947887  47.7444534  13.8251600
  28.8332977  46.8721352  12.6685457  37.6855164   0.7329529  18.4215984
  38.1866608   0.0456694  17.9825916  37.3475380   1.2752949  17.7089481
  63.5098915  22.9825268   0.0551152  63.4599571  23.3442554   0.9399263
  63.1728058  23.6793861  -0.5079051  13.5707998  70.7807541  63.3204536
  13.7383347  71.5662842  63.8411293  12.8996601  70.3066330  63.8113861
  19.9771309   4.6383276  66.9188538  20.6535282   5.2708111  67.1611023
  20.0653782   4.5447679  65.9703369   3.2994101  29.2776546  80.3810120
   4.0064631  29.3718700  79.7427063   2.7938364  30.0863495  80.2995224
  86.6273422   0.7936524  40.8337250  87.3742752   1.3395510  41.0793304
  86.1441422   0.6674405  41.6503143  19.5064297  57.0088654   7.5743566
  18.7132874  57.4136467   7.2232037  19.2753887  56.0867119   7.6860876
   8.6257076  38.4354858  42.8597946   8.6279392  38.0680733  43.7436676
   9.1735506  39.2177582  42.9242096  54.6110420  66.3970413  52.5114403
  55.1899452  65.6745758  52.2682228  55.0333138  66.7967606  53.2717972
  40.0606117  43.8059578  67.5375824  39.8191032  44.0719414  66.6503601
  39.7015228  44.4925766  68.0995789  40.5808449   5.5921903  84.4482346
  41.0123863   6.4465327  84.4582901  39.6984673   5.7656851  84.7761688
  76.8991699  54.9882622   4.1210327  75.9878082  54.6995163   4.1687722
  76.8661957  55.8035812   3.6206300  31.3770409   2.9674771  39.9720993
  31.1004448   2.3497720  40.6489792  31.3180256   3.8254931  40.3922882
  10.2756729  12.7348909  84.8426437  10.6464205  11.8530207  84.8755646
  10.8735075  13.2251282  84.2782898  10.5983620  70.0181656   7.1916561
  10.6326332  70.8030090   6.6447821   9.7205000  69.6645355   7.0483508
  84.0848465   5.5008073  19.6815281  84.3014297   4.7339845  20.2119083
  83.1605911   5.6669660  19.8669338  24.1405697  61.6730499  24.4727726
  24.9002209  61.4948463  25.0272141  23.3910255  61.3844986  24.9934978
  73.7534409  70.5535889  16.2384243  73.5436096  69.6197968  16.2228069
  73.0275421  70.9542236  16.7167511  26.8372993  61.7442665  55.9222984
  26.3515587  62.2135315  56.6005898  27.7482548  61.7763290  56.2144737
  45.2255325  31.7160130  14.9309721  45.4822235  30.7956295  14.8740797
  45.3241577  32.0477753  14.0385389   0.4405047  65.2450943  65.6252518
   0.6219671  64.3554611  65.9283066   1.1566491  65.7704468  65.9821396
  51.3570099  61.1959953  82.2383957  52.1846886  60.8585739  81.8958588
  51.0551071  60.5195122  82.8445816   8.5997276  45.9618454  69.3359299
   8.5716486  46.1799049  70.2675400   9.0780258  45.1335754  69.2981262
   1.4645799  41.8048515  33.3929024   1.5039136  41.2688332  32.6008339
   1.2797277  42.6886253  33.0750885  22.2758179  32.2756805   8.5044842
  21.9949150  31.3638248   8.5809240  22.7375946  32.4535370   9.3238506
  31.0943050  38.6095581  73.9107208  31.5353470  38.8739624  74.7180710
  31.3871021  39.2459297  73.2583923  59.7690468  42.9119263  58.3037148
  59.1060181  43.5984764  58.3763008  59.2669449  42.1055794  58.1856689
  75.4791870  46.5012817  67.5731812  75.4747238  46.4711037  66.6164703
  74.5912399  46.2475281  67.8249588  64.4057465  16.1012344  26.2198105
  63.9053497  16.9069061  26.3491421  65.3025131  16.3983860  26.0657330
  42.3181305  38.2761650  82.9285812  42.1085968  38.7579422  83.7287216
  41.5264168  38.3426056  82.3947220  35.7796555  44.3743935   8.4684887
  35.9734497  43.4873581   8.1654205  36.6243248  44.8242416   8.4484291
  28.4826012  37.3780975  73.6925812  29.3682804  37.7324715  73.7714691
  28.4570465  36.9896889  72.8181000  69.7111130  43.7331848  39.4277954
  70.3727188  43.0418663  39.4035187  69.1257935  43.5302734  38.6981010
   0.3400980  11.2751904  67.4314194   0.7778581  12.0951891  67.6598892
   0.7631329  10.9960089  66.6194229  12.9699068  63.0267410  38.5731812
  13.6564550  63.6848946  38.4649162  13.3886671  62.2013893  38.3289146
  20.6081085  43.8750916   9.8745222  20.9322205  43.0461464   9.5223389
  19.6962337  43.9174652   9.5865679  60.5070915  57.3054581  71.9805908
  59.7327766  57.5245094  72.4989395  61.1888695  57.8915596  72.3090668
  28.3304462   3.2408504  15.4975138  29.1259556   3.2506981  16.0297756
  27.6161766   3.2784379  16.1336250  11.3113346  56.0997200  40.1137543
  10.9419899  56.0141907  39.2348366  11.0446215  55.2985954  40.5646400
  41.3985023  27.6026955  85.2694321  41.1635742  26.6943302  85.4589386
  41.7441292  27.5795345  84.3771133  87.1256409  58.4770660  71.6074371
  86.6561432  57.8061256  71.1118164  86.7603989  58.4220352  72.4905014
  41.4344482  44.3101692  75.8864670  40.7425423  44.3162918  76.5478745
  40.9835777  44.5109291  75.0663147  83.3926315  10.6739235  43.1971474
  83.2425156   9.7524395  43.4082451  82.9795914  11.1543732  43.9146385
  80.6401749  44.9286270  21.2441750  80.6577988  44.7319450  22.1807842
  80.3066177  45.8244133  21.1937847  54.0218086  67.7568054  74.0180435
  54.5048790  67.9344254  73.2109985  53.2673874  67.2392273  73.7366409
   1.5415390  52.5221519  78.3930664   0.7043158  52.1141014  78.1722031
   1.6721083  52.3152122  79.3184662  55.1184845  33.3643417  40.0641785
  54.9466553  33.7954330  39.2270012  56.0587196  33.4775734  40.2033539
   9.3537846  38.7681923  55.6404419  10.1036558  39.3546448  55.5404434
   9.5721321  38.0065041  55.1034241  33.8868217  39.7662354  83.5678787
  33.9728050  38.8964806  83.9582214  33.5251999  39.6031189  82.6967621
  35.9247246  54.7716751  64.8486099  36.4828835  53.9952240  64.8911896
  35.9810257  55.1554070  65.7237167  13.8042841  44.1648216  30.2603321
  13.6977692  44.9423256  30.8083935  14.7091560  44.2114792  29.9516869
  11.0241108  69.2001266   9.7067671  10.4887333  69.8440704  10.1703892
  11.0376062  69.5078354   8.8004732  66.7468643  15.2327881  42.2441521
  66.0226746  15.5641241  42.7751923  66.7241898  15.7654381  41.4491653
  12.4324856   1.9748847   2.3898809  13.0464697   1.9807808   1.6555640
  11.5679989   1.9607865   1.9791551  23.0417233  55.0440254  85.2753296
  23.0428677  54.0906372  85.3606491  23.9534626  55.2690048  85.0899887
   2.0082755  27.0545692  46.4252853   2.2380924  27.3383598  45.5404816
   2.1367779  27.8329105  46.9674149  63.0617256  53.1051140  30.7635517
  62.1493454  53.3942223  30.7781277  63.0113335  52.1505623  30.8137856
  76.5827255  34.6435699  65.6682205  76.5738525  35.5663071  65.4138412
  75.6953888  34.4737778  65.9845123  19.4598274  56.9844284  88.2097549
  20.3147449  56.6152344  87.9882965  19.5779972  57.3542137  89.0847015
  55.7232094  12.2263556  76.3401718  56.3383942  11.9623747  77.0243454
  56.1420135  12.9763603  75.9178848  52.8529778   7.9391413  84.1088638
  53.3726578   7.6703010  83.3513031  53.5006294   8.2084875  84.7601929
  36.7872162  13.5526857  22.0004730  37.1781616  12.6984577  21.8169250
  37.4533539  14.0170269  22.5073071  79.2863388   2.0984969  56.5059814
  80.1466446   2.3202252  56.1497002  78.7320709   1.9765453  55.7351761
  34.0860863  60.7829704  81.4030762  33.1510849  60.9618721  81.3030701
  34.4008598  60.6470146  80.5093918  82.0587921  64.5857010  67.9902267
  81.1130676  64.7212524  68.0490265  82.1785507  64.0781631  67.1875458
  44.6312561  43.3029633  73.6430969  43.8509064  43.2674026  73.0898972
  45.1925201  43.9552307  73.2238617   0.1001103  26.5620575  71.9689255
   0.3077846  26.5407982  71.0347672  -0.1986044  25.6747475  72.1681290
  66.6745987  64.9415588  56.1701012  66.3989868  65.8043213  55.8604164
  65.8821335  64.4065628  56.1252480  27.4988060   9.0792494   8.0114594
  26.7810097   9.4388704   8.5326824  27.1933556   8.2104750   7.7503777
  54.8134766  31.7161255  68.6372299  54.3265419  32.4546089  68.2714920
  55.1523476  32.0420494  69.4710007  24.4920998   4.4910622  20.4155102
  25.3730202   4.2762203  20.1088257  23.9843655   3.6940913  20.2629471
  11.7030449  46.3374367   9.7923727  12.1380873  46.2186470   8.9480629
  10.8375759  45.9463577   9.6729870  44.3986397   7.0920296  84.1624680
  44.7861061   6.5353713  84.8379211  43.4896736   7.2072954  84.4394684
  48.4222984  68.0960159  21.8505402  48.4343948  67.3237534  21.2851181
  48.7807922  68.7970352  21.3062191  22.6512661  30.2911625   2.0590591
  22.7274799  29.4568996   2.5221217  22.1737709  30.0774212   1.2574707
  81.2494278  58.6192436  84.9091187  81.3231125  58.1321144  85.7297974
  80.7942352  59.4262047  85.1496277  85.9068680  20.2347870  60.8409767
  85.2444534  20.7057495  60.3353691  86.0580673  20.7854080  61.6092110
  32.2062531  58.0972061   0.2882140  33.1126480  58.3688698   0.4327312
  32.0510597  57.4205284   0.9471935  54.0722313  33.5030937   8.6694593
  53.8068504  32.6065254   8.8743162  55.0193520  33.5100784   8.8078394
  76.2695236  44.2498169  73.3117523  76.3335114  43.3024826  73.1905365
  77.0182724  44.6038094  72.8318634  17.7343349  58.9578743  66.6559830
  17.2792397  59.5121384  66.0220184  18.0397911  58.2091713  66.1437607
   8.1004076  23.0474644  24.2270679   7.8829112  22.7473488  23.3445377
   7.7351103  22.3773403  24.8047543  84.0144577  67.2542038  75.0386810
  83.6464767  68.0738983  75.3687057  84.2987366  67.4606171  74.1482849
  55.5694122   9.3767843  16.6522141  55.1653023   9.8492804  17.3800011
  55.1646881   8.5096693  16.6754265  34.6207924  52.4153061  29.6835270
  33.8865662  52.2373505  29.0957584  34.2689552  52.2600899  30.5600834
  51.3855019  23.1648655  49.5529518  52.2945709  23.0358868  49.8234863
  51.4393234  23.7697258  48.8130341  43.2555771  12.5757160   4.2793574
  43.7667961  11.9022179   4.7280059  43.8728676  12.9773617   3.6679118
  83.9427109  37.2581673  59.9316673  83.0407944  37.3610687  60.2352905
  83.9735870  37.7398262  59.1050606  63.6064796  66.7360840  78.9521942
  63.5736961  66.3165436  78.0924606  63.1947937  66.1049957  79.5425186
  14.6233625  59.1797066  26.7077923  15.4391022  58.7279968  26.9240303
  14.8984022  59.9354553  26.1887245  37.0771332  30.4167061  75.1996307
  37.4326172  30.2319298  74.3303070  37.8480873  30.5673447  75.7465897
  82.6812057  24.3118496   3.2437937  82.2041092  23.6685295   2.7196271
  83.0606842  23.8030281   3.9602613  28.0916729  23.1723347  84.1558685
  28.6409302  22.4673100  83.8131027  27.3158455  23.1656494  83.5952606
  37.4234543  16.6849632   3.7678111  37.5992126  16.5669193   4.7013025
  37.5140076  15.8083057   3.3943088  10.0437231  31.3077888  28.1631451
  10.5020714  32.1477966  28.1862946  10.5436363  30.7792282  27.5410995
  77.6611328  57.3391113  37.1354256  76.7301407  57.4617195  36.9498253
  78.0820465  57.3645668  36.2761116  57.6048737  28.3328724  82.0472565
  57.7450638  28.5435352  82.9703979  58.4237556  27.9233856  81.7679977
  31.7389488   1.6016791  11.4301958  31.4851170   2.3222404  10.8534870
  32.0921211   0.9357488  10.8402472  75.2424698   9.5455742  26.5109634
  75.1921844  10.4947882  26.3982887  74.4013901   9.3056583  26.8998909
  38.6060753   0.2215430  36.6661720  37.6565132   0.1050541  36.6977654
  38.7304764   1.1704360  36.6472511  54.1727982  58.7083359  87.2391510
  54.3362808  57.9568481  87.8090363  53.8669777  59.3956871  87.8309708
   9.1972628  69.2198181  19.6714821   9.3885632  70.1559601  19.6142426
  10.0550919  68.7971115  19.6304836  60.7790298  26.2452698  41.6321144
  60.5272369  27.0440388  42.0955811  61.7266693  26.1864929  41.7535896
  63.2954559  52.7702484  65.0252686  62.8712883  52.8800278  65.8763046
  62.6763229  53.1452141  64.3989258  26.5924225  30.4208374  85.9705811
  27.3146935  29.8047733  85.8480225  25.8054352  29.8770084  85.9369431
   1.0461127  70.9948807  43.6079407   0.4979198  71.3881302  44.2869682
   1.4420940  71.7410965  43.1578369  10.0545597  53.3476334  71.1472168
  10.3787842  53.6859779  71.9818573   9.7969952  52.4457359  71.3381958
   8.2116919  30.2143879  15.9819765   7.3032737  30.2829266  15.6881895
   8.6054621  31.0527134  15.7403412  84.4031601  22.0928612  41.7194405
  85.1636963  22.3714027  42.2295799  83.9183197  21.5147839  42.3084946
  32.5241737  30.7150135  29.4125252  32.0689087  30.9443092  30.2227020
  32.0066986  31.1287384  28.7216682  80.4917145  23.9844780  24.0798321
  80.2525482  24.1576748  24.9903431  80.5542450  23.0308495  24.0258598
  15.5509958   6.0242233  14.4107828  14.8461285   6.2971158  14.9980860
  15.7518835   6.8069940  13.8978052  33.1373444  60.4712181  51.1620750
  32.6150551  61.1023140  50.6669350  33.2153473  59.7155800  50.5797043
  48.2748947  15.7390680  70.1498489  48.7329636  16.5256004  70.4461060
  47.3566666  16.0035172  70.0936584  10.5369339  11.1279373  12.8587618
  10.7692127  11.3906898  13.7494020  11.2080946  11.5303974  12.3075800
  84.1435471   6.7145209  74.7251663  84.6345825   7.4985533  74.4793854
  83.5168533   7.0201850  75.3809509  67.8877182   7.6455364   7.2936258
  67.3849030   6.9201412   6.9232030  68.6847000   7.6793175   6.7645626
  35.1110535  62.1399193  42.9995461  35.8349037  61.5841866  42.7106972
  35.3700066  63.0243111  42.7406540  31.8781586  42.5058022  66.7577133
  31.5370464  43.0081482  67.4976578  31.1007099  42.2601280  66.2562637
  13.3272619  42.3482971   6.3027401  13.9759560  42.3180428   5.5995245
  12.7976561  41.5614090   6.1740704  85.7406921  46.2792511  81.8572617
  85.5020676  47.1691246  82.1169052  84.9029922  45.8313217  81.7395706
  22.0573254  65.6626129  75.1442947  21.5807705  65.7226105  75.9722595
  21.4890709  65.1402817  74.5781784  18.1144218  16.5758686  28.1159573
  18.4317188  16.5991955  29.0187359  17.1934261  16.3264885  28.1921501
  80.4347305  23.3387375  45.2287636  81.2050400  23.7845745  45.5810204
  79.7755051  24.0279427  45.1472092  42.5989227   2.7887681  35.6716614
  41.8888931   2.2853177  35.2733841  43.2529984   2.8707418  34.9776154
  82.5694656  68.9802780  35.0203514  82.3549728  69.5243530  34.2625885
  81.8568115  69.1397858  35.6391487  48.2591553  41.9599609  37.6674652
  47.5822105  42.6303444  37.7600212  48.1023254  41.5788956  36.8035049
  42.8336525   5.2911258   6.1992955  42.7263947   4.3833280   6.4832516
  42.0553169   5.4706511   5.6718521  39.7007637  34.4179535  29.1299267
  40.1484261  35.2010193  28.8095627  38.8930016  34.7479515  29.5234413
  10.1467829  68.3687820  27.0229759  10.7788792  67.6682587  26.8618774
  10.6818619  69.1564484  27.1204433  16.2720623  13.6867418  11.5219240
  16.4708996  14.5017376  11.9828758  16.8708076  13.0441408  11.9024477
  50.9481430  13.0415583  16.7116718  51.5857811  12.8196402  16.0331440
  50.9278450  12.2729750  17.2818470  62.0573769  45.3434982  71.5050278
  62.4014969  44.4915085  71.2368317  62.1216850  45.3379402  72.4600449
  82.7211227  27.8127899  13.4409790  83.1024170  28.5720043  13.0000305
  83.4747314  27.2811089  13.6971350  55.7726326  56.1290741  21.0148525
  54.9191666  56.4780045  21.2719040  56.0927544  56.7423706  20.3533249
  55.4391060  48.3589859  63.0964775  54.9225998  47.6001358  63.3677750
  55.2827034  49.0115814  63.7790375  20.8492641  42.5865326  18.4060135
  21.6490402  42.6012001  18.9317265  20.4257679  43.4248276  18.5908031
  17.5890179  31.9549541  89.1766586  17.5108891  31.3391304  88.4480362
  18.4195518  32.4049568  89.0219193  24.2394314  14.6085062  72.9609070
  24.1605988  13.9842892  72.2395401  24.0803490  14.0868263  73.7475281
  11.2507439  58.4211769  15.7506256  10.9215698  58.2693405  14.8647232
  11.5636158  59.3257141  15.7381277   6.3367920  54.4371338  67.4496841
   7.0833521  55.0315971  67.3755722   6.3017697  54.2113380  68.3792114
  52.8879013  43.7913246  78.0029297  51.9737167  43.9235573  77.7518997
  52.8513756  43.1469116  78.7097778  85.8729706  68.0998001  47.9609070
  85.8525772  67.8481522  47.0376053  85.9797287  69.0509338  47.9476204
  13.6051197  45.8279343  22.6215229  13.0102215  45.8808022  23.3695431
  13.0686541  46.0815735  21.8704567  24.9160347  10.6993418  33.6318436
  24.0095387  10.8595915  33.8941727  25.0697308   9.7802076  33.8504829
  61.2770653  55.7167091  54.3474503  61.7593536  56.5224571  54.1619720
  61.1827583  55.2923203  53.4946709  50.3490982  60.9625626  44.2208366
  50.2205353  60.0149689  44.1787415  50.7560234  61.1113777  45.0743561
  63.1113396  46.0329514  87.3146439  62.3664131  46.2333488  87.8813553
  62.8756332  45.2069016  86.8923721  82.1367874  59.0590324  80.8056870
  82.8859863  58.6000023  81.1854553  81.9911194  58.6251831  79.9649811
  57.2418251  66.7278061  12.4134874  57.6172829  67.4130478  11.8605785
  56.9492798  66.0563049  11.7972603  39.6056862  47.8917503  50.7335434
  39.4087105  47.7364349  51.6572914  40.3033142  48.5470543  50.7442970
  30.1434841  60.9639702   7.0574298  30.5321789  60.1763000   6.6770043
  29.2117043  60.7584763   7.1335139  23.5625553  14.4897041  80.3029480
  23.4242439  14.1694155  81.1943054  22.6808033  14.6482658  79.9658966
  34.7074509  50.0955887  65.2910690  34.3609009  49.2376900  65.0458374
  35.6281090  49.9323540  65.4959564  24.0155830   7.3559008  12.9083519
  23.9793167   6.4021015  12.8363485  23.1263905   7.6454921  12.7041302
  73.4026184  29.6257458  42.0800400  73.2384720  30.5683270  42.0512390
  73.1545639  29.3127422  41.2101364   3.7963173  24.4578323  72.5204315
   3.4204710  23.6545849  72.8806610   4.7422209  24.3394470  72.6069336
  55.6590462  55.0429459  84.5962982  55.0614128  55.7328148  84.3079529
  56.0082626  55.3611145  85.4287949  80.5734863   1.9973065  51.3984032
  80.8084641   1.2255813  51.9136276  80.1661758   2.5912945  52.0288887
  84.1194534  43.0246239  45.5746346  83.2641449  42.6668510  45.8127098
  83.9312592  43.9120026  45.2690735  45.5372658  17.1045265  65.7711792
  44.8849106  17.0252724  65.0752106  45.9505310  17.9539490  65.6165009
  71.6015854  68.0466843   9.5521049  71.3195801  67.1622238   9.7854156
  71.6466064  68.5118942  10.3874416  25.3788567  52.6104736  39.7273178
  24.4448071  52.4436951  39.8536720  25.4236050  53.1229095  38.9200745
  63.3999634  62.2895584  13.6372223  62.7429733  62.9756851  13.5196342
  63.6453896  62.0378456  12.7469196  29.9841976  53.7056656  -0.3113819
  30.9030457  53.5723076  -0.0786519  29.5091896  53.5874863   0.5111958
  33.6049042  38.5223846  86.4670944  32.7186241  38.8817444  86.5070724
  34.1692848  39.2460861  86.7390594  36.2156715  40.4312820  84.9195557
  35.4911270  40.0561905  84.4189758  35.8887672  40.4747314  85.8181534
  32.2408562   3.0430350  44.6584511  32.1813126   3.9950910  44.7376709
  32.6473694   2.7595150  45.4773521   5.7451091  50.2599487  38.5447426
   5.3058257  49.4095840  38.5326996   6.2448435  50.2598381  39.3611336
  73.8077393  11.7037888  18.3519115  72.8587418  11.6838598  18.2284260
  73.9241104  11.8705111  19.2872677  26.3848362   5.9321995  45.2982216
  27.0441799   6.4985828  45.6991043  26.2745991   6.2816486  44.4139328
  61.6334152  18.9953957  42.5179176  62.4167328  19.0442753  41.9699631
  61.3272896  19.9002380  42.5794067   1.9486997  41.1440430  24.1709976
   1.2272238  41.1424828  23.5419502   1.5201889  41.1464806  25.0269222
  10.1206245  49.4136238  79.5606689   9.4256248  50.0714073  79.5377121
   9.7092495  48.6441765  79.9543076  44.9558487   9.8992195  76.0483398
  44.0607834  10.0677099  76.3427811  45.0290527   8.9448748  76.0383453
  82.5141144  24.2546482  46.8474236  82.9462967  25.1078224  46.8081055
  83.0531616  23.6874695  46.2960892  13.9397755  12.0208006  13.5803165
  13.9580841  11.1333466  13.9385376  14.8246660  12.1614523  13.2435417
  18.0713596  30.9255943  15.2947397  17.3652649  31.4492283  15.6735144
  17.9271011  30.0441875  15.6390400  71.1269379  33.8419304  60.0205688
  71.8324585  33.3952637  59.5526428  70.8506470  33.2167702  60.6906967
  59.8237343  60.7353973  77.7280579  60.1663589  61.0111809  76.8778915
  59.7621231  61.5447273  78.2354279  44.9524612   6.6097732   5.2078319
  44.1668396   6.2453442   5.6155343  44.6346436   7.3570004   4.7010040
  61.0694504  37.8188286  69.6086731  61.9779091  37.7365417  69.3185654
  61.1233215  37.8307076  70.5642776  54.9111786  41.6580315  69.3359909
  53.9874306  41.4120979  69.3853760  55.2898064  41.0421104  68.7086792
  50.6542702  18.5595493  73.8752136  51.4894829  18.3030663  74.2661896
  50.4071121  17.8141918  73.3278656  44.6309586  47.2381744  53.2365494
  45.0301208  47.7243614  53.9580231  44.0111809  46.6451454  53.6613159
  74.9831772  41.3079796  56.6022377  75.0785599  41.8595314  57.3787231
  75.7551804  41.5054359  56.0718994  -0.1381269  10.6908102  83.2093582
   0.5083678  11.0473003  83.8186111   0.2655141  10.7894249  82.3470459
  35.2011261  70.4186707  52.9073601  34.6366959  70.0883484  53.6063156
  34.5953674  70.6813889  52.2143478  82.4670715  13.3929768   1.3975546
  83.0876465  13.4819956   2.1208739  82.3347626  14.2876358   1.0840074
  14.0164261   4.8913965  23.0680695  13.3347454   4.9073505  22.3962879
  13.6582546   4.3348298  23.7595730  18.4721260  37.4416237   8.2655411
  18.9876823  36.6396561   8.3508720  18.2917652  37.7074890   9.1672153
  58.6120644  10.0461779  80.9937973  58.0254364   9.6009598  80.3823395
  58.0502510  10.2919559  81.7287750  64.8157043  71.3257523   6.2128768
  64.4783859  70.8584442   5.4486337  65.7184906  71.5437012   5.9811268
  46.3326530  48.5193405  28.2626839  45.8891792  48.2066002  27.4741707
  47.2293663  48.1954689  28.1775589  45.1798172  39.1946373  16.6260662
  45.5092239  38.8197975  15.8092308  44.8895531  38.4387398  17.1365547
  44.5581741  37.8118019  67.8050308  43.9040947  37.9345016  67.1170197
  44.5961914  38.6569405  68.2528305  44.0055733  66.7392883   4.8646784
  43.3900566  66.0692291   4.5673704  44.7484398  66.2451782   5.2114406
  23.9789696   2.1620440  39.6371956  23.1855583   2.0765288  39.1085930
  23.9457073   3.0566163  39.9761124  32.4120369  66.0073090  68.0645447
  31.7917786  65.8877563  68.7837219  33.1846962  65.5081024  68.3291550
  75.6210709  32.9401474  57.7829018  75.7224884  33.4190445  56.9603424
  76.3346939  33.2591782  58.3353462  58.2271042  42.1696510  19.8316212
  58.2182617  41.6295509  20.6218414  57.4346161  41.9153557  19.3588276
  86.8312531  30.9304161  89.3211670  86.2168655  30.7320309  88.6144791
  86.4793167  31.7213879  89.7294998   0.7454252  64.0959244  35.8251648
   0.2353019  63.4582214  35.3258247   0.1398548  64.8217010  35.9760628
   4.0656447   3.2230074  40.5819359   4.4341588   4.0242076  40.9541016
   4.8130207   2.6303635  40.5017242  12.4647560  51.3280487  81.5146255
  12.6460705  52.2426414  81.2981262  13.2702618  50.8637886  81.2869110
   5.4199080   6.9768500  17.8239937   5.5419974   6.7564020  16.9005604
   6.0960546   6.4766994  18.2810574   3.5380204  12.7409945  20.1560421
   2.9286394  13.4705381  20.2685280   3.1898031  12.2507038  19.4113331
  43.8623314  40.6766510  80.9413910  43.7641182  40.5803032  81.8886490
  42.9885368  40.9169426  80.6332092   2.1112189  57.0384102  33.2791634
   2.1386371  57.0423164  32.3223648   1.6666710  56.2207069  33.5027008
  67.7721558  38.8092728  77.3845978  67.7171936  39.5322495  78.0095062
  68.3052826  38.1494293  77.8280106  22.9685307   9.2501287  43.5147858
  22.2503796   9.8819914  43.5500069  23.7554932   9.7732191  43.6674232
  40.4375648  45.0497627  58.8607178  40.8655357  44.4494705  58.2502098
  41.0743904  45.1691208  59.5653000  46.1521835  53.2083473  65.6467972
  46.5392456  52.8262100  64.8591537  46.9013176  53.4158478  66.2053375
  37.5485878   2.2497625  86.3120422  36.8188477   2.3999398  85.7110748
  37.2387581   1.5583198  86.8969650  51.1609650  14.9214420  41.0626907
  50.5216751  14.2706385  41.3525124  50.7074776  15.7595215  41.1532822
  44.8097420  64.0674057  38.8117523  45.4273720  64.7861404  38.9465790
  45.3290825  63.3805656  38.3936920  17.7318077  50.9689484  65.4566727
  17.0668621  50.9141464  66.1430206  17.2856445  50.6652374  64.6661453
   3.9686236  52.1603127  33.1030655   3.0183184  52.0464134  33.0896721
   4.0992670  53.0989685  32.9685783  18.6492233   2.4513235  53.5911140
  18.3465767   2.3269391  52.6915779  18.0990658   3.1557453  53.9336739
  63.7872849   0.7211958  69.0363922  62.8869591   0.6402205  69.3511734
  63.7052650   1.1468135  68.1829605  60.8807831  57.9779167  20.9530296
  60.5153275  58.5708084  21.6096554  61.5755844  57.5083694  21.4145565
   7.4555173  57.7317238  19.6221676   7.8101716  58.5675926  19.9251156
   7.3876867  57.8304214  18.6724892  79.4132919  51.8854103  23.4196320
  79.9847946  51.9931412  22.6593609  78.6900787  51.3453407  23.1010132
  12.2687883  10.6690521  58.2526474  12.5986023  10.1476250  58.9844704
  13.0215292  11.1885548  57.9702797  35.9400635  52.3273506  26.7609921
  36.2906532  52.6876221  27.5755615  36.7100983  52.1879921  26.2097588
   9.1602039  31.5722370  86.9445953   8.6634388  31.4506836  87.7537231
   9.1485882  30.7120342  86.5248947  54.7072144  28.8252640   9.2453632
  55.2795143  28.0580807   9.2339182  54.6924591  29.1266441   8.3369675
  59.4959297  58.9923477  45.8887672  58.8254204  58.3098793  45.8590775
  59.1406326  59.7007027  45.3518944  67.1408768  19.9393673  80.2436981
  66.8726578  19.1588383  80.7285385  67.9120560  19.6611786  79.7496109
  22.6309490  55.0542412  11.6486006  21.8543682  54.7773628  11.1622953
  23.3493900  54.5596085  11.2543745  11.5423546  30.2096233   6.3693104
  11.1668835  30.1230564   5.4930916  10.8154583  30.5145817   6.9123139
  83.0722580   4.6047325  32.1965752  82.8866119   5.4576216  31.8037033
  83.9719238   4.4106245  31.9336090  60.9105797  57.3295555  34.5875778
  61.4226379  57.7740326  35.2632027  60.7053986  58.0156250  33.9524078
  38.9595604   2.6259787   1.2177606  38.2789726   3.0222814   1.7617975
  38.7244263   2.8718882   0.3230695  28.7839317  57.3251686  10.9792051
  28.1733017  58.0619812  10.9574900  29.3800869  57.5293121  11.6997290
  50.0329971   3.7986763  71.3729401  49.8145218   4.7219872  71.4994202
  50.7217598   3.6254399  72.0146790  61.7653885  41.1974449  44.8419914
  61.6921234  41.7789917  45.5987396  62.6859016  41.2529793  44.5854797
  12.8185596   7.3496003  24.9594727  13.2071981   6.8753934  25.6945381
  11.8755703   7.2234459  25.0647678  67.8721542  41.8899689  33.9352341
  68.7531738  42.0006142  34.2927246  67.3090897  41.8128433  34.7054558
  70.7814484  11.6358614  76.5358047  70.3125381  11.3044796  75.7699356
  70.1752548  12.2587414  76.9367828  25.1728439  66.6768341  60.6497040
  24.6768742  65.9189377  60.3401299  24.9714756  66.7294846  61.5839996
  12.1006689  47.5908928  62.6163483  11.3800735  47.0673218  62.2658501
  12.8092051  46.9620132  62.7531662  76.6169052  14.9512358  51.1530762
  75.9334183  15.5241833  50.8054962  77.2555008  15.5488510  51.5420303
   9.9913340  56.4625549  79.1558228  10.1421556  55.6394005  78.6911697
  10.3060999  56.2971001  80.0445099  15.3653088  56.0198135  85.3567581
  15.3210592  55.0752373  85.5052414  15.8229141  56.3618202  86.1247864
  69.0258942  59.1921539  38.4374390  68.4194412  59.8215370  38.0471649
  68.7753830  58.3504181  38.0567093  48.9439430  52.4238091  27.7562618
  48.0598717  52.7049408  27.9920883  49.0660400  51.5985603  28.2256145
  65.5593948  53.8468285  84.7063293  65.8510818  53.5806961  85.5783005
  66.3385773  54.2240295  84.2978897  44.6166534  16.2251797  68.1238403
  44.8034286  16.3701916  67.1963043  44.4170189  17.0961723  68.4669800
  59.1814537  68.2158813  27.1996422  58.5970306  67.8082581  27.8387966
  59.9215469  68.5308762  27.7185593  31.7479153  65.6792755  75.0771561
  32.4011040  66.1215820  75.6193237  30.9238873  65.7992477  75.5491943
  58.4422760  15.4863653  66.4037399  58.8742409  14.6689262  66.6515884
  58.9701004  15.8267307  65.6813889  34.6881142  27.3655663  25.7335968
  33.9118080  27.9185753  25.8216934  35.1147499  27.4136200  26.5891113
  13.1499414   3.5677099   4.9180241  12.9572916   4.4640222   4.6428108
  13.2059774   3.0729570   4.1005206  34.5090561  10.5745058  15.3069897
  34.6812172  10.1703691  16.1574402  35.3572578  10.5696812  14.8634138
  68.1854019  48.4587364  55.1505623  67.7382050  49.1054459  54.6046524
  68.9420471  48.9261627  55.5044327  20.2130108  22.7162724  62.9671593
  20.5029430  23.6264477  63.0284157  19.3357353  22.7180672  63.3500595
  81.2318268  53.9932632  70.9655838  80.8915558  53.2697182  71.4918289
  81.7442780  54.5170479  71.5814362  12.3750601   8.1928997  86.5071335
  11.6611080   7.6402192  86.8250122  13.1086769   7.5901685  86.3856735
  68.9553680  35.8181038  63.4029350  69.5408478  35.6572990  62.6629448
  69.1571960  36.7124062  63.6781044  76.4399185   4.7000189  17.4253292
  76.8737488   4.1569638  16.7672176  76.6936646   4.3107529  18.2621765
   1.2328255  39.3334427  18.1857166   2.0302374  39.0465965  18.6307850
   1.3374738  39.0263367  17.2851810  58.1161270  27.5574303   1.4300234
  58.9008713  27.1054974   1.7401310  58.2731781  28.4788799   1.6361724
  66.8860321  10.2540379  31.5665188  66.0930862  10.7370186  31.3337059
  67.6005554  10.7775774  31.2037544  17.9130783   5.1306405   1.9346209
  16.9994602   4.8454027   1.9214615  18.0109653   5.5821829   2.7729285
  67.1501312  56.3705635  83.4924850  66.8572464  56.9685822  82.8048630
  67.7789383  55.7948189  83.0573425  31.3149548  70.2429123   3.7123058
  31.5853252  70.9983139   4.2343235  31.3284893  69.5095596   4.3273249
  12.7924032  34.3601608  21.3650761  13.1818848  33.9649506  20.5851116
  13.5378437  34.7056084  21.8562164  16.3551445  13.8390360  59.4524193
  16.1066666  14.2607746  60.2749901  16.9104786  13.1058064  59.7173920
   9.4427538  45.8935814  83.7091217   9.1652203  46.2287331  84.5616913
   9.8307791  45.0400887  83.9020462  14.3137054  51.5394287  53.1273384
  14.0812292  51.2649307  54.0143776  14.7873640  52.3624649  53.2477150
  18.0999756  14.0373087  78.1004257  17.1610146  14.1294737  77.9389038
  18.4976826  14.0772905  77.2306747   6.6078048   1.8439963  54.1503639
   6.5255322   2.3437405  53.3381348   6.7716832   0.9456772  53.8633156
  46.3768959  20.4957199  16.4891472  46.0302467  19.8404884  17.0947361
  47.2413025  20.7116547  16.8390102  69.2803192   7.4206777  47.4059868
  69.6372070   8.2077274  46.9943848  68.3970871   7.6714320  47.6766510
   9.2866135  63.7189980  35.0432510   9.7361565  62.9316864  34.7361946
   9.5792923  63.8242493  35.9485092  48.6481361  59.9841156  10.8733110
  48.0706406  60.5477142  11.3881769  48.3097992  59.1001701  11.0161438
  35.4890594  65.5295181  77.9859085  35.6650162  66.0637970  78.7603912
  35.3697357  64.6435928  78.3281479  82.3781891  15.0290356  37.7786446
  81.5000000  15.3049898  37.5162239  82.7075729  14.5334530  37.0288849
  68.7440262   5.3034096  85.7974701  67.9643250   4.7489872  85.8277130
  69.4411850   4.7562141  86.1591034  75.6535645  40.2627296  61.8530083
  75.3000565  39.4526787  62.2205429  75.4652634  40.9281845  62.5147781
  69.5229416  62.2585945  75.0910873  69.5610657  62.8801346  75.8180389
  70.2315521  62.5291672  74.5072250  55.7630157  24.3917198  67.7057266
  55.0339546  24.0738640  68.2383347  55.5394363  25.3021832  67.5125885
  15.1585445  57.8778572  64.3292160  15.4098425  58.7372475  63.9907990
  14.9732342  57.3574409  63.5475159  23.5461922  18.7391510  79.1317291
  22.8663788  18.3703728  78.5677414  24.3154030  18.8077583  78.5661926
  38.4924812  48.2826042  59.8114128  37.8954620  48.9945946  60.0413551
  38.0109863  47.7653809  59.1657524  61.7969742  18.0298691  64.8021851
  61.8992424  18.3629475  65.6937180  60.9949379  17.5082512  64.8319168
  71.5705566   6.4666567   4.1029148  71.9448013   7.1566162   3.5550766
  72.3177948   5.9175754   4.3403392   7.2055016  29.0324383  88.8103409
   7.8200126  28.3468437  89.0721970   6.7918577  28.6929531  88.0166931
  17.6097908   4.8019071  31.0744667  16.7297859   4.4278483  31.0308208
  17.6669579   5.3699627  30.3061714  62.7478485  25.1724567  74.4491501
  62.3614197  24.7584610  73.6774521  62.1058350  25.0292835  75.1445312
  53.3862343  45.8150520  48.2222519  52.7094727  45.2853317  48.6436996
  54.0921898  45.8590317  48.8671722  58.1297951  30.9172516  32.2536316
  58.3015594  30.8227291  31.3167229  57.6936684  30.1017704  32.5006447
  76.9809799  64.8781967  67.4224243  77.3317413  64.9589539  66.5354767
  76.0348740  64.8004456  67.2996750   0.6922091  49.1681290  32.1293526
   1.1750427  49.0123329  31.3176689   0.8728392  50.0833969  32.3435745
  14.1638288  29.3945618  13.5614071  13.3249960  29.2102737  13.9840527
  14.1149311  28.9366646  12.7222576  73.2861710  51.3811760   8.0729208
  72.9218750  50.5044708   8.1950521  73.4532013  51.4422493   7.1323881
   3.5119469  68.7691193  29.8797131   3.2046058  68.6895828  28.9766922
   3.3461769  67.9090500  30.2657661   0.7127444  50.4986839  66.0126724
   1.5356425  50.4356232  66.4975433   0.2406071  49.6967697  66.2368469
  65.8713684  45.2765923  61.4375458  65.0944977  45.4632454  61.9646721
  65.7252426  45.7511597  60.6192169  54.7544632   6.0992584  64.6183548
  55.7061462   6.0004420  64.6460953  54.4305000   5.4839768  65.2761612
  73.0970001  15.2901115  65.6292038  72.8135986  15.0805807  64.7392502
  73.9858017  15.6294651  65.5238876  82.5750351  30.7175407  23.4043674
  83.3939819  30.2276173  23.4786968  82.6900711  31.4665184  23.9892006
  63.3056488  57.4559746  81.7219696  62.3843613  57.6801682  81.5908432
  63.4377937  57.5292511  82.6671753  65.9562607  59.6004906  33.2705917
  66.0156555  60.5364189  33.4622765  65.9362640  59.1806717  34.1305847
  54.9035683  24.2518120  18.8744678  55.7529755  24.6860199  18.7956829
  54.2760658  24.9684601  18.9687443  46.5768509   3.5522778  34.8379326
  46.6364632   2.8442400  35.4793053  45.8252525   3.3191459  34.2929726
  43.7458229   9.8628712  22.1597614  44.3484268  10.5993977  22.2628517
  43.6034393   9.8002872  21.2152805  51.6494102  11.2919264  22.3565845
  51.8379364  12.2293005  22.4015293  51.6687813  10.9997578  23.2678986
  41.0067787  24.9221725  85.9854126  40.2147789  24.4286079  85.7724304
  41.5542107  24.3009815  86.4656982  75.1190720  16.0489578  11.6050081
  75.2676163  15.6650324  12.4691658  74.3407593  16.5949574  11.7160702
  60.9694405   1.9044993  76.6820297  61.4631844   2.7011070  76.8766098
  61.4163666   1.5244349  75.9256973  46.2814713   1.3042001  36.4993401
  47.2354240   1.3289907  36.5741272  46.0516396   0.3904980  36.6683311
  62.6834984   5.3775620  65.0834427  63.3022232   5.1099119  64.4039001
  63.0285912   6.2095728  65.4073257  85.7982025  52.5103531  56.7241592
  86.6123276  52.8913651  56.3951225  85.4080048  53.2028999  57.2574158
  45.6300850  25.8331432  53.9564857  45.9057465  26.1202488  53.0859604
  45.9710159  26.5033131  54.5488281  86.5718307  59.0216331  14.1751404
  86.3045654  59.3291016  13.3089619  86.1437378  59.6223526  14.7851477
   3.3770008   3.5515475  47.9078789   2.7648494   2.9092591  47.5487595
   4.2280030   3.1143909  47.8775253  51.9513741   8.2684221  48.1797371
  51.5179596   8.7441845  47.4711952  51.9391670   8.8763647  48.9189873
  14.8343172  57.0966263   0.0946438  14.4017200  57.8718643   0.4525541
  15.1825800  56.6413231   0.8612218  19.0042953  53.5721970   2.2280896
  19.7201214  53.6706924   1.6002961  18.7619019  52.6479034   2.1718786
  58.9426346   9.9237595  64.2918320  59.6743584   9.5301619  63.8165550
  59.1224251  10.8637257  64.2725830   6.1545782  63.8773727  63.0324821
   5.2799850  63.5467758  63.2374840   6.5804977  63.9723587  63.8844223
  12.0433626  44.4470634  44.5032425  12.4358711  45.3155441  44.5921898
  12.3872042  44.1125145  43.6749420  11.9058733  63.1630936  55.0272179
  12.2520809  63.8780479  55.5612679  12.4777021  62.4204483  55.2214394
  70.6202240  26.8219433  14.4177589  69.7196274  26.7100353  14.7221193
  70.5348206  27.0235481  13.4859362   7.4293633  28.4861584  20.7953186
   7.4161291  29.2917976  21.3120384   7.9686499  28.6989555  20.0336628
  84.5731354  48.1020622  42.6886520  84.8681717  48.5244789  43.4953423
  85.2194443  48.3617516  42.0320892  39.4581566  71.3167496  84.4154510
  39.1422577  70.9946442  85.2596588  40.3976746  71.1338882  84.4256744
  30.1469116  18.7203083   5.7003918  30.5532150  18.9472847   6.5368314
  29.2747669  19.1123943   5.7435513   9.3632469  55.9989281  16.3430824
  10.2897339  55.7968597  16.4735527   9.0119352  55.2313538  15.8918161
  40.9817657  40.9049797  16.1340637  40.3115959  41.5128441  15.8216391
  41.5779495  41.4494019  16.6482620  23.3416424  50.5992050  86.5463486
  23.7383804  50.6350670  87.4167175  23.7441940  49.8366013  86.1308670
  11.6857224  45.5737190  24.5265236  12.1278343  45.6729698  25.3696823
  10.7727222  45.7975197  24.7070045  15.1709070  70.4789047  82.5129623
  15.7826958  70.4178238  83.2465897  15.5882006  71.0873413  81.9031296
  38.8751068  39.5164108   3.9313161  39.7211113  39.5023956   3.4837520
  39.0965729  39.5065231   4.8624911   7.1689138  50.9207306  71.9605255
   8.0634947  50.7620697  71.6592255   7.2126617  50.8089523  72.9101715
  84.3842087  36.1370125  20.8604679  84.9002609  35.3666878  20.6227207
  84.2826614  36.0734978  21.8101444  17.7370949  35.1909523  21.6574631
  18.4189281  35.0580254  22.3159962  17.6242409  36.1406517  21.6178741
  18.4645844   2.4074893  42.6934700  18.9079895   1.6630044  43.1001244
  19.0719547   2.7078786  42.0173798  69.9420624  23.9995098   9.5483360
  69.8313751  23.3791981   8.8277855  70.8654785  23.9247398   9.7890272
  67.9893951  15.5819979  36.6530876  67.0816727  15.3291931  36.8214874
  67.9237518  16.4219933  36.1988487  20.6330719  68.8267517  18.1382198
  20.9641304  68.6970139  17.2495117  21.1383400  69.5660095  18.4764900
  48.9244003   6.6954069   1.8343891  49.0447350   6.3667293   0.9434782
  49.5372810   6.1843867   2.3630316  73.4171600  29.2335224  55.3316803
  73.7102661  29.9782124  54.8065529  72.5888824  28.9692783  54.9312248
  66.3025055  12.0196619   1.3016132  66.5692902  11.4117975   0.6120053
  66.4299774  11.5305719   2.1144931  82.2695007   7.3834500  76.4127197
  81.8692703   6.8458118  77.0960846  81.5481873   7.5924420  75.8192062
  44.3612823   3.7344263  83.5115051  44.5104752   4.4383712  82.8802948
  44.7847443   4.0387521  84.3141861   5.0557289  44.4358101   2.1695325
   5.1749916  44.2315750   1.2420110   5.8893008  44.1988983   2.5760570
  60.5852242   6.7880216  38.4840622  60.9172325   7.3584685  39.1773109
  61.3712311   6.4536791  38.0520401  73.1550369   1.4711430  66.3900681
  73.4371643   1.0756952  65.5652924  72.3365479   1.0228500  66.6029968
  79.9603729  58.1354561  24.0247192  79.3077927  57.5423126  23.6524963
  79.6402283  58.3200912  24.9076977  15.2468824   6.6868014  69.3481827
  15.3553238   7.3107567  70.0659256  16.0241451   6.1301332  69.3952560
  26.4405823  46.9234047  41.4538498  26.4514866  47.1456833  42.3848228
  27.3461246  47.0442123  41.1681404  57.0273628  25.1288834  30.6184788
  57.2707138  24.8082561  29.7500267  56.3190384  25.7513847  30.4541626
  82.6898499  55.2142754   8.1834822  82.6312256  55.1148109   9.1336937
  81.9888382  54.6597786   7.8409157   9.5678701  14.7628307   1.9522017
   8.8196211  14.1700878   2.0229850   9.4110689  15.2510262   1.1439253
  57.5316048  42.1274033  75.9365997  57.5291634  42.5788574  75.0925522
  57.7691689  42.8047638  76.5698318  43.9949341   6.0432014  44.0958214
  43.5416374   6.1700072  44.9292908  44.8156319   6.5260291  44.1936493
  68.3350983  42.6612778  80.8960266  68.9498901  41.9706612  81.1436539
  68.7779465  43.4744568  81.1386261  35.6505203  42.1994362  74.2445679
  35.4878197  42.4629669  73.3388596  35.1367836  41.3996849  74.3572845
  76.0055084  44.6347580  22.7209225  75.5784454  44.2473640  23.4849758
  76.1674957  45.5440102  22.9724159  31.5007782   0.9474924  34.2744293
  30.6243782   0.6533436  34.0261765  31.8020287   0.2953949  34.9070816
   3.5628028  35.3713379  21.3315201   4.3014755  35.2486839  20.7352409
   3.9277639  35.2093010  22.2014503  20.1474457  21.2400799  85.9006729
  20.7807693  20.6176586  85.5432892  20.6824951  21.9555130  86.2443390
  81.2322998  67.9028625  71.6626968  81.7086182  67.0730362  71.6353455
  81.5777435  68.3519897  72.4341736  69.5937195  40.5434113  75.8856049
  68.8874359  39.9941597  76.2257843  70.0173645  40.8997040  76.6665115
  24.0787048  10.9023600  11.9753361  24.7835236  10.8858938  12.6227865
  23.2811222  10.7632132  12.4859543  40.9655037  49.5740700  30.1993065
  40.0656662  49.5835800  30.5255489  41.4851761  49.9310875  30.9195213
   2.3539469   8.4971933  10.8025961   2.0446827   7.8148060  11.3983603
   2.6637011   9.1959000  11.3788719  64.6982422  57.8650703  28.0846405
  64.1822128  57.0847511  27.8820267  64.7873917  57.8524780  29.0375957
  57.5148621  34.9572678  19.1195831  58.2586555  35.2421150  18.5886745
  57.7094612  35.2825203  19.9985447  76.8815613  27.5753689  81.1979218
  77.1806870  28.4144592  81.5481720  77.2679596  26.9213085  81.7802734
  43.9962730  63.5054054   7.6576829  43.0998840  63.7255402   7.9111691
  44.0137978  62.5484314   7.6462803  79.1417389  35.3145447  85.8994675
  79.0776443  34.5415726  86.4603958  80.0324860  35.6369324  86.0367966
  12.5162840  13.4039240  83.6771698  12.6282463  12.8369064  84.4401779
  13.0790949  14.1576624  83.8542404  79.5564575   6.7767615  34.3009987
  80.3062286   7.3717742  34.2947121  78.8658905   7.2663560  34.7478142
  54.3112755   9.0118704  55.2233505  53.3658409   9.1430836  55.1514664
  54.6495857   9.2259388  54.3538971  51.5614014  38.2165260  83.5942764
  50.8845787  38.4870567  82.9738235  51.7926331  39.0192719  84.0615616
  19.7948380   3.5195837  40.6970329  19.9242992   2.9204562  39.9618340
  20.6673145   3.8696492  40.8772278   9.4170485   2.7495329  82.0261230
   9.9561844   2.0359921  82.3673325   9.7678404   2.9176614  81.1515350
  70.3663940   4.9752212  10.8835468  69.6350708   4.7047815  10.3283396
  70.4059143   5.9261179  10.7812433  55.5091248  12.0679731  11.7621212
  55.5628815  11.6114483  12.6017208  55.1565361  11.4155760  11.1569014
  12.9275370  20.4100266  18.8245983  13.7975025  20.0616341  18.6296253
  12.4489508  20.3350277  17.9990311  47.1612854  40.3646088  22.5092964
  46.3604088  40.2083931  22.0088673  47.2148247  39.6237297  23.1130085
   6.1501265  39.2619209  74.8987961   6.4406619  39.0441742  75.7844696
   5.6682363  38.4877930  74.6076965  63.4454498  57.0638695   0.6097752
  62.6242714  56.9859428   0.1241591  64.1146774  56.7529449   0.0001066
  47.7816620  62.6373825  56.5709267  47.9024162  61.6907578  56.4963913
  48.5672188  62.9441261  57.0237389  85.1351471  24.8271179  68.3930054
  85.4333878  23.9241943  68.2834167  84.3448792  24.7550278  68.9282837
   4.9243240  14.5475416  44.7576065   4.5878015  15.0843945  44.0401306
   4.7061009  15.0406466  45.5484657  11.5002871  40.7801933  44.0479774
  10.5647173  40.9226952  43.9043236  11.7060585  41.3033180  44.8227196
  22.6597824   6.4800816  44.0568314  22.8871765   7.4066706  43.9796562
  21.7592888   6.4806805  44.3813972  85.2597275  55.9830666  36.5661087
  85.0477142  55.3647499  37.2653732  85.6267776  56.7415466  37.0202179
  10.0402374  46.4249077   6.1587939   9.1072178  46.5137215   5.9643288
  10.1896305  45.4799309   6.1893601  62.9291916  28.7017498   1.6755483
  63.3527298  28.7225437   2.5336940  63.1138611  27.8250961   1.3384901
  80.8073730  36.1578369  33.5994034  81.4293137  36.3362541  32.8940048
  81.2326279  35.4831314  34.1287041  69.4272537   3.9560864  48.7431641
  69.6884613   3.0501378  48.9082680  69.7931519   4.1576905  47.8819389
   9.3531008  29.3221912  81.4654922   9.2573204  30.2298584  81.7539291
   8.8263435  28.8171749  82.0849380  13.7854548   2.8265810  33.5744514
  14.2011948   2.5391035  32.7615891  14.2839775   2.3906946  34.2656174
  52.5369911  10.3544254  66.5652542  51.7267532   9.8716373  66.4019623
  52.2463226  11.2145939  66.8683243  42.5945587  64.2512970  26.6191406
  43.3799286  64.2588882  27.1662884  42.2297745  65.1314316  26.7115250
  73.2988129   4.0449963  23.2662582  73.5341949   4.3669367  22.3960972
  72.5927353   3.4186370  23.1069927  58.7268753  46.8186188  38.5546799
  59.5332680  46.4645042  38.1797600  59.0172501  47.5493202  39.1005669
  73.7038345  63.9879608  75.7416458  74.3673706  64.5055466  76.1977768
  73.0001144  64.6099625  75.5569229  31.8659725  66.8657379  50.1110306
  31.2423553  66.2998428  50.5661049  32.2240601  66.3158493  49.4141579
  22.4362869  29.0274601  11.1167145  21.6306458  28.6899586  11.5082064
  22.3155499  28.9030056  10.1753511   9.9187479  62.7089806  14.4354782
   9.3636208  62.1020813  14.9251070  10.2221718  63.3376122  15.0904522
  45.9640846   5.5543728   2.0215788  46.3774376   6.1288419   2.6660607
  45.3052025   6.1045589   1.5980214  17.2593670  27.0933952  28.9394321
  17.7864876  26.8071785  29.6853924  17.8680801  27.0901871  28.2007256
  21.3003883  18.6955566  16.5383053  21.7511826  19.5144234  16.3322105
  21.1734810  18.7241249  17.4866257  86.5283661   8.2472305  84.5424576
  87.4743576   8.1813908  84.6728668  86.4146271   9.0313616  84.0054016
  50.1531639  54.6166344  74.6448669  50.2179680  54.7776718  75.5861969
  49.3322983  55.0355415  74.3861618  32.7345543  63.2975388  71.7407303
  32.5760002  62.4177818  71.3984909  33.5046043  63.6053123  71.2626801
  65.1736145  33.1090889  31.6088982  65.2158203  32.7271919  32.4855995
  64.4666138  32.6325302  31.1738396  53.4985046  47.3787880  35.7631187
  53.6831512  46.4801025  36.0360641  52.6496887  47.3260765  35.3238373
  72.2666855  32.6369896   7.9478030  72.0521698  31.8719406   7.4140306
  73.1532898  32.8763809   7.6778793  55.6055603  25.4744606  33.0929031
  56.3470192  25.3933773  32.4929886  55.4885101  24.5938721  33.4494095
  70.9911270  28.7102966  51.8133087  71.2693558  28.6315556  52.7257881
  71.3313141  27.9219017  51.3902969  75.9518661  10.0640163  60.9459152
  75.7426224  10.9895144  61.0720253  75.1619110   9.6910229  60.5546494
  41.8891563   1.7148505  26.0539551  42.8168297   1.8131377  25.8395004
  41.5215950   2.5905364  25.9343548  62.1098137  30.9539833  81.8621521
  63.0470848  30.7638435  81.9022141  61.8614464  30.7456875  80.9615097
  25.2500877   8.1498737  23.8305950  25.2303257   7.3082166  23.3751240
  24.6119518   8.0546160  24.5376587  21.0147419  53.0757179  38.3733215
  21.4889851  53.2181015  39.1925011  20.1303139  52.8332672  38.6476173
  78.9601440   4.2560124  68.6171036  78.6889648   3.3437710  68.7196198
  78.1392288   4.7457323  68.5670395   2.1581492   5.1085591  37.8797989
   1.9809821   4.4396601  38.5411758   1.5017928   5.7860217  38.0425034
  28.2153111  42.5008469  12.7189245  28.4029217  42.6696548  13.6422548
  28.7736931  41.7568855  12.4931831   7.5305204  43.7870750   3.2765288
   7.3336778  43.9970779   4.1894269   7.6085529  42.8331757   3.2616546
  31.9087391  65.4392242  46.4229240  32.5934410  65.1475830  47.0248871
  31.8657455  66.3869629  46.5501328  25.4151115  58.2157211  79.5094986
  26.0823326  58.7987404  79.1473694  25.9033775  57.4473305  79.8051300
  12.7165346  40.2661133  73.4976959  12.3290892  40.0448799  72.6508331
  13.6354351  40.4477463  73.3005600  36.6784401  66.7656708  35.6723557
  37.0278091  66.2757568  36.4167709  37.4065819  67.3167114  35.3852997
  39.3870277  41.4114723  55.2617798  39.6267357  41.5468903  54.3450279
  39.4574165  40.4655876  55.3905373  54.9849091  35.0311813  77.9723129
  55.8127975  34.6243591  78.2279053  54.7535515  35.5900116  78.7142105
  64.5119934  13.6752605  52.9184418  64.7294998  13.5355759  51.9968071
  64.1690369  12.8319235  53.2140732  36.1377602  11.7867498  76.5486679
  36.0399628  12.5308971  75.9546051  35.4075317  11.8720350  77.1616287
  72.8918381  43.8316765  47.7194405  72.0347366  43.5312462  47.4171982
  73.4020767  43.9457359  46.9176483  55.0085487  64.8966141  25.9806290
  55.6499557  65.5306473  25.6599674  54.8331299  64.3318329  25.2279758
   8.5312719  27.1363735   3.9242175   9.1072292  27.0384159   3.1659896
   8.8264980  27.9429989   4.3466272  13.0511265  38.6153755  22.0912189
  13.5428410  38.3667145  22.8739185  13.0681343  39.5724220  22.0916729
  73.6375198  67.9635086   2.6868672  73.6152649  68.4813538   3.4915864
  72.7560043  68.0476532   2.3234448  14.7367668  44.2151375  51.5642090
  15.3302803  44.8732452  51.2024536  14.4051962  43.7452049  50.7990570
  39.5288048  45.1211205  14.3337898  39.9784088  45.9658699  14.3558178
  39.3740654  44.9563370  13.4036636   0.1510334  64.5697784  83.9446487
   0.5989769  65.1502838  83.3293457  -0.3625090  63.9828491  83.3896484
  61.2250557   8.3576174  26.3806400  62.0966835   8.7319593  26.2527084
  61.1068344   8.3450394  27.3304291  59.6452522  11.0709476  52.1789207
  60.1995010  10.6606445  51.5150757  58.7657318  11.0519867  51.8016701
  43.1538544  39.1277199  88.8633118  42.8914452  38.2145309  88.9793243
  42.3453102  39.6261635  88.9818192  24.9788265   5.7342696  27.3576736
  25.7403564   5.9167137  26.8072014  24.9779282   6.4382582  28.0062351
  37.5700302  52.6849899  22.2661858  37.8541679  52.8593750  23.1634521
  37.4132805  53.5518913  21.8918304  11.8067656  69.0953903  64.5421677
  11.4226027  68.5546799  65.2323074  11.1465521  69.7662354  64.3680649
  57.2689018  42.4933205  28.9726963  57.1062584  42.0048294  28.1657543
  56.4342232  42.4677086  29.4405460  52.7544022  38.2316742  40.3989792
  52.6471214  37.3658333  40.7927322  52.5377350  38.1033440  39.4754982
  18.0589161   1.9183749  34.7570343  17.4033508   1.3193367  34.3997955
  18.4165154   2.3667660  33.9906807   2.4570174  21.3414707  30.5753117
   1.6396456  21.4432564  30.0876904   2.9527876  20.6905556  30.0785675
  52.2739258  31.8033733   5.5398049  51.4357834  32.1168861   5.8795977
  52.3651619  32.2360992   4.6908898  77.5043793  25.1865311  79.7137070
  76.5561676  25.0722904  79.6499405  77.6158066  26.0632496  80.0813828
  75.0714493  68.6216278  12.5490112  74.2341156  68.1629562  12.6177559
  75.6024628  68.0664825  11.9779835  51.4776993  48.7159538  43.0674019
  52.1457787  49.3459740  42.7972679  50.6966553  49.2469864  43.2229729
   8.0059252  61.5993843  81.8349991   7.3164010  62.1973915  82.1234055
   8.0595264  61.7341270  80.8888474  77.0198746  56.4249229  83.9982529
  76.4039230  57.0314140  83.5871506  76.5349503  55.6027260  84.0695038
   7.8880043  60.2826653  50.9065361   8.4063416  60.2789001  51.7112389
   7.3643079  59.4829140  50.9552231   3.8504014  60.2266541   0.6544008
   4.6655521  60.6510468   0.9220795   3.6827598  60.5635681  -0.2257233
  23.6919575  13.9420538  12.0873375  24.0820122  13.4111423  12.7817593
  24.2794189  13.8282757  11.3402262   1.7738746  38.8875084  44.3652191
   2.5787945  39.3548012  44.5887642   1.1842192  39.5679741  44.0404015
  22.5795994   3.0577371  32.8810463  22.3397751   3.4960124  33.6975212
  23.3840828   2.5834954  33.0911255  44.9619064  30.2543945  75.1264420
  45.2688828  29.6553879  74.4458618  45.2037277  31.1237831  74.8071899
  31.3761902  63.9172096   9.0739861  30.4398422  63.8302193   9.2526369
  31.6967926  64.5056000   9.7575359   2.1863494  47.0408287  56.4675522
   1.7573459  47.8126755  56.8369370   3.0485086  47.0241585  56.8830452
  48.3485336   9.8437471   2.1977684  47.6561356   9.4350033   2.7171373
  48.1334114   9.6188622   1.2925717  57.8893547  37.1432037  33.0932999
  57.7326927  37.4189262  32.1901588  57.2026482  37.5778961  33.5989761
  82.9566574  16.5101166  53.1722336  82.6900864  15.5931997  53.2388344
  82.1731796  17.0052967  53.4113808  14.3700294   9.1230106  19.8797359
  15.2232246   9.1524363  20.3126602  13.8309011   8.5748739  20.4499283
  68.3679962   5.2183962   3.8858030  68.8521042   5.1985664   3.0602863
  68.7078552   5.9868016   4.3443666  81.0356827  35.5684204  54.0294685
  81.2150269  35.8402061  54.9295807  81.7570267  34.9791222  53.8089828
  43.0340576  62.9071884  20.4599895  43.4479561  63.0628319  21.3089275
  42.9230385  63.7804070  20.0839653   7.0035272   7.7947283  78.2743988
   7.5070004   7.1940613  77.7249069   7.6621561   8.3626585  78.6742706
  37.4813271  29.6291828  21.0841713  36.6651878  30.0780163  20.8634930
  37.4027634  29.4347286  22.0181122  19.9556274   4.0493317  37.1326218
  19.8620338   4.9902806  37.2812424  19.5517731   3.6442878  37.9001312
  54.8661690  66.1641693  20.7267036  54.2380829  65.4720840  20.9334774
  55.4341469  66.2097626  21.4958286  38.2462234   2.2923346   4.4675994
  38.4073906   1.4923995   3.9672384  37.3677292   2.1756623   4.8293524
  24.6962471   6.3827085  78.8049316  25.6095161   6.6392269  78.9328842
  24.3558350   7.0160751  78.1731110  80.0032730  70.0277176  36.8608627
  79.1794052  69.5411530  36.8338776  80.0541611  70.4600067  36.0083580
  71.6424713  10.5081949  16.6663704  71.0628891  10.3538141  15.9203911
  71.7248459  11.4607239  16.7125702  35.8705177   2.0443411   1.7632219
  35.2422523   2.0011044   2.4840837  36.3421707   1.2125262   1.8063616
  68.9277191  67.6948624  49.9294624  68.4047318  66.8945923  49.9772530
  69.6925354  67.4504013  49.4083710  24.2631226  69.0111618  59.6861496
  24.6615295  68.4165802  60.3217392  23.4313507  69.2661514  60.0853615
  55.8415985  37.1815338  11.3564444  54.9644394  37.5606689  11.4119425
  55.6907043  36.2400551  11.2722988  56.8046303  28.8965435  14.5195169
  56.6716690  28.9279976  15.4669151  56.9988251  27.9775314  14.3352938
  82.0136566  11.2978439  46.7075844  82.9596939  11.1837749  46.7983170
  81.6553192  10.4159985  46.8084450  13.2046490  41.1347542  41.9513245
  12.6451645  41.2832489  42.7136612  12.7368279  40.4783211  41.4351158
  85.8475952  71.5159912  33.4535294  86.4093628  71.2636337  34.1863098
  86.1885223  71.0207214  32.7087440  60.2277603  56.4937630   2.1462762
  60.5223618  56.9674225   2.9241493  59.4646721  55.9976730   2.4426289
  65.7732773  35.4249802  44.0975266  65.8688660  35.0288658  43.2313957
  65.5500183  34.6929131  44.6723862   5.7738032  48.6977539  33.4606667
   6.4154119  49.0185432  34.0944366   6.2123547  47.9670525  33.0247993
   3.0068302  27.0123806  61.4911079   3.9321334  26.8105869  61.3520966
   2.9622104  27.9679050  61.4562531  23.4807281   6.1119294  72.9806290
  23.6584835   5.9048810  73.8981094  23.5456467   5.2708192  72.5283585
  22.8913403  10.4786348  72.7498016  22.7661037  11.2684278  73.2758942
  22.6694794   9.7593212  73.3410645  65.5278778  57.8445740  59.0161896
  64.8618546  58.1469688  59.6336021  65.6007004  56.9049492  59.1836281
  58.9566879  16.8122406  53.1825981  59.2245140  15.9566317  53.5179138
  59.6260300  17.0363407  52.5360794   7.5533843  38.5241890  12.2363901
   7.3667622  38.8467560  11.3547134   7.0288553  39.0814590  12.8113251
   6.2763200  47.6901398  12.5872660   6.6032434  48.4552956  12.1141005
   5.4164405  47.5200768  12.2026653  81.1676254  61.1581764  41.6264725
  80.6410446  60.4683228  42.0302582  80.8004456  61.2566032  40.7479973
  74.1139603  52.4053383  42.1644325  73.7384567  52.5725403  43.0288849
  73.3591766  52.2098808  41.6091614  78.5796661  22.2134552  32.3507652
  78.7951126  23.1133022  32.5958977  78.7640839  21.7002296  33.1374207
  83.6195755  60.8300781  74.4587021  83.4949799  59.9330521  74.7686234
  83.6611862  61.3558540  75.2574844  85.2691956   5.8691921  43.6031532
  85.6934662   6.7202344  43.7124710  85.9437256   5.3137207  43.2123909
  26.3858719   8.9987946  87.0679016  26.9281712   9.5589571  86.5125961
  25.4868279   9.2124672  86.8183136  76.7010422  58.6916695  81.1650162
  76.5827408  59.6382103  81.2443466  77.5793228  58.5303383  81.5097275
  60.4795189  10.0425224  75.3878708  60.4546547  10.9982500  75.3409958
  59.6940460   9.8064070  75.8813400   6.9098945  69.1264420  17.7218971
   7.4075680  68.9747696  18.5253563   6.7739496  68.2525330  17.3557892
  71.1707230  26.8848953   5.0666170  71.8835373  26.2924881   4.8274951
  70.4020691  26.3187637   5.1366010  35.3065338  62.1299858  52.0876274
  34.9836578  61.3378868  51.6580200  34.6779518  62.8088226  51.8420715
  73.5602264  31.0862656  49.2962112  74.3988190  30.9070778  49.7215233
  73.0160828  30.3285961  49.5108566  53.1001205  21.1416454  -0.0365691
  53.4423981  21.9825859  -0.3397141  53.3565712  21.0966873   0.8845412
  45.3676453  38.9151955  19.9288311  44.7104912  39.5538597  19.6522675
  46.1210403  39.0867882  19.3638649  66.5294266   5.0982056  35.0750656
  66.9435654   5.4231029  35.8745384  67.1731339   5.2657914  34.3867416
  69.4221115  15.5774813  68.8277664  70.0804901  15.7664919  68.1591492
  68.5949326  15.5456390  68.3471375  61.4067307  40.7124557  69.8578033
  61.6422272  40.0450516  70.5022812  60.4508095  40.6814766  69.8192902
  61.4711189  54.5849419  34.0634499  60.9876709  53.9218788  34.5562553
  61.1160622  55.4186897  34.3717155   9.0340204  13.7586184   5.7813396
   8.1724396  14.1431570   5.9427056   9.2494249  14.0206547   4.8862586
  83.4857178  47.6894760  56.7823830  83.6823883  48.4187431  57.3703613
  84.2369843  47.1026726  56.8689919   3.3986175   2.8456264  62.4797707
   3.9461441   2.2978187  61.9173164   4.0210829   3.3806353  62.9722481
  36.8660889  52.7557526   9.9577589  37.6381264  52.9124947  10.5014696
  36.1489449  53.1746445  10.4336433   6.3773808  38.1947136  80.1857834
   5.6239619  37.8037872  80.6282425   7.1342354  37.7378006  80.5527115
  54.4500618   8.1731577  12.6881790  55.3175659   8.0303736  12.3096533
  54.5794067   8.8757582  13.3252468  21.9350147   8.1790276  23.1841583
  22.1822414   9.0981474  23.0825291  22.2339497   7.9463849  24.0632191
  19.3745804  22.9226055  88.4874420  19.8628998  22.1632633  88.8055267
  18.5343533  22.5643234  88.2012863  39.7986908  31.7200756  84.0925522
  39.1349487  31.0822048  84.3548431  39.2981529  32.4525452  83.7331314
  62.9615555  12.4462452  34.9296265  62.7661209  12.7082844  34.0299759
  62.1299210  12.1150789  35.2686615  54.3479347  14.8527918  78.4596405
  53.7046013  15.4743767  78.8002090  55.1835365  15.1527481  78.8174515
  80.3550949  68.9131165  77.1198730  80.2453079  69.3556671  77.9614944
  80.2343597  67.9848480  77.3198242  19.4773064  42.5657883   7.1422496
  19.2182560  43.0247383   6.3431940  19.4994469  41.6422691   6.8915477
  69.2069778  14.2859049   7.5727582  69.5398636  14.8480244   8.2723589
  69.9919739  13.9705591   7.1249127  71.1848602  51.8212662  58.5393143
  71.9141541  51.3945847  58.9890976  71.4296722  52.7461700  58.5100517
  82.3125381  58.6740227  47.9803314  82.5204697  57.8658714  47.5114136
  82.6464691  58.5298843  48.8657379  68.0114288  19.7004967   5.8050437
  68.3555908  18.8088799   5.7520609  67.6948395  19.7819653   6.7046919
  12.8523283  39.5343590  88.5214081  13.6600904  39.0767784  88.2882385
  12.4699764  39.7884369  87.6814804  31.6945324  59.6339226  19.6484947
  32.3896942  59.5489807  18.9959869  31.4561787  60.5606804  19.6252670
  63.4578285  71.8891678  51.7463493  63.2233543  70.9619675  51.7070122
  64.4136124  71.8925247  51.7983856  65.0226059  28.4770393  68.6307983
  65.2456589  29.3783226  68.3980560  65.2175293  27.9707737  67.8421783
  79.4620972  26.0696068  68.8817368  78.9085770  26.6007957  68.3093033
  79.1954880  26.3149567  69.7677155  80.6488190  56.1911850  59.7191963
  81.3410110  56.3243408  59.0716095  80.3769379  55.2817688  59.5956154
  76.8730698  36.4437866  18.4692631  77.3949890  37.1032867  18.9263115
  76.8373642  35.7041054  19.0757504  20.9066143  50.6537476  32.0575142
  20.4290123  49.8251534  32.0180321  20.6522484  51.1151314  31.2583580
  61.3393784  44.0891037  78.0884171  61.9619522  44.4017982  78.7448120
  61.6999817  44.3893127  77.2541046  10.3327274  59.4263382   9.1068640
  11.1867104  59.4339027   9.5391693  10.5048056  59.7709503   8.2305861
  64.3929443  50.4327049  10.6528111  63.5404282  50.4352036  11.0880671
  64.9277420  49.8364944  11.1769848  27.7407761  20.9838123   3.3464472
  28.1120911  20.3103809   2.7764916  27.7468166  21.7787838   2.8133283
  18.7959213   7.3712988  83.6999893  18.3420124   6.9477706  82.9714203
  19.1435413   6.6463790  84.2194977   2.2421300  70.7121658  78.5755692
   1.9092029  71.3852768  77.9820099   2.9461372  70.2875214  78.0853806
  85.6179123  12.5970421  45.2169838  84.9798279  13.1183472  44.7298279
  85.1121368  12.2016783  45.9269905  52.9472847  23.2937031  10.0059929
  52.2796936  22.9100151   9.4373646  53.7575455  23.2309265   9.5002575
  80.1182327  46.1644287  64.1563110  79.3533630  45.9672623  64.6969910
  80.4466400  45.3074455  63.8843536  67.4309616  14.3077393   3.2926846
  66.8041992  13.8359089   3.8411188  67.2614288  13.9885798   2.4063289
  54.2121201  10.5122080  75.0629120  54.1209145   9.6615973  75.4923019
  54.5951843  11.0787382  75.7326431  52.9872589  67.7428818  51.0131798
  53.1208267  68.6558456  51.2679024  53.6888428  67.2655487  51.4560814
  21.0523872  68.9863052  70.1944656  21.2561245  68.1959839  69.6943512
  20.4391098  69.4689865  69.6402664  46.4823494  22.6101284  14.7431431
  46.3397751  21.9280109  15.3993597  46.2139473  22.2077084  13.9171572
  48.6596794  60.6124077  -0.0246753  49.2767029  61.1264839   0.4961294
  48.1072540  61.2651787  -0.4547330  34.9158020  58.3452797   1.0725279
  35.1300621  57.4769363   1.4135548  35.3949318  58.9500198   1.6390587
  55.0130386  67.0278397   1.2644037  55.6270218  66.5407562   0.7148569
  55.5624237  67.6431122   1.7500501  15.4284077  36.1474113   7.0307255
  15.0446854  35.2705688   7.0425692  16.3725567  35.9951515   6.9903274
  24.4395065  59.8252144   9.7798538  24.5517559  60.4200134  10.5213709
  23.8217869  59.1648750  10.0938683  47.8437424  50.9481201  56.1738052
  47.9803276  50.1581383  55.6508293  47.5607567  51.6082764  55.5410767
  20.4032955  67.7136688  56.2485008  20.4857788  66.7740326  56.0856590
  20.9508076  68.1219406  55.5778503  80.0647964   8.2022295  53.1027946
  80.7451935   8.8393688  52.8851967  79.5324631   8.1400185  52.3097153
  81.9971619  65.7192307   5.7898030  81.8237534  65.9688263   6.6974716
  81.2025909  65.2643967   5.5104976  28.3281898  35.9959030  29.0867138
  27.9459095  35.3266678  28.5190735  27.7366085  36.7441559  29.0068264
  36.8338280  67.7854691  31.2348652  37.3452415  67.1316147  30.7582493
  36.9975586  67.5914230  32.1577797  66.3478394  48.4449844  11.8302660
  66.9792709  49.0533409  11.4462967  66.5769043  47.5942345  11.4561176
  85.1598129  50.4580421  76.9897995  84.5946503  49.8573418  77.4755783
  85.0807877  50.1768723  76.0782394  17.4480629   8.6260710  74.2680359
  17.2963581   9.5571346  74.1057510  17.2094669   8.5010595  75.1865540
  70.1554184  56.5716629  22.8660069  70.9325256  56.8691711  23.3391094
  70.2443542  55.6191292  22.8343315  67.0366592  30.7325382  65.7069855
  66.2575226  30.6109867  66.2495728  67.7403412  30.3112583  66.2005386
  34.7240372  55.4575691  30.5534382  34.6760521  54.5436745  30.8340130
  34.8903656  55.9470253  31.3590431  12.6030827  40.9924889  31.9453907
  13.1992016  41.2080193  31.2281590  13.0131359  40.2454910  32.3813744
  48.7927361  30.4617195  33.0758095  48.8017120  29.9877224  33.9073639
  48.0465202  31.0569172  33.1474342  76.9579926  57.7687149  66.0113907
  77.2611237  58.5065002  65.4822311  77.7510223  57.2664528  66.1986542
  64.0867386  43.0912094  77.2690659  64.2991562  42.7940407  78.1538315
  63.9731331  42.2846336  76.7663116  42.2666435  22.9286156  55.6543198
  42.4438095  22.3412590  54.9195709  41.3219032  22.8609886  55.7926102
  39.1440506  30.9140530   4.2329640  38.4879875  31.6108303   4.2151933
  39.2155075  30.6758785   5.1573009  84.8447723  22.3484402  56.3391151
  84.5890732  21.4609280  56.0877838  84.1056290  22.8951664  56.0726814
  38.1414032   9.9394493  77.3096390  37.8130569  10.8350134  77.2297134
  39.0903053  10.0229635  77.2156296   3.0817206   7.6130037  27.8136978
   3.7127237   7.0329642  28.2398682   2.7259707   8.1444979  28.5258675
   7.2182512  45.2994308  11.9158106   7.0546923  46.1983147  12.2012653
   7.9320235  44.9960938  12.4768343  51.1818886  22.7851257  29.7424946
  51.0039864  21.8482170  29.6601353  51.3547211  23.0757236  28.8469963
  20.2538815  32.5646935   1.7026628  20.9222393  33.0154381   1.1865636
  20.1665764  31.7076912   1.2853403  46.9738770  65.0047913  73.0107651
  46.2008972  65.5560150  72.8887558  46.7965393  64.5184097  73.8158875
   1.1957570  60.3542442  65.2403336   1.3134037  59.4328766  65.4715729
   0.5025867  60.6612320  65.8247147   3.2462974  38.4487915  19.9273510
   2.8733370  38.2005997  20.7732430   4.1323051  38.0867920  19.9407558
  45.2802963  54.0194359  28.7941933  44.4055519  53.6434593  28.8926868
  45.8083305  53.5743141  29.4569740   1.3785031  53.5774841  43.8779640
   0.8195319  53.1093521  43.2577744   2.2371037  53.1645966  43.7854309
  71.5702133   8.7854710  25.2976131  72.0260773   8.0621262  24.8672714
  71.9970322   8.8638191  26.1507950   5.3582792  37.9261055  36.7298164
   5.3321633  38.8258400  37.0554390   6.2911744  37.7216301  36.6655655
  55.4963074  62.6929474  62.8223305  55.1664581  63.1906242  62.0741692
  56.1843834  63.2455597  63.1930046  45.8339043  57.4200554  55.2754593
  45.2664223  58.0440636  55.7280197  46.5218391  57.9602509  54.8866577
  79.1256561   8.0507841  75.7641525  79.8214951   8.2567835  75.1399689
  79.2803345   8.6436596  76.4995499   7.7478232   5.7729201  19.0465298
   7.6612892   5.1475987  19.7660561   8.6082516   6.1713080  19.1776123
  56.4777794  43.5269318   2.1806121  56.4579163  44.0583916   1.3847539
  56.3149567  44.1499825   2.8888016  41.1320839  18.7529869  76.9464340
  41.5334053  18.7006607  76.0790024  40.5219765  19.4879150  76.8841324
   9.2656527  49.6310081   4.4381728   8.4354229  49.9164581   4.0567698
   9.9298782  50.1425133   3.9762247  17.7024956  53.4339066  16.0607071
  17.4311275  53.9979401  16.7849007  17.3048534  53.8310165  15.2858419
  27.3763390  63.2313614  76.7548447  27.7139473  63.9875679  77.2348480
  27.4713764  62.4991188  77.3639603  69.5745926  25.1320114  67.5746078
  69.0465851  24.4511719  67.9916153  69.5676117  25.8569660  68.1996078
  45.1898613  69.4801331  41.7076378  44.6196556  69.8600388  41.0392303
  45.1276741  68.5354004  41.5667229  36.6506844   5.0214701  37.8347626
  37.4011803   5.3228793  38.3467636  36.2778587   5.8208194  37.4629097
  29.7471313  43.7410812  75.5490799  29.7768307  43.9402199  74.6132965
  29.7055626  42.7856369  75.5894318   1.6430943  44.4854050  22.6616917
   0.7739733  44.0875015  22.7120094   1.5475720  45.3266830  23.1081905
  86.6738358  41.9069443  12.0836496  85.9247894  42.4494858  12.3302469
  86.3689270  41.4078064  11.3259401   0.0044180  29.7350826  55.2970467
  -0.0653502  30.4709911  54.6889305   0.9418151  29.5455914  55.3371887
   2.7599368   9.3531084  29.9367676   2.0242233   9.8323278  29.5555763
   3.5340843   9.7319937  29.5203876  34.7991028  17.8343449   3.8774366
  35.6779556  17.4808846   4.0149693  34.4683762  18.0038624   4.7595444
  18.9275742  26.3871288  26.9638176  18.6239014  25.7072830  26.3622990
  19.5058136  26.9353542  26.4334221  36.6508713  24.7727776   7.2190433
  37.1679573  24.1951141   7.7804341  37.1055069  25.6142292   7.2577548
  79.7227783   5.8424253  22.0856571  78.8062134   5.9627433  21.8373547
  79.7378616   5.0038471  22.5469494  54.7311935  21.4681473  52.8975945
  55.2705994  20.8097591  52.4596443  53.8562889  21.0808735  52.9256973
  33.3512192  18.6789913  20.6327457  33.8579559  19.1469727  21.2964039
  33.7385902  18.9499741  19.8004341  29.4078484  46.6382294  77.3535538
  28.9785728  46.3924026  76.5340881  29.4439716  45.8256378  77.8581543
  52.6239548  67.1945267  84.5685806  52.1447525  66.3672485  84.5215912
  52.0760612  67.8162308  84.0894852  21.0124264  42.8546448  35.0310898
  21.6747303  42.9440842  35.7163544  21.2296257  43.5383568  34.3973770
  75.1035690  55.4936447  82.0084152  74.2949524  55.4878387  81.4962158
  74.9811096  56.2012291  82.6413193  29.5324173  53.1658669  19.3310852
  30.4637012  52.9550323  19.3981037  29.4471302  54.0145950  19.7653847
  13.7089005  48.6048164   8.8757925  14.3690157  49.1582375   9.2931747
  13.6098471  47.8607521   9.4697495  68.8790588  21.6831589  11.3486557
  68.5362091  22.1091976  12.1342602  69.5565491  22.2791729  11.0292768
  81.5026169  25.8060246  27.5005054  82.1463928  25.1201630  27.3233776
  81.7449188  26.5200195  26.9108181  13.9354048  70.2623444  40.8597755
  13.4149342  69.4771271  41.0294189  13.6423588  70.5626907  39.9994583
  57.6701851  69.0860672  51.1333313  58.1805916  68.6570663  50.4465485
  57.6362953  70.0050964  50.8678856   2.3148494  32.6950912  40.4275093
   3.1281168  32.2538834  40.1822205   1.8888307  32.0912285  41.0358582
  84.4263000  43.7233391   3.0820994  85.1821060  44.1100769   3.5241628
  83.6749573  43.9981766   3.6076331  33.9709511  66.3664169  86.0420151
  33.0402946  66.1568298  86.1206284  33.9920998  67.3125839  85.8986435
  62.7998276  67.1384659  40.7544098  63.6281166  67.6129684  40.8252335
  62.6331978  67.0866470  39.8132515  47.6144257  -0.1747605  42.7149353
  47.8777161  -0.2823644  43.6289024  47.2647629   0.7151330  42.6695938
  66.8714600  15.1188087  81.8221970  67.4647217  14.3688173  81.8645248
  66.0324554  14.7455769  81.5520172  24.7619686  29.8031940  88.8923950
  25.5529518  29.3018684  88.6942825  24.1116085  29.1414261  89.1276093
  52.5141983  53.2343140  66.3998489  52.0472031  52.5545807  65.9139328
  52.1588478  53.1814919  67.2870712  58.0616226  67.0337677  73.1464310
  58.6131248  67.3117676  72.4151306  57.9272728  66.0970383  73.0025101
  70.0421677  34.8746033  56.7854309  69.7348785  35.1789856  57.6393394
  70.6555099  34.1685791  56.9893303  65.8228302  15.3070440  59.6197128
  65.5613785  15.9274597  58.9393005  65.4483719  15.6632986  60.4253807
  81.1512299  32.8150864  78.5931015  81.5055847  32.0623856  78.1196976
  80.2053986  32.7602310  78.4566269  23.7098942  31.7702160  25.6226749
  23.0619564  32.2444344  26.1437550  23.3036747  30.9207230  25.4506893
  32.3905563  69.9716568  14.0082502  32.3246040  69.4645996  14.8174314
  32.5186653  70.8740082  14.3008070  23.8661633   2.2958071   4.5088224
  23.1144009   2.6779687   4.9616327  24.0514545   1.4896590   4.9905114
  39.8294411  21.4907341  13.9399462  40.5590210  21.1678200  14.4687843
  40.0334244  21.2038326  13.0498285   9.5125427  10.8391962  58.8313408
  10.3680305  10.9665651  58.4212799   9.3170099   9.9122162  58.6945724
  66.0668030   4.2639356  85.4174118  66.2450409   3.8347256  84.5806046
  65.7752151   3.5562809  85.9922409  60.0584259  32.0783806  75.1414871
  60.1332321  31.1295509  75.2432480  60.1284065  32.2243462  74.1980743
  81.1325455  25.7034492  13.5357981  81.7494812  26.4351139  13.5188274
  81.2088928  25.3462563  14.4205666  25.5335808  57.6126480  12.2727346
  25.5445118  56.7168808  11.9355192  24.7292442  57.9920464  11.9187117
  78.4776459  39.9877014  77.6171341  79.0435333  39.7998734  78.3659439
  78.6536942  40.9050446  77.4080276  31.8968010  14.6677141  43.6974335
  31.7321796  15.4011574  44.2900467  32.7915039  14.3933792  43.8986359
   7.4781537  10.0820303   2.8470778   7.8585873  10.9480085   2.9939964
   7.9830289   9.7189445   2.1194093  26.7036209  23.2591362  86.8841324
  27.0991764  23.1206131  86.0235596  25.8411655  23.6285915  86.6946411
  10.0189991  49.4276009  46.5159607  10.3873224  49.3406868  45.6367493
  10.3281269  50.2802811  46.8219261  38.0634575   4.4110270  13.8419237
  38.4977150   4.9903574  13.2158022  37.1343079   4.6274090  13.7638674
  77.0746231  47.6138611  73.5407486  76.1369934  47.7982674  73.4852371
  77.3984299  47.7489700  72.6501694  14.6122427  47.2218628  81.5868759
  14.3567533  46.3283157  81.8160782  14.6444960  47.2238197  80.6302185
   6.4179592   2.6734123  26.9472046   6.9330850   3.4295301  26.6658459
   6.3676896   2.1156039  26.1709614  61.0054474  35.2828217  39.0836716
  60.8428726  35.4624557  40.0097008  60.3010788  34.6872444  38.8279686
  85.2623901  46.4050865  75.7069321  84.9767609  45.5759277  75.3233414
  86.2045517  46.4340630  75.5404205  30.6109447  40.2051468   9.0850649
  31.2707767  40.8925285   8.9936047  30.3479195  40.0045891   8.1868305
  27.6679916  63.4633026  86.7861938  28.2463665  62.7301292  86.9963684
  27.9274921  64.1551437  87.3946762  13.8483362  64.6775284  10.2396193
  13.9971285  63.7378387  10.3448601  12.9030561  64.7575378  10.1120453
  33.4241600  52.8656120  40.5718117  33.5458488  51.9187393  40.5021362
  34.2375069  53.1834183  40.9638519  61.1273766  17.1518154  21.3231354
  60.5390282  17.9068508  21.3228970  61.1401253  16.8578186  20.4122925
  16.3091869  54.4569969  50.8980408  16.3555145  53.8627853  50.1490402
  16.5606232  53.9175072  51.6476784  82.7568512  27.2607899  21.3532639
  82.6552658  27.0831757  22.2883377  82.3291626  28.1070690  21.2223721
  64.1200409  59.6429367  10.7837458  63.6623154  60.4644012  10.9623928
  64.5996857  59.8076591   9.9719353  65.1505356  61.4196930  15.8872690
  64.6961441  61.7640877  15.1184072  64.9315720  62.0324097  16.5893116
  56.7459183  54.9293060  27.7425766  57.0563316  54.0320549  27.8642826
  55.8301010  54.9056091  28.0199680  13.3675537  67.7208099  39.3225479
  14.3192949  67.7547836  39.4188118  13.0313015  67.9107666  40.1983795
  66.0110703   2.7223494   7.7641115  65.0624466   2.7757690   7.6479344
  66.3656158   2.8004711   6.8784332  70.7533798  15.1745214  63.7861633
  70.4371490  14.8507442  62.9427185  70.7845306  16.1254463  63.6812668
  85.6754150  16.9790382   0.7718835  86.5606308  16.7139568   0.5221904
  85.1219635  16.6721802   0.0537164  77.6471939  32.6897621   4.1698542
  77.8078461  32.0087128   3.5167103  77.5805054  32.2157211   4.9987526
  41.2527618   7.3194427   0.4266118  41.0565529   7.7734985  -0.3928812
  40.3959351   7.1546879   0.8202296  70.3044968  30.2439213  10.8787546
  70.9058533  30.6909161  11.4744062  70.2994614  29.3355751  11.1806040
  35.3922997  43.5893517  16.1555042  35.9175186  43.5114632  15.3590679
  35.2538261  44.5307007  16.2599831  53.7193909  57.3268242  52.7601204
  53.0396423  57.7974472  53.2425003  54.5301666  57.7859116  52.9794617
  32.2550888  47.4821930  34.5836716  31.4788265  47.7219772  34.0775604
  32.1257744  46.5581131  34.7971878  51.8083076  38.8413162  29.8102551
  50.9156227  39.0647163  29.5467472  51.7721825  38.7978020  30.7657814
  33.3988190  55.2717667  28.0708313  33.9170532  55.7893372  27.4545631
  33.8798141  55.3301277  28.8963413   3.4178123  34.1503906  35.9914780
   4.2099786  33.6357422  35.8370705   2.7048423  33.5137634  35.9403725
  24.0014210   2.6667221  28.3342781  24.4279003   3.3873465  27.8705444
  24.0441933   2.9171474  29.2571468  25.2450790  28.8831654  37.1593361
  24.5874519  29.4678669  36.7826653  26.0405827  29.4137516  37.2027473
  27.7361679   4.4292717  35.1778641  28.3388824   5.0189748  34.7248573
  27.8144436   4.6696968  36.1010666  27.7267246  47.3991585  70.3381729
  28.4955711  47.8123779  69.9452896  27.0688038  47.4074974  69.6429749
  50.5166092   1.0046086  56.7549477  49.6836357   1.2373565  56.3448105
  51.0100250   1.8245360  56.7771187  67.3219833  13.5618620  61.2024384
  66.8347168  12.8892784  61.6782837  66.6539154  14.0374441  60.7087402
  48.6756859   2.4590018  59.7091789  47.8663635   2.9123452  59.9452057
  49.3513069   3.1355045  59.7551308  66.8986588  62.5808220  41.2119980
  67.1482010  63.4782066  41.4326057  65.9846954  62.5116730  41.4878922
  27.0443802  47.6666069  78.3470535  26.9083080  46.8456306  78.8200378
  27.8000546  47.4966049  77.7846603  32.5150948  69.4585266   8.7514505
  31.8765125  68.9246216   8.2788124  32.3091736  69.3163376   9.6753607
   2.9301949  11.5486736  17.7419167   3.4105773  10.8210096  17.3469868
   2.2337205  11.7441597  17.1150665  17.8167171  63.8739166  64.8408890
  18.3756886  63.5317612  65.5385437  18.4255333  64.2783813  64.2228470
  75.7177963  18.7823219  89.2413864  76.3123779  18.1469173  89.6400986
  76.0009537  18.8353062  88.3285599   7.8802719  17.9865971  81.0821838
   8.2158232  17.1720543  81.4565582   7.3192706  18.3514957  81.7665558
  21.4188709  23.2134705  80.7170563  21.4039860  22.7841530  81.5724487
  20.9669418  24.0452995  80.8586655  46.0943680  23.5046043  75.4783325
  46.2197495  23.2329674  76.3875809  46.7186813  22.9753551  74.9819870
  74.3766403   5.9703693   4.4054184  74.0815277   5.4098587   3.6878066
  75.2778168   5.6932669   4.5707293  34.8843536  67.4236679  51.1138306
  34.4910774  68.2622681  50.8723450  34.1728745  66.7900314  51.0214729
  79.2605286  54.8734398  11.1056871  80.1897888  54.7851028  11.3176012
  79.0469437  55.7773285  11.3371954  63.5459404   5.6013956  18.1216335
  63.4085312   4.7511740  18.5393333  64.3025284   5.9719958  18.5760098
  26.6221046  38.0748367  29.7283154  26.9778919  38.2818413  30.5924892
  25.6996117  38.3243256  29.7830563  71.5419006  71.1761093  51.2836342
  71.1321030  70.3456573  51.5257988  71.5083466  71.7017899  52.0828590
  68.1837921  47.1851959  62.6846275  67.8376770  47.2044373  63.5768547
  67.5704346  46.6313171  62.2016830  46.4580383  35.9252129  47.8551216
  46.4916649  35.1716461  48.4443932  46.9361687  36.6130028  48.3183365
  85.4904175  43.5939674  75.2562103  84.8770981  43.1280060  74.6879196
  86.2994461  43.0851059  75.2037277  79.7047348  33.8991165  24.6958008
  79.2789001  33.0418663  24.7001991  79.4366074  34.2954941  23.8668098
  31.9339752  53.7140388  25.1561108  32.8826218  53.5931778  25.1149025
  31.6707516  53.8549538  24.2466679  13.6011572  20.3437862  24.5350208
  14.1815729  20.3637466  23.7741318  12.8377829  20.8555393  24.2674408
  12.8359451  65.1382065  28.7088051  13.7147856  65.1744080  29.0863800
  12.2614803  64.9672470  29.4551239  81.0797195  34.0724831  63.7787933
  81.6429672  33.3940773  63.4063072  81.6043472  34.8717346  63.7319183
  54.1743011  50.4336967  74.0869827  55.1038818  50.6273689  73.9661331
  53.7751198  50.6382637  73.2413864  64.4256973  63.4771614  56.3099442
  64.3880692  63.1781006  57.2184486  63.9071808  62.8352661  55.8248215
  85.7727127  35.6806602  40.3612289  85.8235703  36.6116524  40.5777855
  86.5404282  35.5200958  39.8125343  65.5232239  43.4732780  40.9945374
  66.4764099  43.5550766  41.0257721  65.2052994  44.1449547  41.5978661
  26.2037792  38.7692070  85.2333984  26.4317322  39.6531334  84.9454041
  25.5773888  38.9031258  85.9446869  61.5926895  16.0623703  57.6858711
  61.1828156  15.6873312  56.9063950  60.9719772  16.7258224  57.9871674
  44.5179710   1.8894130  29.9529324  45.4238853   1.9578180  30.2543869
  44.0814133   1.3641219  30.6235409  60.4719238  15.9171419  35.1983185
  59.6385269  15.6557474  35.5899239  61.0975571  15.8836803  35.9219856
  55.2032013  31.6034126  50.6854057  55.1457520  30.6790047  50.4437408
  54.3295746  31.8206787  51.0106888  26.8484001  57.8391571  63.2711983
  26.7300701  56.8979607  63.3991699  27.7255058  57.9215698  62.8968658
  76.6299820  19.0983124  41.3787766  76.7654572  20.0412788  41.2855377
  76.1777725  19.0030384  42.2170258  76.0450211  49.7437553  87.3177490
  75.4121094  49.8309441  88.0305252  75.5720901  49.2690239  86.6342316
  29.3005466  60.1138115  29.8970737  29.2862492  59.1593399  29.9678860
  29.9135094  60.3952141  30.5762806  34.7977104  43.7639389  33.9504852
  35.0948524  42.8683662  34.1113815  34.8627739  44.1946526  34.8028259
  24.4632893  24.4703655  85.8579102  24.6741524  24.8523178  85.0059280
  23.7597618  25.0218811  86.2001343  63.7767334  32.8270264  23.6556644
  63.3822174  33.3283005  22.9420033  64.3054428  32.1607323  23.2166309
  50.0742798   8.6349697  16.5726490  50.4468307   9.3496580  17.0890388
  50.8131714   8.0499392  16.4052906  20.0409622  21.5979328  20.4102154
  19.4430122  21.0235901  20.8885670  20.6529446  21.9136887  21.0750542
  74.5872421   1.1925946  14.9726315  74.2370682   0.4543615  15.4712496
  74.8765869   0.8072791  14.1455631  69.9146881  51.6867638  53.2710075
  70.8465195  51.5322456  53.4260635  69.8291855  52.6400261  53.2562828
  40.8804054  16.3880672   3.3668921  41.4355011  16.7745228   4.0442057
  40.7179985  17.1042118   2.7528956   6.0728116   9.9020071   8.6251011
   6.3718400  10.6883001   8.1684198   5.7972560  10.2155323   9.4864969
   1.3797027   7.8770986   2.0979869   1.4234025   7.0728183   2.6151478
   1.6026292   7.6023602   1.2085747  49.6471405  16.3416595   8.2446833
  50.5413628  16.0013294   8.2169638  49.6947823  17.1781826   7.7818737
  20.4928017  61.1539726  45.2868233  20.1853752  60.2653313  45.1078300
  20.1165180  61.3702927  46.1399651  82.6475830  44.7880859   5.1020689
  82.1912537  44.0169296   5.4386868  82.0379791  45.1706467   4.4709926
  54.5044403  23.3878803  54.7861252  54.3899727  22.7885876  55.5236740
  54.7878723  22.8273640  54.0638237  61.3459435   5.2260489  67.9437256
  61.4027710   5.8252354  67.1994247  60.4178047   5.2221751  68.1777649
  32.2449570   2.2752943  14.1491785  31.8809547   1.8395237  13.3785706
  31.8213062   3.1335480  14.1614676  32.4472733  62.7468872   6.0597210
  31.7481308  62.1893349   6.4011450  33.2175255  62.1790161   6.0381660
  36.2607269  47.5244751  48.7977753  36.8093948  47.4033699  48.0228386
  36.1065712  48.4683685  48.8369637  65.6313705  42.6242561  85.2215805
  65.2963943  41.7880478  85.5452652  66.3178024  42.8643761  85.8439865
   8.9840908  35.9634628  80.3767624   9.2404737  35.0981369  80.0578537
   9.1037645  35.9143257  81.3251801  24.4826660  66.7984619  82.6962585
  23.5571804  66.9235764  82.9061508  24.9304523  66.8633041  83.5397720
  34.6137733  56.7223969  73.9398727  34.8283615  56.1358490  74.6652298
  35.4022827  56.7307205  73.3972702  51.3071404  58.7828178  35.6155663
  51.7218361  59.5543518  35.2295685  50.5148811  59.1205101  36.0333252
  26.5714035  19.7000790  74.5464020  27.1629372  20.4311981  74.3681259
  25.9650517  20.0378189  75.2055664   6.4676070  64.2022705  65.9475479
   5.7843580  64.3368454  66.6042786   6.8794107  63.3748055  66.1964569
  85.3076324  38.8881645  38.5040474  85.6915741  39.5260620  37.9024658
  84.9686737  38.1966629  37.9355659  64.5730286  67.2687683  23.0594921
  64.8430252  67.6226273  22.2120743  64.6217575  66.3192062  22.9490433
  61.5835342  70.4351730  43.1627197  60.9393196  69.7474670  42.9945450
  61.1452560  71.2438736  42.8978729   2.5641034  39.6654205  51.9448891
   3.3951766  39.9484596  51.5635262   1.9414992  40.3486671  51.6963501
  60.4979858  31.9888611   7.2290573  61.3151741  31.4984188   7.3179440
  60.0162849  31.7996349   8.0342855  37.2090874  47.8836060  23.6649094
  37.1074524  48.5008469  22.9403992  36.9241791  47.0434265  23.3055248
  57.1813698  44.1508102  77.7722855  57.1848259  43.9591217  78.7100830
  56.2621994  44.0758820  77.5158844  22.7056446  43.1998711  88.3560944
  22.3693695  42.6018295  89.0235443  23.5756378  43.4453468  88.6708679
  36.3754539  61.9920425  55.1309471  36.1591949  62.9190903  55.0306931
  35.9418640  61.5637703  54.3928299   3.7639775  35.1052055  31.1559925
   3.8804626  36.0363655  30.9673004   4.1787286  34.6576614  30.4184837
  82.6557312  21.6320229  73.6003723  82.6649857  20.8803596  73.0077972
  81.7544937  21.9527073  73.5664139  66.7087708  38.7346077  61.7126427
  66.9416428  39.0934105  60.8563347  65.7758331  38.5324745  61.6419716
  28.1147995   1.3906409  58.1928406  28.7715187   1.5940132  57.5268135
  27.8806400   2.2405677  58.5657043  47.6494904  40.9874115   0.7550241
  46.8822746  41.5506210   0.6530055  47.3504028  40.1222534   0.4752358
  26.2674332  11.2295876  75.7134171  26.2630882  10.3247938  75.4010696
  27.1592617  11.3686924  76.0320511  12.7670918  19.2947922   0.7966008
  12.8946915  19.0973358  -0.1312792  13.1856203  18.5668583   1.2561424
  12.0192070  33.8420830  24.5525932  12.5100994  33.2037125  25.0700283
  12.6847429  34.2891769  24.0297184  15.5869274  50.9622116  74.3051376
  15.4478445  51.7077103  74.8891907  15.2771397  50.2061920  74.8038330
  55.3282738  27.9885292  87.7515717  55.9558144  28.5867481  87.3459091
  54.5876198  28.5452194  87.9918976   6.2147923   2.0352480   8.2803364
   6.3530917   2.4389122   9.1371679   6.2143002   2.7699113   7.6667390
   5.9651923  28.9670105  10.6181488   6.4658537  28.1711998  10.4385433
   6.0584645  29.1009064  11.5613375  42.9075623  63.5245781  56.3064613
  42.9845848  64.4223557  55.9835167  42.4030724  63.0698662  55.6319542
  66.5852509  45.9197845  71.3749161  66.7252579  45.5240326  70.5146790
  66.3711395  45.1820374  71.9459839  80.5335693  25.8976688  53.9503746
  80.4075089  25.3312454  53.1891212  81.3955231  26.2915421  53.8157387
  12.1547260  53.1685600  41.9865150  11.7186508  52.3218040  41.8912544
  11.4389133  53.8012428  42.0461273   1.8073025  65.6317978  81.7981720
   1.8663059  64.7427521  81.4483871   2.0932705  66.1924057  81.0769424
  24.2401600  66.2306290  89.3409882  24.7690792  65.7416382  88.7106171
  24.5299435  67.1377563  89.2441483   1.8616589  34.7600861  87.1821213
   2.2532825  34.9122238  86.3220520   1.7296758  35.6365204  87.5436172
  20.9740868  10.4527864  25.6130962  21.4160023   9.6899118  25.9858780
  20.9458790  11.0870237  26.3294601  73.6865463   5.8420081  27.9005871
  74.1869202   5.3276119  27.2671356  72.9402161   5.2860384  28.1244526
  84.6384811  36.0443573  33.7682228  83.9377899  35.5137520  34.1473312
  84.9303513  35.5457382  33.0050583  35.5244370  50.7890739  39.2081299
  35.5148010  50.4372902  38.3179665  36.3766556  50.5302048  39.5587578
  66.1489487  23.1227512  66.7162247  66.1250534  23.9336834  67.2242126
  66.2440033  22.4320240  67.3720398  67.5253372  53.5590897   0.3525905
  68.0104752  54.3838158   0.3790921  68.0750885  52.9744835  -0.1691788
   3.8181729  46.9145393   2.9879911   4.3067665  46.1022224   2.8551450
   4.2253442  47.3161469   3.7555542  70.5340500   2.7147441  12.7962179
  70.4094772   3.4777870  12.2318792  69.6680145   2.5480928  13.1683035
  14.6894712  49.6069527  37.1697540  14.3773804  48.8155479  36.7309952
  15.6398888  49.5835571  37.0584373  30.9540825  49.9458923   3.1181912
  31.3979816  50.7761040   3.2912147  30.0791359  50.0602493   3.4891701
  32.3594589  28.2131405  15.9143534  31.6414204  27.9969025  16.5092411
  32.8592606  28.8858910  16.3767776  57.8094177  30.5290089  20.7153149
  57.0004959  30.0758476  20.4775810  58.3955879  29.8328934  21.0120621
  11.1507597  69.7124023  22.0454292  11.6008148  69.4566650  21.2402706
  11.7985001  69.5735016  22.7363491  20.3253994   2.3139098  81.3468246
  20.3699551   2.9848762  82.0280380  20.5092831   2.7850816  80.5341644
  53.5117416  31.3594322  39.7821426  53.9463921  32.1486511  40.1053238
  54.1560555  30.9507999  39.2041168  25.0074501  65.5467834   8.6291056
  24.5901470  66.2635574   9.1069450  24.2797470  65.0668945   8.2336502
  69.5443954   9.1219091  37.4104958  68.6451569   9.1954889  37.0908203
  70.0616226   9.6369457  36.7912674  73.2533264  67.8151093  15.3691082
  72.8486710  67.1168060  15.8837557  74.0869064  67.4456635  15.0777683
   7.0579228  43.8052101   5.9990153   7.4486465  43.2861977   6.7020040
   6.9378328  44.6744576   6.3813996   1.6090018  49.0560074  78.8266754
   2.3516834  49.3952599  79.3262405   1.9506137  48.2759132  78.3896561
  20.3496342  54.9672241  17.5032520  19.7349739  55.6866493  17.3588543
  21.2136974  55.3745346  17.4422169  59.0788879  49.6791382   9.5864153
  58.7306633  49.8657875   8.7145596  58.3027840  49.5661201  10.1351585
  57.6274490  37.5967941  30.0457878  57.5921631  38.4540977  29.6215038
  58.4040909  37.1778183  29.6749573  38.0629082  53.4698029  54.1485596
  38.4576492  54.2592125  54.5190201  37.4802437  53.1479416  54.8364143
  47.2685661  55.4015617  84.7648010  47.7066765  55.7055664  83.9699020
  46.3358727  55.5175743  84.5835266  78.0940399  19.9748440  61.7885246
  78.7325211  19.3375301  62.1085320  77.5325775  20.1511402  62.5434494
  33.0387497  45.8008919  77.1744156  33.2223396  45.1311111  77.8331451
  32.0876579  45.7785873  77.0687790  82.6853867   5.4808326  45.9727516
  83.4808807   5.8653293  46.3409691  82.2719498   5.0330772  46.7108650
  14.4387770  67.5714569   4.8732829  14.9251862  67.2632446   5.6379032
  15.0271425  68.1977615   4.4516172  78.8674927  14.0046759  80.1878128
  78.4993515  14.8545885  79.9462585  78.2618790  13.6589613  80.8435135
  47.7058716  44.0541534   5.5159602  47.1944389  43.9195976   4.7181110
  47.0839348  43.9023972   6.2275739  13.1947966  24.7204609  20.4705334
  12.9622469  23.8466187  20.7844620  13.8557320  25.0295162  21.0901146
  52.5214844   4.7218876   5.2031965  52.4281845   5.6686163   5.3091788
  53.4523468   4.5549140   5.3510056   2.5662560  71.3499298   0.8505373
   2.6505179  70.3975372   0.8961545   1.6288548  71.5127411   0.9554346
  50.2386131  64.4190750  77.0747528  50.8810997  65.0114594  76.6842117
  49.3929825  64.7487793  76.7707291  14.5798302  52.9855080  76.5845490
  14.1736956  53.7517891  76.9896393  15.4710579  52.9741707  76.9335709
   3.6951752  26.5195084  84.3554230   4.5467105  26.5595589  84.7907639
   3.8869684  26.7063789  83.4364471  36.3560104  60.8997841  76.4131088
  36.4903831  59.9748802  76.2063904  37.2361107  61.2761459  76.4103088
  12.3851328  44.3231468  58.3988953  11.6667929  44.4257965  59.0231400
  12.0791140  43.6509438  57.7900238  44.4960442  31.5596447  68.5907822
  43.6723671  31.1317177  68.3569794  44.9311371  31.7158604  67.7526169
  72.7988129  50.0955849  75.6275330  73.1794205  49.2349968  75.4521561
  72.6210632  50.4600639  74.7604675   3.4701867  64.2481689  36.9270630
   2.8475621  63.9986496  36.2441940   4.1460352  64.7443542  36.4652672
  85.1426468  13.9094391  25.7255936  84.2016220  13.7653761  25.6258469
  85.5092316  13.0317907  25.8332195  66.7866135  49.4159126  38.0794373
  66.3213120  49.9817276  37.4633331  67.3727188  48.8949814  37.5304909
   6.3334985  47.5604439  69.0463181   7.0795345  47.1060104  69.4376678
   6.5767651  47.6729622  68.1274109  37.8436050  67.8662338  38.1123428
  37.7151604  68.7471008  38.4642067  38.4174423  67.4363327  38.7464828
   3.0160980   4.3200717  35.3308372   2.8624947   3.4415507  34.9832191
   2.7023709   4.2784367  36.2342072  76.6465683   7.2763257  18.5655422
  76.0963135   7.9353495  18.1422863  76.4516907   6.4647589  18.0969124
  29.8586521  69.9504395  42.7148247  30.5825367  70.5017776  42.4177551
  30.2829170  69.2211685  43.1669235  39.0688210  45.0346222   6.5204415
  39.5248108  44.5234604   7.1890349  39.7660294  45.3610802   5.9516225
  28.9095230  16.8043137  81.7018509  28.3319759  17.0986900  82.4061356
  29.6819134  17.3648777  81.7754211  68.5917587  12.9832096  81.6128998
  68.6132965  12.0424767  81.4374313  69.1071014  13.0895691  82.4124908
  58.2734604  55.1026154  38.1875801  57.9833183  54.3432541  37.6821861
  57.7237511  55.0930710  38.9711342  57.1814194  27.8803196  52.8586578
  56.8116570  28.7611847  52.7987938  56.4627342  27.3407650  53.1882095
  22.6398411  45.4619789   2.9008162  21.9867821  45.8887939   3.4554076
  22.2621861  45.4893036   2.0216908  25.5049629   9.2878208  31.0049572
  25.6656799  10.1758890  30.6859951  25.1070518   9.4111977  31.8667431
   5.9717093  21.6277008  31.1458759   6.7485971  22.1864033  31.1228561
   5.3038816  22.1636143  31.5737019  37.3417168  70.0138931   4.6805353
  37.7055321  69.1488495   4.4919310  36.4537392  69.8376617   4.9914570
  81.7293396  18.5253487  87.3443451  82.6473999  18.5363159  87.6150513
  81.5692139  17.6202488  87.0771713  74.6287003  16.0749779  45.6977310
  74.6012878  16.0624599  44.7410049  75.3473434  15.4847565  45.9244919
  68.6795425  56.2618027  69.2999191  68.7933044  55.5809860  69.9630737
  68.5910645  57.0722809  69.8014450  40.4091759  71.6470947  66.3279266
  39.7942467  71.1049042  65.8338394  40.1971092  71.4745102  67.2452469
  31.5922356   2.6193843  81.2978134  31.3083820   2.8052940  80.4027710
  30.8714542   2.1174412  81.6782837  66.7500610  16.3072033  69.8904572
  66.7592316  15.7478809  69.1137314  67.4322586  15.9440184  70.4552078
  59.9818306  52.6932564  61.9672470  59.8460541  52.1040955  61.2251625
  60.8917770  52.9782372  61.8834457   9.5239964   2.0956848  11.0233307
  10.3088179   2.3376057  11.5150232   8.9592209   2.8664825  11.0792913
  32.7800941  10.2234745   5.4506497  32.0749855   9.7153625   5.0495520
  32.6073151  11.1260004   5.1826444  79.4724808  43.3351250  82.7437134
  79.9287796  42.5100060  82.9086380  80.0660553  43.8279953  82.1771698
  81.2538910  32.0105858  67.4585419  81.1319504  31.8863087  66.5173111
  80.7980042  31.2702579  67.8589249  73.1923599  43.2830124  29.2234478
  72.5347137  43.8567696  28.8303261  72.8903427  43.1532173  30.1224308
  47.5977554  59.7583466  59.3961983  48.0463753  60.0026512  58.5867004
  47.9745903  58.9107590  59.6324539  64.0911255  47.3565063  52.6537743
  63.4846725  48.0376472  52.3630905  63.6307335  46.9144363  53.3671074
  62.6642761   1.7451429  84.2522125  62.1867485   1.2988065  83.5529327
  63.0279808   2.5253878  83.8336792   9.2949772  53.8034363  76.0145035
   8.7311687  53.4703369  75.3163681   8.6873798  54.1433525  76.6714020
  26.4114914  54.5478935  58.7553635  27.0867653  53.9810524  59.1280899
  26.8190289  54.9252167  57.9757652  63.8542213  68.4534912  33.5829010
  63.2081833  69.1391830  33.4134979  63.4534607  67.9089584  34.2604752
  84.9492340  35.2309990  88.2575455  84.9921494  35.7926483  87.4836349
  84.3344879  35.6748238  88.8417892  75.5152359   2.7958529   1.4895315
  74.9647751   2.0158052   1.5583993  76.1758194   2.6839542   2.1731596
  61.1567688  54.0854836  15.6334743  61.1582565  55.0425491  15.6175556
  62.0798302  53.8458710  15.7157679  15.2717066  59.0449715  54.2294312
  14.4798727  59.3198013  53.7671547  15.6129980  59.8498192  54.6192703
  62.7101021  28.9268131  40.3550949  62.6252365  28.0287056  40.6751518
  62.0026665  29.0216465  39.7173080  57.5555382  36.4846725   5.5870018
  57.3711357  36.1560783   6.4669180  57.1657715  37.3587837   5.5711970
  77.1026077  32.2755623  42.3304520  77.6563492  32.6861610  41.6663628
  76.2159042  32.3390121  41.9755440  77.8703003  69.6921463  52.8228035
  77.3390579  69.0402298  52.3656082  77.6683350  69.5588989  53.7489204
  34.4354935  44.3244095  53.5375214  35.3561935  44.1199837  53.3739510
  34.0706902  44.4973259  52.6696205  60.6199493  22.2551365  88.6426239
  60.6052628  22.5737820  87.7401428  60.4803162  23.0380383  89.1753540
  55.7263184   1.4031230  43.2608566  55.0082359   0.7922249  43.0953407
  55.2947426   2.2424912  43.4203453  55.5080414  34.3229561  28.2361660
  56.2941971  33.8805237  27.9160976  55.7428436  34.6231499  29.1142216
  36.6673584  20.9306965  85.3431702  35.8082962  21.2306442  85.0460587
  36.8916321  21.5211411  86.0624084  15.0007639  43.7518959  54.1171074
  14.8464689  43.9270706  53.1888084  14.5295486  42.9365425  54.2885361
  55.1020927  71.6257629  55.6616707  55.3631401  72.3699265  55.1191635
  55.8009262  70.9832230  55.5391579  85.1798477  16.1359005  57.1951294
  85.9812927  16.2560196  57.7045326  85.4804993  15.7966747  56.3520584
  80.6535568  49.9154739  70.7865067  81.1835785  49.5536995  70.0762787
  79.9144135  50.3335228  70.3447647   8.3088503  47.9117546  18.4337997
   9.0802460  47.8361511  18.9954605   7.6229954  47.4374123  18.9037304
  46.5304642  64.5865173  67.1088715  46.4234200  65.0290680  67.9508438
  46.3242645  63.6699333  67.2921295  21.6611233  37.7871819  73.2853088
  21.9225559  37.3504257  72.4746780  21.9571171  37.1993179  73.9803162
  36.6705933  57.0212593  83.7929153  35.9208755  56.6495285  83.3281860
  36.3042336  57.7492332  84.2949753  23.8820267  23.0636768   4.4936337
  23.5842113  22.1573009   4.5712247  23.3434963  23.5471935   5.1200733
   0.6380149  66.1002579  51.2789917   0.5762259  65.7583847  50.3870621
  -0.1969773  65.8655090  51.6838531  53.5855980  61.2943459  27.0912781
  53.7138863  61.1063843  26.1615219  52.6460304  61.4567261  27.1753922
  57.3717651  10.5118818  33.1711121  57.2124443  11.4332314  32.9662628
  57.0810738  10.0393553  32.3910789  61.6191139  13.5832043  44.5504799
  61.2467613  13.3236446  45.3932228  60.9456863  14.1332951  44.1503220
  82.2763062  45.6975594  65.8373413  81.4881210  45.9539948  66.3161240
  82.0574875  45.8479691  64.9177094  19.6880226  47.7156754  66.1674957
  20.1111031  47.4255486  65.3593750  20.2159805  48.4581947  66.4610214
  85.2752533  60.9249001  87.7496109  84.9058990  61.1603050  88.6007233
  84.6491852  61.2700310  87.1130905  62.7667580  20.6474342   6.9171023
  63.0334702  20.3674889   7.7927313  61.9551811  21.1349049   7.0583296
  57.5367470  18.9449787   6.9403658  57.7728653  19.6847496   7.5000262
  56.9978104  19.3299160   6.2492795  55.5844879  60.1481056  85.3915024
  55.2780151  59.4873772  86.0125885  55.0763626  60.9308739  85.6043701
  18.4617081  44.0440788   4.9275308  18.8506927  44.2497635   4.0774632
  18.6282864  44.8209000   5.4614148  58.9770126  18.4496002  77.8698044
  58.3994255  19.0528278  77.4020996  59.8036995  18.9250183  77.9522552
   4.6585927  70.9727173  23.1150169   4.8683138  70.0642853  22.8982334
   3.8453734  70.9175873  23.6168804  16.2706051  44.7152824  65.3170166
  15.7274332  44.0672913  65.7656860  15.7577171  45.5227509  65.3513031
  61.2832413  22.9991570  67.1250305  61.8292770  22.5569115  66.4750366
  60.4539948  22.5214272  67.1061630  53.2712517   8.2765093  68.9858398
  53.9054832   8.7793226  68.4747925  52.4677658   8.7953415  68.9477539
  27.8772640   0.5613705  54.0969658  27.5065613   0.2017459  53.2910614
  27.7527599  -0.1299471  54.7472038  44.2083092  43.6323967  32.6381912
  44.4600220  44.5224571  32.3918724  44.3388557  43.6001701  33.5858994
  78.8309174  41.2256355  69.4194031  79.4226837  41.7194061  69.9870529
  79.0645523  40.3094978  69.5688705  56.6739120  57.9637299  -0.0859564
  56.1203270  57.4751396   0.5231858  57.5647583  57.6807365   0.1202860
   0.9549927  11.2738504  62.6915245   0.1140417  11.7260046  62.6237755
   1.6048135  11.9433546  62.4776802   3.0845716  60.0306664  82.0813141
   3.0787628  59.2461090  81.5329742   2.1625252  60.2758827  82.1583252
  64.0810699  56.4300537  44.0552406  64.1831436  55.4922371  43.8930206
  64.5088196  56.8501434  43.3090591   5.0991631  55.1441345  80.0219879
   4.5680952  55.1609879  79.2257996   5.9347830  55.5310860  79.7607574
  71.0806732  23.0914974  74.7384109  70.3765411  23.2228012  75.3733826
  70.9375687  22.2070293  74.4015579  61.6689720  10.3499165  88.8607635
  61.2705078   9.9206591  89.6178665  62.1874542  11.0623350  89.2347565
  56.9052963  34.5657883   0.8477907  57.8436165  34.7527161   0.8187143
  56.8046761  33.9584045   1.5807247   1.3187445  40.3681870  64.5503769
   1.2624692  40.2463837  63.6026268   1.1940342  41.3084946  64.6788330
  40.8870125  61.0630569  15.7441635  40.2312584  61.7598381  15.7175274
  40.3954697  60.2641411  15.5535088  45.4794426   3.7888498   4.4521828
  45.8885040   3.8751409   3.5911055  45.5059433   4.6723452   4.8195586
  19.3402405  41.6533089  75.1567307  18.7884045  40.8798676  75.0405426
  18.7725201  42.3891792  74.9277725  86.2481842  55.4370117  89.3128128
  85.4273224  55.8704109  89.0791626  86.8851471  56.1486855  89.3763351
  68.8003693  24.7443180  64.9995804  69.1684570  25.0970573  65.8097153
  67.8611374  24.6784801  65.1720047   6.6833782  70.9318237  10.6657429
   6.1100740  71.5251160  11.1510925   6.0858674  70.3214417  10.2337160
  42.9370308   3.1324415  15.7237959  42.5867958   4.0211787  15.6628618
  43.8650513   3.2539504  15.9244118   6.4791203  62.2279015  11.9276829
   7.1894898  61.7709274  11.4773674   5.7442079  61.6152649  11.8991642
  61.0594978  37.1620445  61.2930603  60.3338699  36.9561462  61.8823853
  61.2956314  36.3213272  60.9010582  76.4952393  19.2492085  59.7706566
  77.0521622  19.4842758  60.5128288  75.6114273  19.4893894  60.0488892
  24.5146999  43.5407524  75.5810699  24.0743561  42.9154472  76.1566772
  25.1729755  43.9564438  76.1379395  66.3464966  63.1815491  80.7161102
  66.1650467  63.8067551  81.4178391  67.2459564  62.8960304  80.8763580
  18.0434380   2.8268278  61.6015549  17.1130219   2.9212236  61.3974762
  18.4935799   3.1318040  60.8137779  56.0052795  67.0301437  48.7257652
  55.9686584  67.8706207  48.2691574  55.6763992  67.2203445  49.6043396
  50.9826241  29.0087261   6.9820418  50.8361626  29.5069675   6.1779671
  51.3579941  29.6435928   7.5921841  71.4614258  23.8573704  21.6731339
  71.1115494  23.2505817  22.3255348  71.3658600  23.3950348  20.8404617
  48.5714645  31.7899551  19.7613811  49.0248528  32.0765572  18.9685802
  48.3575592  32.6015320  20.2216187  58.9657326  33.0240974  58.8153305
  58.5987167  33.6327057  58.1741409  59.2902298  32.2914467  58.2917290
  13.3313599  56.5656319  43.5331535  13.9169025  56.6554680  44.2850189
  12.7523193  55.8398399  43.7659035  81.1394119  60.0531197  63.0526962
  81.4912033  59.4804993  63.7342987  81.8983612  60.5431290  62.7362900
   9.5785904  66.7226868  10.1218538   9.9608650  66.5769882  10.9872255
  10.0278444  67.4997482   9.7893047  45.7747917  50.2546387  25.4861164
  45.7573814  51.2101746  25.5397701  46.7001266  50.0379868  25.3718681
  41.9229126  34.1070480   5.9557614  41.2078133  34.7150078   6.1434975
  41.6225319  33.6119957   5.1935740  27.2507439  14.8530893  25.1582928
  26.7435131  15.5636654  24.7658272  26.6950455  14.5239773  25.8647747
  42.5694580  38.0784416  25.6175041  42.5319252  38.2855148  24.6837234
  43.4947014  38.1682243  25.8457451  22.5949059  71.2656097  47.0565567
  22.7073879  70.3904343  46.6855583  23.3935776  71.7335358  46.8128319
  48.3644981  25.0041790  30.8730888  48.2529907  24.7810974  29.9489498
  49.2436218  25.3793163  30.9245396  77.3213272  29.4445953  74.0269318
  76.4330368  29.4184418  74.3825684  77.8384171  29.8782616  74.7057419
   8.7321014  62.9480820  32.0976334   8.1546021  62.2714424  31.7442417
   8.6774197  62.8378029  33.0468864  62.6076317  22.3984051  80.8640900
  62.9670563  23.2005882  80.4852142  61.6629143  22.4719524  80.7286987
  54.6190186  53.5203362   3.6988783  54.7570457  52.8845329   2.9967861
  53.6720161  53.5214844   3.8382061  52.0014915  35.6340294  82.7518311
  51.1747704  35.2519226  83.0463715  51.8767967  36.5781593  82.8482971
  48.5037384  47.0192795   3.4856489  48.3297043  46.1157417   3.2218912
  47.8123169  47.5293503   3.0637553  56.4373856  16.7232494  48.9052811
  55.7897415  17.3661594  48.6163940  56.1608238  16.4857502  49.7903481
  59.7040138  38.6858292  17.6230335  59.7982254  39.6276550  17.4804649
  60.3783531  38.2912445  17.0700436  75.4889297  69.5900345   0.5996413
  76.0100403  69.2342072  -0.1201245  76.0202789  69.4334488   1.3802692
  45.6235619  32.5246277  66.2547073  45.9051628  33.2252541  66.8429718
  46.4387398  32.1317596  65.9426651   6.6545768  38.1931763  56.1744308
   7.5617781  38.3363380  55.9047585   6.6876769  37.4060173  56.7180481
  58.8912926  11.2508879  13.5678473  59.1857643  10.3591166  13.3827505
  58.7885017  11.6530533  12.7053337  23.8772621  60.5940933  56.0003471
  23.8283501  61.0972481  55.1875267  24.0835571  61.2439003  56.6722298
  24.1266708   1.8293827  48.2332726  24.2187023   1.5951004  49.1567841
  23.4720383   2.5277042  48.2274132  81.3184128  17.3990040  12.6101389
  80.4174423  17.3209820  12.9238348  81.6181030  16.4949036  12.5151758
  55.4361877  69.0475388  59.3326988  54.6388283  68.6546249  59.6877594
  55.2303619  69.9791718  59.2557297  74.9788742  55.9020691  66.8389969
  75.6080399  56.6227493  66.8074188  74.9909134  55.5347176  65.9551773
  67.8965378   7.5512319  23.4709549  68.7528915   7.2290816  23.7522106
  68.0822220   8.0775862  22.6933289  46.7959747  10.1964436  68.2558136
  46.3158875   9.7032757  67.5905762  47.0013618  11.0306673  67.8337708
  63.1767731  57.0177689  86.5554199  63.8215866  56.5798759  87.1110229
  63.2979660  56.6237068  85.6915588  50.6484032  69.1481857  76.1029968
  50.4776039  69.1932678  75.1622391  50.0382233  69.7774506  76.4876328
  11.3159409  64.4581680  21.6443939  11.9389515  64.9601974  22.1698017
  11.6871548  64.4641876  20.7621269  47.9179153  69.7310257  24.8391342
  47.1063271  70.0665741  25.2198715  47.6948738  68.8503342  24.5377026
  16.9661045  47.7584648  67.4986343  17.8699780  47.8577766  67.1996613
  16.8657627  48.4209747  68.1821823  13.9630518  36.2787895  74.4262009
  14.7768879  36.7781487  74.4936218  13.5958805  36.2987709  75.3099518
  85.7086868  67.4047775  54.7521172  84.8863831  67.3789597  54.2628517
  85.4436035  67.3403244  55.6696205  86.2627945  54.0068779  80.3676834
  85.4380798  53.9286690  80.8472290  86.1058426  53.5446587  79.5443039
  85.7869034  66.0415802  45.4917870  86.4781113  66.0653152  44.8300476
  85.4887924  66.9486618  45.5593796  13.5107746  64.2728577  35.4559937
  13.8531952  63.4588356  35.8252449  13.4546423  64.8694687  36.2024117
  67.8735199  36.2343712  24.2417889  68.3574829  35.5022507  24.6239052
  66.9530792  36.0125580  24.3826046  45.1784439  10.8015318  44.0853195
  44.4975014  10.2755394  43.6659393  45.5546188  11.3184261  43.3728981
  66.0007477  24.3031349  62.1426964  66.5943451  24.1536312  61.4068146
  65.1921005  23.8560848  61.8927650  67.8965454  65.9408569  71.2355423
  67.6062164  66.0985336  70.3371658  68.2968750  66.7670670  71.5063705
  41.4165802  13.1085892  73.0324020  41.5596581  13.8915377  73.5641479
  42.1829224  12.5606499  73.2018433  22.3107738  55.2459488  66.8171844
  22.9595280  55.6009407  66.2094574  22.5960522  55.5523834  67.6779709
  35.9878540   0.3506514  35.8862267  35.4304047   1.0476774  35.5403404
  35.3917732  -0.2067477  36.3864555  16.4090214  62.1861610  66.9910736
  16.7957134  61.8592949  66.1787567  15.9454803  61.4323616  67.3559647
   2.7263663  39.3569603  -0.1020334   2.2998917  40.0145187   0.4474829
   3.3242347  38.9010239   0.4903412  49.8444366  66.1007767  52.7042351
  49.2762794  65.3372116  52.6022644  50.5295067  65.8108368  53.3066025
  43.9570618  51.7256050  12.0886641  43.1975632  51.5173454  11.5445833
  44.1643600  52.6347809  11.8726530  62.7464218  19.0884209  14.0763311
  62.7843246  19.5476761  14.9153070  62.5082741  18.1901073  14.3055649
  44.9320107  -0.0814226  52.4117126  45.1559753  -0.2729580  53.3224182
  44.9122238   0.8744748  52.3658791  36.8599930  32.9834824  84.9852448
  37.1363754  32.8216896  84.0832138  35.9505615  32.6862679  85.0140686
  66.9150391  54.2156525  15.8537998  66.7577057  55.0304260  16.3308983
  67.0878448  53.5676918  16.5368195  71.7744675  44.8241997  43.9562759
  72.0747299  45.2619591  43.1597595  72.5653763  44.4329185  44.3272171
  57.2564049  43.8114128  85.8284149  57.2954674  43.1339417  85.1533279
  58.1259460  43.8013268  86.2284470   2.0096047  54.5395584  36.8945923
   2.8966453  54.8667374  37.0440750   1.5803350  54.6132393  37.7469597
  76.6776276  34.1929512  10.1267309  75.9655304  34.4296951  10.7209520
  76.3796692  34.4880371   9.2662792  85.3399582   6.8627691  36.2549095
  84.3868408   6.9446850  36.2219772  85.5410309   6.1566339  35.6407623
   0.5854773  20.7373199  66.4265518   0.8116574  20.6900005  65.4976654
   1.4233763  20.8670006  66.8707809  76.7667618  37.3685532  83.5482559
  77.0513687  37.9337044  84.2664719  77.3614502  37.5784874  82.8281860
  50.3843193  66.4929962   4.2321796  50.5144539  67.2726974   4.7719545
  51.0333061  65.8675385   4.5544472  86.0668106  47.9974213  38.5657997
  86.4346771  47.9593315  37.6829300  86.2577667  47.1382599  38.9421082
  28.6069279  17.3891163  78.3684235  27.7391987  17.0836430  78.6329269
  28.6466732  18.2942200  78.6773529  13.4872065  31.8210373  73.4409637
  13.6385288  31.7666378  74.3845673  12.5719423  31.5637455  73.3299484
  74.2503586  54.4323578  55.9276123  73.2998886  54.4776154  55.8237419
  74.5771713  54.2224541  55.0527611  36.2320709  64.9182816  54.8953476
  37.1792755  64.8590088  54.7707825  36.0851479  65.8167114  55.1910973
  58.3524590  19.0779686  17.5466652  58.1680756  18.1704674  17.7888985
  59.2450333  19.2318859  17.8562622  60.2345619  23.0315075  35.4440575
  60.3235512  22.1694832  35.8505363  60.8058739  22.9947128  34.6769295
  70.1871872  61.9374084  35.0435905  69.5298843  62.5044632  35.4468651
  70.7988510  61.7380600  35.7523651  53.3177299   0.4458002  22.2019234
  52.7202835   0.7634975  22.8789444  53.9771156   1.1350152  22.1217556
   3.4653471  66.7168274  10.7450438   4.3149867  66.9406738  11.1248274
   3.6258061  66.6836395   9.8019724  24.5840645  36.5326271  41.4498787
  24.5024548  36.5948448  40.4981956  23.7189484  36.7741394  41.7807541
  14.7154093  20.2859764  22.0908833  14.4424305  19.4544468  21.7032280
  15.3782740  20.6246300  21.4890900  25.3048859  51.2303581  42.2674103
  25.4393005  52.0656204  42.7151871  25.5780182  51.3956871  41.3650284
  53.1089325  54.3267136  70.2537842  52.5197372  54.0175133  69.5656891
  52.9081841  53.7724571  71.0079269  63.4623718  16.3412895  47.8625336
  63.8808708  15.9523029  48.6305046  63.6848183  15.7500973  47.1433411
  33.4300919  10.1333389  28.5807381  34.0859108  10.8289013  28.6289959
  33.1221085  10.1569757  27.6747475  57.8517113  60.3987274  79.6491394
  58.3807220  59.8347015  79.0849991  58.2835045  61.2519798  79.6073532
  64.3851547  11.2527266   7.7411375  64.9067383  10.8606424   7.0408177
  64.3050079  10.5598841   8.3967104  65.8342438  69.1342163  16.8052883
  66.0999146  70.0473099  16.9144173  66.0047226  68.9437790  15.8828430
  77.7355957  49.2502632  24.8739548  77.4488983  48.5570183  25.4684715
  78.2482986  49.8415680  25.4250698  36.6530838  65.9774704  19.2222672
  37.3502007  65.3593597  19.0027294  37.0942497  66.8248825  19.2815170
  53.4255791   6.2163835  55.6049576  53.7976952   5.3350096  55.5743027
  53.9465141   6.7182455  54.9780693  17.3244171  37.6579285  14.2422886
  16.6162949  38.0939636  13.7682943  17.9810638  38.3418007  14.3740721
  10.4619265   3.7540751  27.8257523  10.2905741   2.8190815  27.7132454
  10.4219809   3.8927345  28.7720127  62.8718529  68.1442719  13.6908855
  63.2515488  68.7096939  14.3634653  63.4551659  68.2423019  12.9383106
  57.7281990   6.7439542  32.1050682  56.7841873   6.5857964  32.0974350
  58.0090256   6.4751091  32.9797630  86.2580109  47.2343025  79.0961151
  86.3483200  46.9236183  79.9969788  87.1147537  47.6043854  78.8833694
   6.5187373  24.4176407  86.6376266   7.1092415  23.7219181  86.3486481
   5.8593702  23.9680119  87.1661148  59.5248947  42.1332626  13.7360067
  60.4433060  42.1477280  14.0053463  59.5510902  41.9001122  12.8080063
  72.6452026  47.0338783  75.4003601  73.4092255  46.4964027  75.1915131
  71.9219055  46.4096298  75.4585953  82.3904953  71.3812714  33.5586014
  82.1517563  72.2957001  33.4067459  82.8273087  71.3860397  34.4103088
   8.3667746  60.7036057  41.9583359   7.8979168  60.8594131  41.1385002
   9.0371618  60.0589218  41.7320671  58.4564934  58.6639519  19.8954735
  58.3340836  58.1851845  20.7152462  59.3802986  58.5367928  19.6794910
  49.0850563   6.9256673  31.4614143  48.9052658   7.8609476  31.5571117
  48.8141174   6.7200069  30.5666924   9.8158484  46.8795547  66.9507828
  10.6130972  46.3502579  66.9291229   9.5297146  46.8443604  67.8635330
  75.6772232  54.6083527  21.8047028  74.9589157  54.7581978  22.4193707
  75.5700455  53.6982002  21.5283527  74.5265961  28.0579681  70.3489532
  73.7753754  27.5799160  69.9977264  75.0935440  27.3785248  70.7138596
   1.6182963  36.7514877  14.4599905   1.0234360  37.2967148  14.9748735
   1.0786874  36.4201355  13.7421751  71.2969742   8.2279806  43.8250122
  70.5452042   8.4134951  43.2622833  71.0764923   8.6370716  44.6618309
   4.9544716  27.9590549  36.4694061   4.3320899  28.6818447  36.5496941
   5.6966672  28.3336525  35.9950104  86.0732651  61.9749603  73.2082977
  86.7522812  61.3778992  73.5224380  85.2519684  61.5120926  73.3740082
  43.8264580   1.2260735  37.8469086  44.5612564   1.2300509  37.2334862
  43.1545067   1.7568864  37.4191818  64.6028137  69.4368515  54.4923019
  64.0505295  69.2794266  53.7265167  64.0347137  69.9031372  55.1055450
   2.9850037  49.1957932   5.5315399   2.4978578  48.7477722   6.2230582
   3.7134140  48.6076775   5.3321142  21.7800255   1.4381654  17.5501595
  20.8973122   1.1319822  17.3420773  22.2030296   1.5463305  16.6983376
  61.9617043  19.3842220  30.6389542  61.3280945  18.6728077  30.7320194
  61.5463638  20.1324883  31.0676994   8.7508030  32.3109398  32.9292412
   9.2561274  31.8542385  32.2567062   7.9099054  32.4974022  32.5116806
  79.7268448   7.3005576  11.2781124  79.7242050   7.5631075  12.1985970
  79.9847717   8.0912342  10.8042622  59.7018127   0.6717657  56.6129761
  60.5976562   0.6259035  56.2789230  59.1544495   0.6957768  55.8280869
   1.7144449  35.0974960  56.4418716   2.6380630  35.1889496  56.2077789
   1.5765965  35.7471886  57.1311646   5.6657596  16.2532253  71.2887878
   5.3267269  16.1678524  72.1798553   6.6026783  16.0752716  71.3709259
  33.1569328  49.3782463  28.2548580  33.2030334  50.2806816  27.9390850
  34.0632782  49.1502876  28.4617481  85.6460800   9.3490343  61.2766876
  84.9292526   8.9666042  60.7705841  85.2753830  10.1483507  61.6507301
  27.4654255  70.5775833  78.6126709  27.6935692  71.0449677  79.4162445
  28.3000355  70.2417679  78.2857285  31.5328484  61.7788391  77.3399506
  30.7691402  61.3581886  76.9449387  32.1399155  61.9062767  76.6109390
  57.5133171  34.0550117  23.4912701  56.8518219  33.6065292  22.9644680
  57.0778580  34.8513641  23.7953014   6.4799790  60.6739273  43.9961472
   6.9921198  60.4558678  44.7748604   7.1245089  60.7164116  43.2897415
  71.4316940  32.7708817   1.5920713  70.8242874  33.0655746   0.9135052
  72.2654419  33.1807365   1.3616151  20.7734394  29.9108372  89.4179382
  20.1092205  29.2247410  89.3522339  20.6316261  30.4563656  88.6442947
  41.7615585  69.6769867   3.1863558  42.1305161  70.5077438   3.4862475
  42.3275528  69.4112778   2.4615898  15.6492720  52.9289589  44.8099518
  15.5913658  53.6472168  44.1798782  14.7553329  52.5925064  44.8724289
  56.3930969  59.7464218  15.4917183  57.1906242  59.8397446  16.0127506
  56.6713524  59.2663116  14.7117834  70.4628296  60.2504196  71.5351334
  71.2681732  59.7330780  71.5388031  70.6321259  60.9614983  72.1531448
  68.8269043  23.6694241  54.6736221  69.4265900  24.1443043  54.0982056
  69.3621979  23.4257355  55.4288063  73.1962051  57.1050301  44.7085533
  72.5331345  57.3079338  45.3684082  73.4103394  56.1843643  44.8593903
  22.1242886  48.5931587  25.4830055  21.6395969  48.4877129  24.6643562
  22.1176796  47.7218285  25.8791981  41.4729729   7.3029666   3.6872439
  41.0321579   6.4636235   3.8192160  40.8219376   7.8486652   3.2461081
   5.9608402  65.9973602  73.4038086   5.6036510  65.5871353  74.1914368
   5.3023443  66.6444931  73.1511612  26.3195171  47.1174202  17.5784397
  27.0987759  47.5254021  17.2008972  25.5922718  47.6561279  17.2667656
  27.1613255  47.6587944  53.5233116  26.8315620  48.2088318  52.8127174
  26.7003441  46.8268166  53.4158783  36.4672966  52.5051041   5.1248703
  36.2409210  52.0403328   5.9304595  36.3008118  53.4262390   5.3249316
  66.5273514  10.2601976  49.2429161  67.0825043  10.8408537  49.7633743
  66.4903641  10.6737690  48.3804665   6.2090554  24.6312351  13.4662895
   6.3427429  24.0509377  14.2156973   5.4012694  25.1027966  13.6696186
  50.9739037  40.1919174  72.6972275  50.8191261  39.4428253  72.1217804
  51.8346825  40.0251122  73.0812531  21.8967972  46.8003922  71.8189163
  22.7690697  46.5256157  71.5363083  21.3005714  46.1941605  71.3793411
  49.8867912  25.4156723   9.5300226  50.0588150  25.3484898  10.4692383
  49.3527641  26.2049618   9.4401941  27.0304279  69.0884323  62.8963470
  27.7250385  68.9382401  62.2551041  27.2711582  68.5400925  63.6430740
  79.8253708  53.1020050   3.2827044  79.1830978  52.4908142   3.6434755
  80.2834854  52.5984879   2.6097770  40.4369507   8.5901852  81.4605408
  40.8170509   7.7695351  81.1470337  39.6189003   8.6775684  80.9712677
  58.0236320  45.3963509  46.1848869  57.1239395  45.6045799  46.4367256
  58.0054626  45.3739738  45.2281227  23.7698879  46.3779449  81.6020737
  23.3941765  45.5167313  81.7847748  23.4402237  46.6034317  80.7321854
  40.5776863  41.8949661  87.0148468  41.4110107  41.6772919  86.5972137
  39.9161606  41.6725006  86.3597717  75.9305344  13.6112518  80.1102829
  75.3696518  13.1056728  79.5220413  76.0241547  13.0583153  80.8859940
  56.4850349  68.6708908   2.9538796  56.6413155  68.4047394   3.8599532
  57.3089867  69.0712891   2.6763554  37.1153259   8.9345436   8.5908203
  36.5757332   9.6000986   8.1640787  37.9309769   9.3879423   8.8038359
  86.3555374  45.3784294   4.3597140  86.6002350  45.6532860   5.2433476
  86.0099411  46.1711617   3.9493861  77.1884460  64.4216232  85.1785278
  77.6026840  64.0403442  85.9526520  76.9640808  63.6687698  84.6316299
  52.9902534   2.6165307  33.5555229  53.0110397   3.4205921  33.0365944
  53.2924538   2.8838000  34.4235497   0.3449015  44.8027344  13.9341202
   0.1576512  44.4534988  14.8054428  -0.1276958  44.2228012  13.3369942
  70.1612015  63.2028236   8.9915743  70.8045654  62.5025101   8.8826380
  69.3559113  62.7511177   9.2439747  26.7062931  57.4192009  66.2538376
  25.9780140  56.8103561  66.1307526  26.8067741  57.8474236  65.4036789
  85.9424820  55.6018829  86.2762222  85.4879761  54.8258667  85.9484177
  85.3536911  55.9620018  86.9394531  48.2640152   8.0103836  76.8699570
  48.0992737   8.7820282  77.4118576  47.4097862   7.5855675  76.7921219
  22.6821690  24.6435680   9.1714153  22.4412022  24.8072548  10.0832109
  23.6252880  24.4821892   9.1981936  79.9336624  20.1477051  74.9616241
  80.3813171  20.9280682  75.2885361  79.0025711  20.3570633  75.0355682
   0.8859501  17.6609478  17.2967815   1.0614018  18.2320080  16.5488930
   0.3035409  18.1731205  17.8577728  47.6857567  21.1795921  70.0424728
  48.0605316  20.8008900  70.8376846  46.7634354  21.3207664  70.2560806
  60.9865150  29.5819111  38.3659019  60.3651428  30.0096607  38.9551048
  60.8666344  30.0271912  37.5271034  35.5643044  52.1380997  76.8505325
  36.4155998  52.3371010  76.4607620  35.7478371  52.0283356  77.7835388
  55.6035194  12.7877636  85.6928940  56.5333710  12.5739679  85.7697296
  55.2644348  12.7056665  86.5842438  46.6194649   1.8211316   9.5079021
  45.7455521   2.2109890   9.5307360  47.1470947   2.3825400  10.0759354
  69.5335922   6.0625114  16.6047783  69.2314835   5.1543536  16.5902214
  69.7468033   6.2586522  15.6924734  15.5963669  64.1631699  76.4377289
  16.3328705  63.5578651  76.3517380  15.4586134  64.2401886  77.3818283
  33.1930847  67.0976181  25.1758900  32.7566071  66.2458954  25.1589565
  33.9205246  67.0062332  24.5604954  64.6551743  51.4772148  56.3169594
  65.0546646  50.6367912  56.0926132  63.9352226  51.5741653  55.6936607
  54.5132599  20.7070351  28.7473736  53.7764931  20.1765270  29.0506268
  54.1391907  21.2724228  28.0716228  14.3159590  13.6666775  19.2264099
  13.5758314  14.1043177  19.6470203  14.2654409  13.9382114  18.3099232
  78.9035721  43.4395638  29.9765320  79.4774094  43.1579666  30.6890202
  78.0584030  43.5966682  30.3975449  56.2712402  54.3147926  48.0825386
  56.7678261  53.7730675  47.4692078  55.5257912  54.6319237  47.5726738
   3.2869377   1.5499424  85.0401764   3.8005903   2.1125650  84.4606552
   3.4815722   0.6605057  84.7447968   3.6947138  64.7246323  17.9928932
   4.1258068  65.2210617  17.2972317   2.8135166  64.5586777  17.6579571
  25.1182995  61.6123276  79.4720459  25.8967457  62.1226006  79.6953735
  25.4114780  61.0181046  78.7812653  17.5871792  56.7454910  37.4359550
  17.1317024  56.3551636  38.1818886  18.4964333  56.4636955  37.5363541
  80.3086853  23.0912018  35.7676735  80.3678741  23.5292435  34.9186440
  79.3830566  22.8639317  35.8559151  25.2771835  53.4197578  10.6945848
  25.1064682  52.4895477  10.5469646  25.8794880  53.6670303   9.9929314
  73.2935486  61.8797150  61.1444473  72.6005249  61.2194939  61.1361847
  74.1062241  61.3740044  61.1375885  52.8813438   4.9048605  47.1884613
  52.8417854   5.4651341  46.4133720  51.9668121   4.7853680  47.4445496
  30.6934395  33.0094452  29.8672466  31.5325222  33.4428787  30.0231514
  30.4708252  33.2362328  28.9643383  41.5265579   3.7194204  53.0434303
  40.9150810   4.2645421  52.5482826  41.3128700   3.8920369  53.9603691
  62.1642952  68.3237000  23.8946857  62.7979393  67.6811142  23.5756187
  61.4250107  68.2512436  23.2909946  69.8832321  59.0214539  47.0664291
  70.1231613  59.7634697  47.6214752  69.1067276  59.3184471  46.5920067
  78.4971313  33.1606750  77.8620834  78.0374527  33.0038223  78.6869049
  78.0188522  33.8829727  77.4549408  34.2542801  47.5586967  78.9589539
  34.4677010  46.7399368  79.4065170  33.8782005  47.2836113  78.1228180
  40.4325790  35.7729797   8.9890747  39.5532036  35.7525368   8.6115589
  40.8164177  36.5850639   8.6582842  49.1355896  18.0253143  76.0070038
  49.6741676  18.2803440  75.2579193  49.5856972  18.3998737  76.7641983
  82.4088440   3.8556650  35.8200111  82.9837112   4.4119086  36.3456993
  81.9913864   3.2742786  36.4555817  65.1678085  33.4312897  47.8029022
  65.9790039  32.9241905  47.8352318  64.6471405  33.0070152  47.1208954
  29.9904385  57.8929405   2.7123525  29.9567127  58.8155594   2.4596214
  29.1634636  57.5279732   2.3974829  53.3325615  22.8735332  43.8876877
  52.8420410  22.4323654  43.1941528  52.6595078  23.2443428  44.4584160
  17.2892113  53.7085762   4.2359781  17.8714981  53.6897392   3.4764917
  16.4119778  53.6026688   3.8679073  46.4957123  59.4885368  70.6971207
  46.8322105  60.3698807  70.8591003  45.5560837  59.6118965  70.5625534
  30.1955280  55.8776665  45.0261040  30.0072250  56.4141884  45.7961159
  29.9922314  56.4456215  44.2829170  50.9779968  47.0816307  16.2798996
  50.5786362  47.7521248  15.7256632  50.6408081  46.2544823  15.9358625
  46.0552216  41.4541969  75.4631729  45.7218437  42.0744743  74.8148346
  45.3414040  41.3602409  76.0939407  48.9041252  13.1217585  70.5793304
  48.5072899  13.9928150  70.5831375  49.8273888  13.2783117  70.7775803
   4.3262482  54.9956474  64.9085236   5.2698474  54.9012108  64.7783890
   4.1025882  55.8098488  64.4576569  86.6361313  49.3570213  57.6211510
  87.1024170  50.1206932  57.9611816  85.7350769  49.4727058  57.9227257
  11.8691988   3.2616286  61.8840561  11.6674805   3.7255254  61.0714455
  12.6441374   2.7397406  61.6758881  23.7217922  13.3955860  23.6759090
  23.9023666  13.5713282  22.7524700  23.3062057  14.1965132  23.9953384
  33.4700546  34.0724678  10.5467730  33.4552689  35.0156593  10.7092562
  33.6317940  33.9938965   9.6066141  64.9800720  30.7718563  63.4855118
  64.8123245  31.4056892  62.7881279  65.7971573  31.0678673  63.8867455
   8.8475418  65.6461639  47.7093506   8.5036993  66.5338745  47.6094589
   8.1377563  65.0790634  47.4079628  74.4059219  16.3482456  50.4104958
  74.1256943  16.9418869  49.7138634  73.8209000  16.5445824  51.1422310
  56.0379372  65.9180908  55.7047997  56.8845901  65.5774307  55.4160690
  56.2570763  66.5791550  56.3614578  47.2599907  30.3533268   6.7057886
  47.3484383  30.3705978   7.6587372  46.4540062  29.8613758   6.5489306
  61.3176041  62.4470215  72.6049957  61.6561203  63.3242645  72.7841187
  62.0409431  61.9953156  72.1702805  86.1040955  37.0464172  18.8047428
  85.7469711  36.6797523  19.6135979  86.7210159  37.7170944  19.0977154
  85.0790405  12.0015793  62.2605324  84.3786316  12.2289991  62.8720322
  84.8013153  12.3805380  61.4265709  12.8685255  55.1617393   5.1726623
  12.4503183  55.2409439   4.3153048  12.7442217  54.2443581   5.4159503
  63.7651062   2.6182961  71.3545609  62.8789444   2.2592456  71.3094864
  64.3179321   1.9414090  70.9641266  66.9191513  62.4806671  59.1461906
  67.5080643  62.3467865  58.4035721  66.1171799  62.0185432  58.9022408
  24.3249073   1.1177887   8.1625404  24.4894524   0.3960021   7.5557613
  23.4062958   1.0164793   8.4117765  77.3324509  66.0458221  19.9481792
  76.4757385  66.0568390  19.5213833  77.9483490  66.2838593  19.2551880
  67.5996628   4.1318951  70.4052658  67.0977325   3.3187993  70.3489380
  67.3812332   4.4890556  71.2660599  83.0817032  55.7481575  58.0787964
  83.6316071  55.4129524  58.7869453  83.7008057  56.1177330  57.4492302
  78.0310440  16.9233818  59.1521568  78.6295471  17.0367889  59.8905067
  77.4068909  17.6441383  59.2368889   3.5607817   0.9169942  72.2082367
   3.6731255   1.2377493  71.3134079   4.2098331   0.2189155  72.2957001
  64.3327637  41.0348091  43.3439980  64.9077682  40.2736740  43.2648163
  64.7756195  41.7223282  42.8465767   7.0696416   9.4522610  36.3217316
   7.6476154   9.1333370  37.0148888   7.6301231  10.0064459  35.7786179
  45.4864388  54.5137711  14.1029663  46.4276085  54.6215057  14.2401762
  45.0821037  55.0285301  14.8013687  17.7928886  57.1880646  46.4665909
  17.8501720  57.9955597  46.9773750  18.6248341  56.7430382  46.6279945
  41.1520157   8.7970562  24.9097576  40.3243866   8.9284019  25.3723698
  40.9603081   9.0368509  24.0031281  82.4319687  38.3120461  49.1096382
  82.8728943  39.1158714  49.3847389  83.1101151  37.8092499  48.6584816
  49.4787788   9.6842022  66.5117569  49.3604965   8.8066025  66.8751602
  49.0791550   9.6396074  65.6431122   2.1217005  31.5369930  32.0000114
   2.5953968  31.2364140  32.7755737   1.3734154  30.9440155  31.9316235
  85.8550339  23.8953323  35.8468094  85.0634155  23.3879395  36.0260429
  86.5579376  23.2457352  35.8332443  62.9488335  59.6643448  14.5297108
  63.2004433  60.5791016  14.4026232  63.3587456  59.4160881  15.3583078
  71.3774261  71.1027069   6.2810984  70.6658325  71.7369385   6.1937661
  71.0652084  70.4815216   6.9390359  72.0661087  29.4505386  39.4125443
  72.4354935  29.0108509  38.6467400  71.2513733  29.8401127  39.0952530
  58.3795052  54.2976379  76.1013260  59.0527191  54.5805435  76.7201843
  58.7040024  53.4649124  75.7585449  83.0624619  62.6149864  18.4601536
  83.7091141  62.1943474  19.0268402  83.3915710  62.4707336  17.5729618
  74.4568863  58.8046150  42.8001175  73.5971222  59.0461464  42.4555817
  74.2678909  58.1744652  43.4954071  59.9800987  55.6920280  60.0923920
  59.1876411  55.2805519  60.4372520  60.0916824  55.3061295  59.2235641
  15.8632984  56.0254860  56.3933868  14.9423599  56.2165947  56.2156754
  16.3452969  56.6867638  55.8967743  60.1919746  31.9455833  -0.0836784
  60.9414139  32.2289848   0.4400194  59.5117226  32.5929871   0.1016731
  80.5632858  41.7125702  40.4836311  80.0021286  40.9394684  40.5440445
  80.5388412  42.0953903  41.3606071  38.9584236  36.6225853  83.6475220
  38.2237244  36.9372025  84.1742706  39.4551506  37.4123039  83.4334259
  72.5592880  15.8272772  27.5526104  71.8386154  16.0134525  28.1544437
  73.0193481  16.6620140  27.4643536  59.9807091   6.3359151  77.8682861
  59.6666946   6.4295053  76.9689102  60.3072701   7.2054291  78.0996628
  24.6652946  41.4750977  30.3262653  24.2178173  42.1217651  29.7805405
  24.6516361  41.8531418  31.2055416  69.0822372  33.5734329  15.5800276
  69.8715286  33.4360886  16.1038475  68.4259338  33.8720589  16.2095699
  58.3732109  38.3151398  42.4602699  58.4076347  38.2813530  43.4162521
  58.9514656  39.0408325  42.2252769  56.6991196  45.5390015   0.1684020
  55.9210968  45.2033768  -0.2768717  56.3726387  46.2537727   0.7149772
  60.2707558  32.4708557  49.2248383  60.8716621  32.6047058  48.4918785
  59.9444504  31.5787163  49.1071892  86.2662048  20.8653526  32.9550095
  85.4955902  20.6765633  32.4195328  86.8885117  20.1732121  32.7316017
  66.3387451   9.7891436  75.7282715  65.4419861   9.6130648  75.4435806
  66.2874298  10.6360388  76.1714020  65.8639984  46.7635498  59.2150230
  65.1607285  46.5945320  58.5880699  66.1338654  47.6641388  59.0351906
  48.0084114  42.9485512  72.2857666  48.4885864  42.6250153  71.5235367
  47.7746773  43.8482475  72.0574112  68.0758438   1.6563741  66.8556290
  67.3928070   1.1090585  67.2431107  67.6126862   2.4356084  66.5481949
   1.1833003  20.3093548  75.4116211   1.7836360  19.9940186  76.0871887
   1.4953580  19.9007397  74.6042252  62.9150887  36.4870338  76.9559784
  63.8682976  36.5642090  76.9150543  62.7254486  36.3509789  77.8842926
  26.2257824  48.5306702  45.7438622  25.7024612  47.8158035  46.1062546
  25.8728123  49.3189468  46.1564941  58.9756393  21.8735046   9.4007788
  59.6882744  22.4388523   9.6987095  58.8016319  22.1598396   8.5041380
  59.5360260  17.5243759  41.0314217  59.4733620  17.6316719  40.0823212
  59.7020226  18.4072742  41.3618317  13.9245453  46.5784111  58.7092857
  13.5004387  45.7204170  58.7238121  14.8590012  46.3825569  58.6409760
  74.9245605  12.4804153  46.1740723  75.6126556  13.1342354  46.2976608
  74.7084885  12.5331535  45.2430725  23.3808384  26.6943874  76.0107956
  22.9579639  26.5029202  76.8479080  23.1625347  25.9459400  75.4554596
   8.5310307  36.1981735   9.2580194   8.0077295  35.5393753   9.7144966
   9.2469893  36.3958321   9.8618135  83.7636261  60.6028557   4.8042679
  84.3053284  61.2821274   5.2059822  82.9116135  61.0201035   4.6769462
  35.1511459  68.0131760  47.1045494  35.6860847  67.2381668  47.2761192
  35.7030144  68.5678558  46.5531845   1.2526388  67.3268127  40.5829163
   0.3440570  67.6273041  40.6033173   1.2680106  66.6567307  39.8995514
  63.8987808  64.4512939  48.1536560  64.8211517  64.2042847  48.2203331
  63.9133034  65.4004440  48.0306206  43.2176399  60.9742508  76.9598083
  44.0747375  60.5497475  76.9221878  42.6020050  60.2959175  76.6821518
  35.6107368   2.4764867  88.4872437  34.9452362   1.7939187  88.4009933
  35.9960442   2.3275819  89.3507233  14.5342274  70.5230560  28.2057018
  15.1957169  69.8839874  27.9406395  14.2800131  70.2527008  29.0880375
   6.5116582  19.9011097  83.1432648   5.8379850  20.4184666  83.5845566
   7.3382382  20.2479343  83.4789810  15.2202692  44.7868843  18.4667892
  14.2637920  44.7919998  18.5036354  15.4352541  44.0230713  17.9314365
  60.6299973   2.8901489  59.4821014  60.6470490   2.8202217  58.5276108
  59.7004318   2.9555395  59.7008934  82.0577240  46.8339996  29.8738995
  81.6105347  46.1546822  30.3786602  81.3526154  47.3083458  29.4333935
  79.9338455  67.2565384   7.8011351  79.1373596  67.3844833   7.2858930
  79.7027206  66.5772629   8.4346905  72.0210114  54.4679871  61.2565842
  71.1577301  54.7566032  61.5526733  72.3719101  53.9675102  61.9932137
  11.1028128  24.6843586   7.7832694  11.7522402  25.3872948   7.7643342
  10.7078476  24.7465401   8.6529636  55.0376015  26.4131241  14.3675709
  54.4021606  27.0998592  14.5696716  54.8805389  26.2049923  13.4465694
  67.7426071  23.3194504  21.6503353  67.4293976  23.8048630  20.8871136
  67.9355469  23.9945507  22.3009090   8.6565046  28.3142872   7.9912853
   8.1566143  28.0193367   7.2301373   8.5448093  27.6160355   8.6364222
  82.2004089  12.6640463  81.4302444  82.7739792  11.8996658  81.4848404
  82.6785355  13.3554392  81.8880768  75.8232040  32.7538223  88.0307312
  75.9001846  33.6793442  87.7989578  75.8345566  32.7448463  88.9878235
  51.7734299   0.8313241  38.1348419  52.6757698   0.9840013  38.4153900
  51.2598076   0.8842403  38.9408340  83.5720215  26.0444393  80.0227737
  83.6398468  26.9709702  80.2533646  84.0161057  25.5868244  80.7366409
  57.1052055   7.9044590  78.7352219  57.7284927   7.6246953  79.4056549
  56.6523132   7.1010318  78.4790497  19.6611099  25.3125477  81.7571487
  19.1064987  26.0332642  81.4584732  20.5283394  25.7044239  81.8599930
  29.3104668  65.4289932  36.3183670  30.0695210  64.9632492  35.9674454
  28.6739979  64.7400436  36.5093651  42.7462654  36.6141357  65.1074219
  42.5138092  37.4664307  65.4759140  43.4719200  36.8006172  64.5117035
  40.3228340  68.2886047  31.9349613  41.2167473  68.6307678  31.9437122
  40.3341866  67.5726700  32.5702057  51.0955315  47.7824898   2.4138069
  51.0676117  47.4268150   1.5255798  50.1851807  47.7616844   2.7088625
  76.8216324   8.3112679  71.2424011  77.6419067   8.6946611  70.9319229
  76.6155167   8.7996979  72.0393829   2.9311981  66.8795319  84.2994766
   2.9792819  66.1293640  83.7068787   3.6224346  66.7215042  84.9424820
  17.2914505  67.1628723   9.0401249  17.8627129  67.5229111   9.7185488
  17.6734180  66.3099213   8.8332262  62.3418770  41.5245171  13.9239101
  63.0396042  41.6315079  14.5704126  62.4462891  40.6280785  13.6049623
  51.2152328  46.1893311  80.5160599  51.8882713  46.8383064  80.3109131
  51.6459236  45.5784073  81.1139832  39.3017159  67.9104996  80.4304123
  39.0021172  67.4842529  79.6274261  39.3942909  68.8328476  80.1917725
  35.3489380  71.2737885  66.4937439  34.9429741  70.4681625  66.8137360
  35.4094391  71.1515579  65.5463104  50.8759308  58.8721542  23.7497978
  49.9326630  58.9884949  23.6360092  51.2673988  59.5929642  23.2564278
  78.2543182  61.6244659  48.4587097  77.8993835  62.4595871  48.7633781
  77.5276566  61.2112007  47.9924469  72.7873688  17.9156036  12.5109558
  72.0220108  17.3411465  12.4896746  72.4223404  18.8001537  12.5345898
  81.1808548  25.6675148  59.9781494  80.3020172  25.7440586  59.6066399
  81.3712158  26.5392895  60.3245697  53.7374229  65.9656448  37.5835609
  53.3564110  66.8317337  37.7283058  54.6563797  66.0635376  37.8328896
  77.6989822  17.1716366  70.7219772  78.0763626  17.1181259  71.6000137
  78.0155182  16.3855343  70.2769165  66.0622101  18.5076714  65.0093689
  66.8365402  17.9588184  64.8852768  65.3671417  18.0521660  64.5343628
  82.5816650   8.5607414  84.6112137  82.5348816   8.3786335  83.6726608
  83.1283798   9.3437471  84.6763077  58.3096390  41.3131599  69.4004974
  58.5948563  41.0514030  68.5250702  57.5908966  40.7156258  69.6068802
   4.1395068   1.6513698  45.2268143   4.4414539   1.6346130  46.1349869
   3.1962664   1.8011782  45.2907410  11.6855230  31.2906685  88.4446945
  10.7548628  31.4921970  88.3472900  11.8985491  30.7643375  87.6740952
  81.7604752  22.6950550  40.4441223  82.3647919  23.3484764  40.7963753
  82.2054901  22.3498783  39.6701355  67.7185745  11.9228554  53.5593796
  67.6922302  11.9140825  52.6025810  67.3314743  11.0862856  53.8173218
  52.8310814  49.6693687   8.2668285  51.9305420  49.4235725   8.4785976
  52.9555779  50.5158119   8.6960917  58.1814194  37.4776726  87.1894760
  57.9321480  38.3870926  87.3539581  57.3712807  36.9819756  87.3086090
  58.6334343  57.1956825  10.1531029  59.3669815  57.7200813   9.8319407
  58.8898354  56.9430237  11.0400372  22.1569557  25.8777370  78.1635513
  21.4533787  26.4396248  78.4883499  21.7797985  24.9979744  78.1626511
  51.7148132   7.6500440  12.8875465  52.5897942   8.0100126  13.0326595
  51.2538719   8.3310575  12.3976631  27.1370964  43.0785713   5.9758291
  28.0658207  43.0206680   5.7514410  26.8089466  42.1856537   5.8697667
  28.3006458  40.1612930   3.2960272  27.7735863  40.1500168   4.0949721
  28.1393871  39.3092880   2.8906658  86.8718109  16.7304230  13.3756847
  85.9309235  16.5671959  13.3100281  87.2501831  16.2502174  12.6391573
  70.9905853  61.1669044  53.2498055  71.6514816  60.4770279  53.1904907
  70.3917542  60.8667603  53.9335823  35.2686195  31.2284813  71.0660934
  35.5270309  30.6957417  70.3140030  36.0069847  31.8217068  71.2044144
  81.5226288  51.3922348  25.4889889  80.8775635  51.4377251  24.7832565
  81.9805679  52.2318497  25.4493885  78.5113220  11.2474613   0.6630465
  79.4273987  11.2227812   0.9395034  78.3984222  10.4556456   0.1372027
  63.6887054  41.5428162  57.2054138  62.8287621  41.4874992  56.7886810
  63.8523979  40.6592026  57.5350533  77.0220108  14.4687347  46.3290710
  77.4398956  14.1717978  45.5207176  77.7511597  14.6723461  46.9148293
  20.4167328  26.4703255   6.1876574  20.7408485  26.1770210   5.3360977
  21.1481400  26.3208256   6.7867589  11.0353537  32.9148636  11.2071686
  11.0595694  32.1340256  11.7602816  10.8774443  32.5786667  10.3249741
   7.2496657  31.7291222  -0.0781460   7.2130680  30.7785740  -0.1846723
   6.4639368  31.9442387   0.4244345  39.5499115   2.4482861  30.2767868
  39.3301353   2.4550276  29.3451824  40.4653282   2.1699924  30.3049088
  38.3282013  28.5438099  15.7820978  37.7835770  28.3975067  15.0086575
  38.9921036  29.1696529  15.4926386  84.0798569  42.4524155  32.0926628
  83.5117340  41.7421646  32.3910255  84.5751038  42.7062187  32.8714714
  61.5590401  29.6633148  72.3660431  60.7977219  29.1012173  72.5098267
  62.1745071  29.1135292  71.8811035   0.5207223  37.1621552  31.0327663
   0.4991028  36.2059975  30.9936733   0.7829261  37.3592339  31.9320126
  58.4387894  18.7647419  26.2459278  58.6026840  17.9102879  25.8468323
  57.4869576  18.8076439  26.3376427  53.3041306  10.3926010  87.3060074
  53.8276596   9.6428604  87.0230942  52.8596191  10.0892859  88.0976105
  58.0977287  30.8054104  68.7156677  57.2063179  31.1541119  68.7209549
  58.5859871  31.4046745  68.1511078  82.2019577  23.7668228  66.7848053
  81.8778229  23.0347538  67.3094406  82.0986481  24.5315800  67.3511124
  65.3639374   4.9375887  63.7675323  65.1838074   5.5253048  63.0337944
  65.3351440   4.0607457  63.3847160  64.2876129  35.8075638  68.8439789
  64.2605133  36.7029724  68.5067215  64.3322067  35.9109039  69.7945404
  21.1321068   8.2992992  18.1096325  21.4103489   8.9940948  18.7063503
  20.9012451   8.7563505  17.3009052   0.3157278  51.2277260  11.9628210
  -0.1810675  50.4484482  11.7135096   0.4765131  51.6837158  11.1367140
  48.8226280  47.8084564  66.8385010  48.7042465  47.8017387  65.8886795
  48.1957283  47.1617661  67.1625824  41.4126167  22.1167126  73.5088806
  41.6873894  22.3197594  74.4030304  40.4568901  22.0870762  73.5529022
   7.2827578  50.4728928  46.6421394   8.0468559  49.8974457  46.6068230
   7.5976629  51.3103256  46.3018799  23.2018127  55.7712135  41.4657326
  23.9752541  56.2272339  41.1339684  22.9578762  56.2558861  42.2542839
  68.0235443  60.6297607  84.5181732  67.4318161  61.1889648  85.0215454
  67.7336731  60.7293205  83.6113663  54.8982697  53.5294151  34.3506737
  54.7697449  54.4146423  34.6913910  54.9810524  53.6467018  33.4043007
  86.7117691  39.4977074  48.8700066  86.0285034  40.1409378  48.6812210
  87.4739609  39.8073082  48.3806839  41.3841553  56.0897827  20.2315521
  41.5644188  55.6243248  19.4147968  41.3973618  55.4082603  20.9035530
   2.1505942  22.8922062  61.7630272   2.8401446  22.3106213  61.4428520
   2.1161549  23.5998936  61.1194229  68.4590225  51.5376396  48.9061737
  69.0088730  52.2996025  49.0886497  67.8849640  51.8213959  48.1947098
  11.2950592   0.0219614  87.3563919  11.9686565  -0.1414238  86.6962357
  10.6193151   0.5158128  86.8919449  20.9258957  40.3696365  22.8447990
  20.8256760  40.4320259  21.8949070  21.0813789  41.2703819  23.1289082
  20.1483097  33.7119141  22.8444309  19.7743645  32.8307953  22.8497086
  21.0855103  33.5751915  22.9829731  21.1177845  58.1383820  69.9148865
  20.9957638  58.9302979  69.3912354  21.8612652  58.3393059  70.4832993
   5.9848757  49.0594254  15.3408070   5.6853242  48.6219864  14.5438452
   6.9344435  49.1216087  15.2374325  25.3211975  48.6219673   6.4382749
  25.6644554  48.6233330   5.5447402  25.6694584  49.4229698   6.8298635
  79.5347443  41.7566147  66.7924728  78.7236938  42.1177826  66.4347153
  79.2878799  41.4211769  67.6543121  15.2007360   1.2842717  73.6777191
  15.7883301   1.3978388  72.9306793  14.7546015   0.4546645  73.5075760
  41.4160080  57.0491142   4.2693415  40.7675972  57.1272163   4.9691215
  42.2598991  57.1136322   4.7164674  38.6871986  56.6360970   9.7340136
  38.3258133  57.4325066   9.3449545  39.4464149  56.9367256  10.2334576
  34.3102913  38.6555290  66.0423660  34.2114029  38.5859413  65.0928345
  34.8152428  37.8803520  66.2880325  53.1686897  57.1737900  22.2562218
  52.4029274  56.6095924  22.1488628  53.5918045  56.8542175  23.0531406
  54.5045624  41.4745064  88.0457840  55.0278969  40.9165649  88.6211624
  54.6463051  42.3609467  88.3779907  72.3892059   4.6658392  49.2804146
  73.3188019   4.4863915  49.1394463  72.1092987   3.9999986  49.9085426
   1.6356473  16.5319881  44.8081322   1.7029616  16.6981335  45.7483978
   0.7213259  16.2825642  44.6738358  70.4111404  67.5264206  52.2132149
  70.0229492  66.6836472  52.4482994  69.9417725  67.7942734  51.4231606
  50.0021133  12.2615328   0.3221737  49.8809814  13.0003014  -0.2742998
  49.2610970  12.3168688   0.9255536  48.5311852  48.9293022   0.8300430
  49.0015678  48.3543053   0.2264280  47.7510643  49.1987648   0.3452414
  30.7438030  54.3859673  22.8014603  30.1186543  53.6732483  22.9335594
  30.3527317  54.9229202  22.1122742  83.7809372  24.9764614  20.4417419
  83.4225769  25.6952763  20.9624290  84.2137070  24.4103317  21.0808353
  16.3044033  58.1278267  49.4742508  15.5106106  57.6068611  49.5955887
  16.4178486  58.5886459  50.3055191  67.8437958  26.8450756  53.0603561
  67.5220413  27.7450294  53.1131859  68.0434189  26.7161274  52.1331253
  86.9007492  21.4145603  29.7035007  86.5456772  22.2258568  30.0667553
  86.2296829  21.1123047  29.0914955  42.6840057  28.1756268  74.2963943
  41.7936096  28.5106983  74.1907806  42.5667267  27.2641258  74.5640488
  24.0926647  13.5035677  26.4935513  23.8653889  13.4512177  25.5652008
  23.6383896  14.2853727  26.8076344  41.0258293  34.4203682  65.1777573
  41.6203270  35.0792465  65.5364761  41.5791550  33.6532974  65.0305481
  11.2494516  37.3039589  63.2246895  11.1590176  38.2383308  63.0376015
  11.4846363  37.2669945  64.1518097  50.9548683   8.7654839  42.6195107
  50.1447754   8.2560015  42.6397476  51.6125908   8.1563416  42.2839890
  54.4234047  38.7822571  26.0942688  53.5002060  38.8963280  25.8686085
  54.4100418  38.4009933  26.9721603  25.8240356  44.7189522  31.6644230
  25.8680744  44.3334160  30.7894077  25.3417072  44.0767212  32.1851273
  65.4603653  11.0317421  22.9986610  65.3162384  10.3440409  22.3486404
  66.3812866  11.2709274  22.8941154  79.1482468  38.6030121  70.1616287
  78.8194656  37.7287750  70.3710251  80.0437469  38.6094322  70.4996643
  83.7289886  29.5151253  11.6832266  84.4695282  29.9189625  11.2307386
  83.0900192  29.3439465  10.9913816  49.8165207  40.9779167  21.7555428
  48.9903030  40.5234070  21.9199181  50.0859947  40.6784515  20.8872471
  24.1348400  38.0155678  26.8090420  24.1209431  37.0620461  26.7263660
  23.9990273  38.1770287  27.7427006  70.7368927  69.5886307  23.1857777
  70.8179245  69.8466415  22.2675762  71.4984131  69.0312881  23.3460560
  36.0250854   1.8394502  27.9175396  36.2804489   1.7504642  28.8357468
  35.3148994   1.2077785  27.8041515  52.6202469  15.4050961  17.0157280
  52.9092369  14.7812214  17.6816845  51.7786293  15.0620594  16.7153282
  83.0626144  67.7187500  79.1940765  83.7564621  67.1094513  79.4461823
  82.4497757  67.1870117  78.6862183  31.1596031  65.0852737   6.1051106
  30.9505882  65.3954849   6.9861975  31.6553116  64.2787247   6.2464709
  79.1690063  35.7945900  15.2010202  79.4672546  35.6333008  16.0961533
  79.8631058  35.4347382  14.6487904  39.6930885  70.2107239   6.1733899
  39.0219154  70.4528122   5.5353065  40.5204086  70.4360657   5.7479529
  73.4118195  67.5690079  27.9777622  74.3602371  67.5486374  27.8499870
  73.2693329  67.0854874  28.7914772  15.6712856  47.8392982   3.1639888
  16.4788799  47.4907036   3.5414896  15.5987234  48.7220039   3.5270226
  12.8654423   6.6106715  46.1437645  13.4417801   6.0254197  45.6522903
  13.4455366   7.0535774  46.7630844  52.2053604  50.4163361  61.3972473
  51.9431000  49.8074722  62.0877113  51.4842987  50.3901787  60.7682648
  55.2917328  57.6795197  78.5073547  56.1502304  57.8806190  78.1348343
  54.9606819  58.5232048  78.8153076  57.2307472  68.9013138  69.8499603
  56.8166161  68.2669220  69.2649231  57.0847244  69.7476959  69.4274139
  50.5546684  68.0684052  58.7911034  51.1172943  68.1847610  58.0255051
  50.7456055  68.8247604  59.3458176  53.0988083  66.6368027  33.6985817
  53.7407990  66.5137177  32.9993439  52.2847633  66.2817001  33.3415642
  17.9134445  65.5389709  75.2625961  16.9661217  65.5579834  75.3984222
  18.1213627  64.6108704  75.1547470  49.3959846  26.7821064   6.6819954
  49.0528564  27.0298386   5.8234367  49.9050713  27.5417805   6.9647665
  18.4030037  19.6447983  17.4891472  18.9532795  20.4156551  17.3505516
  18.8412952  19.1602936  18.1887093  83.0812759  59.4839325  51.2804298
  82.4391327  60.1530266  51.5174866  83.7615128  59.9621201  50.8062515
  61.3151016  65.1586533  33.3389778  61.3000031  65.7190781  32.5631371
  60.5457535  65.4254227  33.8421440  18.8681755  44.6724243  64.2084885
  18.0108147  44.6936455  64.6335907  18.6760044  44.7754478  63.2764549
  84.7941666  49.8787918  28.5772858  83.8753052  49.9535637  28.3197250
  84.9014435  50.5274048  29.2730026  23.2950840  13.9709291  20.8534031
  22.3414631  14.0453033  20.8895340  23.5782394  14.7508459  20.3761349
  80.1222076  68.2098236  69.0645828  80.5373306  67.9565125  69.8890457
  79.8537445  69.1184464  69.2008591  84.1100845  18.4549026  85.7229385
  84.6173477  18.8541107  85.0161514  84.3273163  18.9746933  86.4968033
  16.7654800  29.3897095  76.4562988  17.2895527  28.5920448  76.5291672
  16.8130512  29.7877808  77.3255005  30.5610085  63.1136055  34.8288727
  31.0110779  62.3410645  34.4870377  29.7973957  63.2167740  34.2609978
  50.2063026  50.0564957  68.0332413  49.6554718  49.2995186  67.8337326
  50.6288300  50.2710915  67.2015915  84.2796860  53.0322113  42.1842155
  83.5469055  52.6135254  42.6358414  84.1230087  53.9703217  42.2920647
  43.3752937  70.3613358  56.4697723  43.0455513  69.4870758  56.6775436
  42.8191490  70.9536133  56.9758797  69.2935257  16.6864510  23.0972672
  68.6316071  16.1931629  22.6127491  69.7771835  16.0212326  23.5869560
  67.2788925  32.9255829  67.7000275  67.1406708  32.8519173  66.7557297
  67.0813217  32.0528030  68.0398178  82.1253433  16.2121239   0.7190049
  82.3999252  16.7850151   1.4349903  82.7219238  16.4234695   0.0009094
  69.9932404  57.2788467  74.8634796  70.7487869  57.4586639  74.3039780
  69.7455673  58.1345177  75.2137909  43.7431602   8.6998949   3.7411163
  43.1158676   8.0036602   3.5461967  43.2479668   9.5097675   3.6181443
  20.6164303  24.2145576  19.3655701  20.3144112  23.4815140  19.9019127
  21.1392326  24.7491512  19.9631634  47.4756622  35.5807152  38.1495667
  47.2350349  36.4090881  38.5644493  47.5552597  34.9630280  38.8764496
  63.9909859  10.5903006   2.9752722  64.1631317  11.3613501   3.5157180
  63.7551041   9.9063396   3.6020007  13.6022768  22.4972115  32.6648827
  13.9615297  22.7728195  31.8215504  13.7971392  21.5613384  32.7138939
  42.1695518  59.8300171  47.4147110  43.0832901  59.6244736  47.6123734
  42.2121582  60.3880653  46.6381836  84.5377121  64.8564529  65.4278183
  85.4403076  65.1724091  65.3863068  84.4744339  64.4234619  66.2791443
  40.5290222  71.1919708  20.6475525  40.8063240  70.5578156  21.3087502
  40.4292679  72.0127411  21.1298561  20.3376884  40.0396461  72.9462280
  20.1440277  40.5246887  73.7483902  20.7677402  39.2395287  73.2480621
  71.3244247   4.6890998  28.2852325  70.8215408   5.4507504  28.5737267
  70.8410721   4.3552060  27.5295105  62.0409164   5.2543683  36.6555862
  61.6861725   5.1698322  35.7705765  62.2317467   4.3556056  36.9239922
   4.2312813  41.5517616   3.7383280   4.7603235  40.9984322   4.3129339
   3.4001462  41.6531372   4.2021914  19.6548347   1.8824428  65.5328445
  19.3268871   1.7908031  66.4274292  20.5997639   1.9963734  65.6346359
  43.9594574  29.7316685  22.2858906  44.2769966  30.6138077  22.0929394
  44.0927925  29.6299095  23.2282791  45.1211395  23.2710037  66.2286072
  45.0436096  23.6019878  65.3338089  44.7126503  23.9464321  66.7700577
  60.7281837  51.9439201  57.2268639  61.3894310  51.2598228  57.3317261
  59.9064255  51.5236015  57.4803925  78.0275879  59.3572121  18.9277401
  78.8604813  59.5816574  19.3426514  77.5542526  60.1875877  18.8761654
  83.8298492  13.2828846   7.4491820  84.3626480  12.4877300   7.4396524
  84.4192886  13.9698877   7.1380177  11.2698460  53.9486885   3.0944767
  10.5223017  53.6373672   2.5840957  11.6274328  53.1594887   3.5013206
  63.6525345  60.8802261  75.6821518  63.7490196  60.4599915  76.5367432
  63.5186691  61.8062019  75.8843384  69.0381851  15.1262617  18.8036366
  68.4490280  15.5324354  18.1679134  69.3744736  15.8584414  19.3204079
  66.2663727  -0.0045181  51.7791367  66.3143005   0.7159682  51.1507797
  66.8669968   0.2486743  52.4801178  72.6765518  18.8051643  15.9516153
  72.7657013  19.6309528  15.4758453  72.5397644  19.0668831  16.8621216
  80.5292740  70.1669769  17.3351040  79.9944382  69.9127197  16.5830879
  80.8117294  71.0598831  17.1371918  41.6040115   3.0961971  41.3622131
  42.4665375   3.4760334  41.5295639  41.3075027   3.5206401  40.5571251
  86.0822220  33.5063972  37.1224670  86.5368195  34.0789680  37.7403069
  86.0941315  33.9886513  36.2957153  56.7203522  29.8597946  11.1985693
  56.3237000  29.1429615  10.7035437  56.3077545  29.8123684  12.0609770
  19.0384560  37.4537277   2.5547152  18.1649017  37.7983551   2.3693252
  19.0847359  36.6377525   2.0564423  70.9156113  26.4340973  59.8083763
  70.1363449  26.1958370  59.3061752  71.6468353  26.2424774  59.2211533
  84.4465637   9.1616430  55.9970436  84.9181595   9.9393463  56.2953873
  84.7639160   8.4575033  56.5624695  47.0850525  37.1951294  68.8112564
  47.6018219  37.9659386  69.0458374  46.2934341  37.5512085  68.4077911
  10.1479502  65.8737183  13.5374289   9.4941816  65.2005463  13.3485928
  10.6311970  65.5337219  14.2904930  71.9375763  54.4347801  58.5217705
  71.6762009  54.4539566  59.4423943  72.6926422  55.0212173  58.4748993
  16.0655918   8.0486641   0.5525354  16.4319077   8.5979395   1.2456019
  16.8301315   7.6898880   0.1019910  18.2947960  47.1589737  83.8446045
  18.9756088  47.4055672  83.2185745  17.5549507  47.7271423  83.6300354
   0.1398511   5.1227889  52.2684288   0.2309360   5.2553635  53.2120209
   0.0670863   4.1738920  52.1658096  85.2475815   7.2562442  86.7630539
  84.7625122   8.0772934  86.8456192  85.7583771   7.3595309  85.9601517
  26.8544273  58.1999321  54.0716400  27.6177845  58.7708015  54.1589622
  26.5800514  58.0274544  54.9723053  31.9074879  30.5171471  19.0638218
  32.6048737  30.5479908  18.4088898  32.1893921  31.1300087  19.7429123
  80.0934067  48.2384949  28.7232132  79.6748199  48.9776535  28.2820034
  79.4439621  47.9408112  29.3602638  81.4990311  23.1091385  49.1728859
  81.5808716  23.5535145  48.3290482  81.9998932  22.3003120  49.0672150
  55.0294876  31.2879944  28.0427437  54.7100525  32.1696548  27.8507442
  54.9985809  30.8334408  27.2009258  59.1753807  53.1155128  43.9792023
  59.4426880  54.0082626  44.1977844  58.7477341  53.1955109  43.1265869
  54.6015091  54.9788628  14.7664270  55.0123405  55.1578674  13.9206114
  53.6840935  54.8057289  14.5552273  74.1009521  70.3682861  86.3852081
  74.2978897  69.5018387  86.7411728  74.6861115  70.4568100  85.6328812
  80.7591705   4.1530604  88.7337570  81.3792572   3.9123738  88.0454330
  80.0894699   3.4698677  88.7024155   3.4089844  30.4194794  24.2776375
   2.7643995  30.9034824  23.7614174   3.8458383  29.8510895  23.6433487
  25.5466728  20.4418316  15.6871824  25.6004562  19.5873280  15.2592077
  26.4584961  20.7036362  15.8147316  84.4384842  60.2141075  83.3181381
  83.9222031  59.5107574  82.9244614  84.1227493  60.2669067  84.2202225
  70.4911804  50.1078377  56.4175835  70.8843765  50.8264694  56.9127655
  70.1543655  49.5120087  57.0867462  55.6380577  36.2494965  24.4391537
  56.1110725  36.3137474  25.2688293  54.7982368  35.8537827  24.6722698
  65.8024445  41.4168816  62.9591637  65.7718887  41.9890327  62.1923904
  65.7801208  40.5307770  62.5978508  81.9274826  38.4173927  87.4654694
  82.4752655  38.0403938  88.1539764  81.1027679  38.6273766  87.9036255
  17.7421818  27.5616951  60.0442429  17.4736385  28.4557800  59.8327522
  17.8199368  27.5542946  60.9982491   6.1114140  12.7070932   4.7226124
   6.1691213  13.0668068   3.8374529   5.3216257  13.1030025   5.0910182
  49.7998466   5.0094881  26.8044548  49.8297920   5.2042656  25.8677597
  49.4166832   4.1337733  26.8548622  77.3537369  31.2968197  33.7470818
  77.5802078  32.1150169  34.1892319  77.4433670  31.4954872  32.8150253
  54.3013496   0.9642966  27.5490246  54.9655571   1.1079019  26.8749065
  54.4018822   1.7056627  28.1461010  67.3878250  11.5417957  16.9011269
  67.1988831  11.1508551  16.0480747  66.8571777  12.3381567  16.9224548
   2.0193074  15.0713472  22.9146976   2.9210765  14.8580065  23.1545506
   1.5956610  14.2213116  22.7955551  19.4506683   8.7498169   2.2117164
  19.3253117   7.8240471   2.0032258  20.2636681   8.9877491   1.7660125
  58.3307037  22.6525726  48.7007408  58.0567627  23.1673698  47.9416809
  59.0284195  23.1704884  49.1022224   2.1880198  42.8096466  10.9686804
   2.6223328  43.3160439  11.6550961   1.4223254  42.4296913  11.3994684
  60.0950623  36.4128647  29.3197937  60.4357033  37.2785339  29.0943699
  60.8390312  35.9581070  29.7146854   6.1997924  51.8207664  14.4299955
   6.1448426  50.9544334  14.8333292   5.5866299  52.3578949  14.9317532
  86.2111511  29.1403522  71.7167435  86.5509796  28.2809086  71.9659500
  85.8141479  29.0008373  70.8570023  27.8205204  71.5380936  81.2193146
  28.3659420  71.8336411  81.9482803  27.4460564  70.7103043  81.5205994
   3.2263360  32.1816521  15.7343388   3.6658263  32.9547653  15.3802528
   2.5761294  31.9508591  15.0708647  69.2010651  36.1905708  74.8558578
  68.7256851  36.6974297  74.1975708  70.1243896  36.3415604  74.6536179
  55.5973434  55.4636765  64.2133255  55.9174919  55.7029839  63.3435745
  56.3675156  55.5278854  64.7780762   8.1044731  55.0387573  23.1042786
   8.3476200  55.9488525  22.9344597   8.6155748  54.7942581  23.8757877
  77.8377304  31.9030380  24.4596348  77.1215591  32.2635384  23.9367886
  78.0604172  31.0796089  24.0253448  50.3656693  29.1771393  26.3233204
  50.0391388  29.9765320  26.7363338  49.6861000  28.9384880  25.6928711
  83.1667252  57.8894653  83.1574097  83.1122131  56.9570961  83.3670502
  82.5501785  58.3066864  83.7590942  80.6771088   9.0821810  47.4616776
  79.7335129   8.9240484  47.4324379  80.8755875   9.1753454  48.3934288
  31.8541145  68.8410645  11.2196207  31.4332390  69.0186615  12.0607834
  31.4372673  68.0376740  10.9081230  83.6603622  71.2488403  62.6204453
  83.7701569  70.4163361  63.0799103  82.9942627  71.0700531  61.9566841
   1.0248771  16.0538921  20.3124714   1.2294953  15.8872185  21.2325706
   1.2525942  15.2389221  19.8650322  63.7096100  18.4820728  46.1147118
  63.7322655  19.2654419  46.6643028  63.4709396  17.7754211  46.7146378
  60.3491249  68.4252853  12.3873367  61.1779938  68.3973160  12.8652735
  59.8191223  67.7353210  12.7864304  49.8301201  11.3666592  46.3492622
  48.9802094  10.9724903  46.5455093  50.0722389  11.0023365  45.4978676
  84.2964935   0.9702798  22.0185566  83.5765228   0.3408942  22.0603809
  85.0848618   0.4406081  22.1375103  26.7406120  48.8842163  32.2909393
  26.0622940  49.5581856  32.3343201  26.9140396  48.6597481  33.2051430
  33.1849136  52.1127777  27.2231388  32.8265038  52.9249229  26.8650932
  34.1228180  52.1630554  27.0386276  50.9915848  60.5860939  62.0815773
  51.2203140  61.4153252  62.5014420  51.3297157  59.9157257  62.6753006
  63.4502945  27.2203732  23.6903763  64.1468964  26.6044464  23.4631901
  63.2919235  27.7109661  22.8838596  84.9439087  58.7540016  53.1458359
  84.3079987  58.8508186  52.4369774  85.7933960  58.8877602  52.7254677
  64.9435349   6.7142797  24.5298672  65.6681137   7.0909419  24.0305252
  64.5640945   6.0591116  23.9441948  41.6795235  69.6298599  68.9693985
  40.9608917  70.2574081  69.0466995  41.3392220  68.9458847  68.3926697
   1.7678859  65.9624634  43.8588676   1.6604408  66.8944855  43.6690826
   2.1620533  65.6003342  43.0653152  29.5023499  60.5645714  14.8925686
  29.1100941  59.9400291  14.2823935  29.8202724  60.0248528  15.6163483
  64.8166428  18.5569782  10.2295065  65.3614731  17.7955894  10.4287090
  65.4412003  19.2696857  10.0945406  54.8830185  29.8724632  25.2316246
  54.1581039  30.3876343  24.8776054  54.8446007  29.0444412  24.7529430
  57.7272530  46.7091789   4.2877030  57.2785835  45.9096870   4.0124836
  58.0955544  46.4942436   5.1446676  26.2614594  69.1025925  14.7191744
  26.9173527  69.2646637  15.3972387  25.7897739  68.3269577  15.0227118
  72.6527023  37.9874420  58.9575996  73.1330490  37.2081375  58.6779861
  72.2747650  38.3380508  58.1510811  74.4140396  25.5768490  26.5547295
  73.7466049  26.2471848  26.7010384  75.1098557  25.7920933  27.1758080
  46.5031776  57.5820045  16.2392159  47.1962738  57.8311577  15.6278477
  45.9816170  58.3773499  16.3470592  25.9561939  47.2906075  30.4186707
  25.9177818  46.4326248  30.8413067  26.1686115  47.8975639  31.1276951
  52.1895943   0.3571950  59.2379532  53.0730629   0.1254088  58.9516106
  51.7182083   0.5506269  58.4276352  23.0248375  51.9068451   7.7242246
  22.8688889  52.8432999   7.8465505  22.8067932  51.5152359   8.5699968
  28.2658501  62.4337044  58.9232445  27.9119186  63.1497765  58.3957939
  27.9544487  62.6131058  59.8104172  45.3166428  47.5534401  67.0709457
  45.4994659  48.4094429  66.6835709  44.9970627  47.0234261  66.3407516
  24.0377846  23.9787636   1.7533052  23.6256065  24.2026119   2.5877106
  24.0785770  23.0224361   1.7552524  80.7322617   6.2070026  29.1586761
  81.0163651   7.1173120  29.2414818  81.5137711   5.7378263  28.8665333
  51.0366936  39.7786179  60.0193176  51.2641792  39.3589745  60.8490028
  51.1106224  39.0798683  59.3693047  63.0793839  55.5202789  25.3670273
  63.7489471  54.8391304  25.4299393  62.4091454  55.2562332  25.9973354
  61.7336502   8.3817720  78.7751083  61.3873405   9.2515640  78.5756989
  62.5985794   8.3686094  78.3652802  46.1687508  39.7106934   7.6724906
  46.9835815  39.9968948   7.2597322  46.4397736  39.3639297   8.5225105
  62.5805969   4.4159298  13.5578499  62.1782608   3.7488804  14.1140890
  63.3910217   4.0120287  13.2475157  14.0168705  11.5704365   8.7574606
  14.8428507  11.1022921   8.6356812  13.3491726  10.9667931   8.4318447
  56.8479843  47.0196877  18.0354881  56.1138878  47.4151840  17.5654659
  56.6059341  46.0980072  18.1257553  25.4872112   5.7175875  83.4815521
  24.8680630   5.6669264  82.7533188  25.5399818   6.6510849  83.6865616
  40.3057976  16.5172215   6.6513605  39.6453705  17.1996746   6.5316534
  41.1256714  16.9260540   6.3740611  78.0914612  13.2695045  43.1386414
  78.1390915  14.1800261  43.4300385  77.7265167  13.3195515  42.2551613
  85.9971390  12.9642048  20.7185268  85.6245956  12.0831785  20.6833572
  86.4716187  12.9906216  21.5494328   3.2863803  29.1066322  14.7143536
   2.7378907  29.6537457  15.2765436   4.1756606  29.4294147  14.8600368
  71.2602844  68.1482391  35.3707962  70.4410858  68.4358597  35.7738152
  71.8969193  68.8192368  35.6171341   5.9866219  17.3175201  64.2934341
   5.7614045  16.5662136  63.7447586   5.9804959  16.9724770  65.1862640
  46.9714813  69.7497787  29.6413307  47.9221764  69.6916351  29.7363625
  46.7688789  69.1744537  28.9036407  68.6952896  70.8774185  61.6661949
  69.2888031  70.4330978  62.2716217  68.4294815  71.6710968  62.1305771
   7.8914595  58.1719704  48.8684845   7.8769293  58.0779419  49.8209457
   6.9684868  58.2049370  48.6169548  42.9968414  69.1152573   6.3889627
  42.9521790  68.9003983   5.4572587  43.3890800  68.3420258   6.7945404
  80.6989594   3.7078116  15.9371548  81.5520172   4.1418815  15.9269066
  80.0661697   4.4213023  15.8550577  32.9454346  58.6115952  41.8742981
  32.8246269  57.7754784  41.4242439  32.4692879  59.2441483  41.3363457
  68.9032516  43.0905495  22.5793324  69.6374435  43.0992203  21.9652309
  68.1990051  43.5451164  22.1171169  13.4914989   9.3465595  69.6919479
  13.3831215   8.4249916  69.4570007  12.6015844   9.6577559  69.8575974
  40.7154160  58.8542595  67.2405777  40.3314400  58.2680321  66.5885544
  40.6289520  58.3813591  68.0682983  47.1622887  47.5548973  33.8040352
  48.0086517  47.1079102  33.8145065  47.3449783  48.4221878  34.1655121
  85.9447479  60.6874657  36.8672447  85.0304642  60.9491463  36.9760094
  86.4475632  61.4208603  37.2215729  25.3616486  59.7123718  72.3790588
  25.6797276  59.5477180  73.2667236  25.8147163  59.0653267  71.8384171
  28.4737167  61.2434616  71.1963882  28.1162987  61.9636879  70.6770096
  28.5194149  61.5903282  72.0873566  67.9097366  63.8138962  35.9080391
  68.0705948  64.4705963  35.2304688  66.9824066  63.9139290  36.1231918
  63.0219498  70.8721237  75.4587173  63.9029579  70.7246017  75.1147766
  62.6707230  71.5819702  74.9211426  40.5649414  63.6561089  51.9232597
  40.7433586  63.5167580  52.8533020  39.6100998  63.6414032  51.8577271
  44.2082481  67.3465958  66.0786896  44.5860367  66.7525177  66.7272110
  43.3549461  67.5852203  66.4408493  62.7962074  43.0497246   3.0107234
  62.3993874  42.2016296   2.8119848  63.1411438  43.3552589   2.1717360
  49.0242348  70.3853149  20.3095798  48.4863319  70.4047928  19.5180531
  49.6696625  71.0797653  20.1776962  63.4253120  51.2956772  17.7440624
  63.3534050  51.0172691  16.8310719  63.4991074  52.2489471  17.6986694
  75.3306732  66.1494064  14.7908154  76.0274429  66.2077637  15.4445257
  75.1515884  65.2121964  14.7146540  68.0205688   2.9664562  75.1332321
  68.9532166   2.7517877  75.1512070  67.8212128   3.2432098  76.0275955
  52.3167801  61.7067909  12.4474134  52.4134178  60.7946701  12.7211399
  51.8702202  61.6571846  11.6022167  27.3133545  48.4294662  88.1993713
  26.7644882  47.6607399  88.3544235  27.2563324  48.9322891  89.0118713
  85.3313599  45.2826614  39.2551308  85.6173935  45.0234604  40.1310501
  85.0706711  44.4626122  38.8358574  50.0952644  30.5047379  22.2270222
  49.7881088  30.9488449  21.4366684  49.5673943  30.8788376  22.9324512
  55.6497192   6.1104565   2.3658495  55.5811806   6.9783478   1.9679818
  56.5560379   5.8457527   2.2085309  12.9683495  51.3600616  23.6161194
  12.6694727  52.0029678  22.9730186  12.6602507  51.7004128  24.4560413
  33.4554863   1.6600955   4.8247714  32.7868996   1.3142879   4.2334685
  32.9852905   2.2813463   5.3808236  73.8651657  71.1215057  49.3507652
  73.0847244  71.2961960  49.8767166  73.5256500  70.7688446  48.5282135
  52.4661674   8.1536274  76.0081177  51.9578133   8.6619530  76.6401062
  51.8294182   7.5592604  75.6112442  32.5143471  65.2028198  15.7493811
  32.6033745  64.2612381  15.8968134  31.6046829  65.3958282  15.9762955
  16.4479828  63.0583763  85.1216965  16.6162891  62.1577377  85.3987427
  16.1930351  63.5123596  85.9249039  15.6029892  46.6309128  39.2515221
  14.6907301  46.9045639  39.3470764  15.6718073  45.8372498  39.7821770
  58.1582603   2.4269190  42.5333633  57.3919716   1.9606680  42.8674965
  58.1547318   3.2609856  43.0029945  41.7251968  28.0476494  14.6764574
  41.2620239  28.8826942  14.7427988  41.0836372  27.4474335  14.2964935
  59.4314346   4.1850843  28.0824509  59.4376373   4.9274035  28.6867313
  59.7422142   4.5486126  27.2532978  16.7149906  21.6338940  20.3135185
  16.3708286  22.5222855  20.4059525  16.7627354  21.4927063  19.3679924
   1.7314053   1.7980616  66.7255478   2.3397591   1.5626954  66.0250168
   0.8636880   1.6734990  66.3411255  80.2340240  62.4738655  78.1323013
  79.3321381  62.2730942  78.3823395  80.6890488  61.6331749  78.1816025
  73.2186813  67.0662231  21.2805328  73.4649429  67.6958313  20.6029053
  72.2666245  66.9975586  21.2090664  62.5701485   1.4765244  24.2619514
  63.3680153   1.2528064  24.7411118  62.5201988   0.8250129  23.5624733
  54.2168045  10.2198563   9.9964962  54.1921654   9.8699369   9.1058893
  53.9686241   9.4803905  10.5513191  77.3033447   3.8738573  19.9121037
  78.1840515   3.5751035  19.6855488  77.4442215   4.5696540  20.5541725
  26.7799873  62.7596626  65.0947113  26.2773666  63.1494980  64.3794250
  26.4568310  61.8605003  65.1522522  11.1164513  38.3847046  27.4102020
  11.4650402  39.2588806  27.2354755  11.6845341  38.0329056  28.0955887
   7.3714132  69.2396622  25.2096348   8.2434168  69.1266785  25.5878887
   7.5344915  69.5711212  24.3265877   4.0787764   0.0463665  15.0854845
   3.5282969   0.8268090  15.1496201   4.5418258   0.0104357  15.9224586
  24.3015251  59.1489868  53.1582413  24.5325203  60.0755539  53.2241364
  25.0012627  58.6937943  53.6266441  54.9528427   2.6346939  21.9889069
  54.5127373   3.4493752  22.2314587  55.8332024   2.9062092  21.7291431
  74.1717453   9.1369572  87.1355820  73.2907944   8.7764063  87.2363586
  74.5004272   8.7437630  86.3271255  21.5368042  45.2283974  33.9747391
  22.4255409  45.5817146  34.0140648  20.9708290  45.9997253  34.0056877
  15.1676559  17.1953125  81.0610962  14.8307285  16.3338108  80.8150787
  15.9075298  17.3404713  80.4713898  75.1529465  12.6456690  43.5065956
  76.0926208  12.4826021  43.5881538  74.7565308  11.7745342  43.5211525
  14.1410484   6.8918104  39.5186653  14.1217327   6.6544523  38.5915642
  14.4653482   7.7923446  39.5286407  68.4121323   3.2058773  32.4722595
  68.4765701   3.0276303  33.4105034  68.9926224   2.5624101  32.0657959
   2.2092605  55.4631577  24.5807381   2.9759340  55.5403328  24.0128574
   2.0917847  56.3404770  24.9450760  47.0431252  61.5167007  27.8337574
  46.1232033  61.2694168  27.9276981  47.3734550  61.5559196  28.7312965
  39.8063354  52.7790680  19.6815453  39.8678780  52.9706497  20.6173573
  40.4092827  53.3982887  19.2701416  33.5173721   9.4003487  42.9378357
  34.1900520   9.5358162  42.2704659  34.0061035   9.1620378  43.7256088
  81.2385941  10.0372753  13.4503393  80.4983139   9.4418974  13.3331385
  81.4250259  10.0058222  14.3886824  57.7542839  70.0417175  23.3886375
  56.9841652  69.9283981  22.8315830  57.5324669  69.5845718  24.1998425
  50.5534859   9.4965649  11.1974697  49.6888466   9.8200893  10.9445610
  50.9647331   9.2414322  10.3716288  72.6302338  50.1020584   3.7019491
  72.8857574  50.7243233   4.3829241  72.3777161  50.6503067   2.9590557
  42.8164330  50.3956718  76.3498535  43.0931129  51.2197685  76.7505341
  42.0314789  50.6232719  75.8515854  77.0103455  21.7302189   6.2884536
  76.1125259  21.5134926   6.5398192  76.9173508  22.2394428   5.4832983
   8.0801401  25.5013752  31.6536026   7.8338594  25.8258514  30.7874088
   7.4915547  24.7626743  31.8089104  76.4611359   3.3388271  85.0387039
  76.7177658   2.5726254  84.5255661  75.6143723   3.1013367  85.4166183
  60.9823456  16.2558670  69.7919693  61.3359261  16.2648945  70.6814270
  60.0342369  16.2011242  69.9116745  77.5828552  10.5217304  67.9847870
  76.7244492  10.2496176  67.6602478  77.4242859  10.7824345  68.8920441
  41.3361588  45.2242622  29.9081001  42.0231857  44.9426994  29.3039913
  41.3883018  44.6045494  30.6357441  36.6619873  51.6184006  84.4018402
  36.2013474  52.1992226  85.0073853  36.9294662  50.8739319  84.9407806
   1.5463090  30.5219688   8.4122124   1.4589928  30.4959526   7.4593582
   2.2613263  29.9151325   8.6038637  72.8630905  40.1034737  63.4307213
  72.2767181  40.3522263  64.1452332  72.5954819  39.2138901  63.1999474
  21.8812885  46.6112518  17.0342655  21.6367435  46.7219849  17.9530525
  21.1463470  46.1362381  16.6463795  24.3601990  48.7642136  61.3464317
  23.9186726  49.5956764  61.5195045  24.8286343  48.5683250  62.1578674
  82.4233475  63.0430107  30.4532471  81.5689468  62.8953209  30.0477562
  83.0452347  62.9902191  29.7275028  56.4783440   8.7566977  43.4504128
  56.8820457   9.3155165  42.7863541  56.0573044   9.3683634  44.0544205
   2.7318640  49.7735214  29.9330101   3.6391172  50.0690041  30.0092621
   2.2612576  50.5318642  29.5870705   5.4983721  15.0405321  13.7248812
   4.9429965  14.4248600  14.2031460   6.3109360  14.5590973  13.5693436
  41.0317726  39.7060165  78.7687759  40.4937439  39.4649887  78.0146790
  41.9143562  39.4185867  78.5349655  79.6523514  27.3333988   2.5550611
  80.1487579  26.8503551   1.8943955  78.7702484  26.9646168   2.5089221
  85.7818832  16.0949936  44.1016121  86.1724396  16.0969505  43.2277145
  85.1283951  15.3962812  44.0703354  20.4334717  60.8084793  16.4860096
  20.1286011  60.6764755  17.3837070  20.8123856  59.9659500  16.2354145
  31.0504799   9.2272768  85.9349365  30.1459484   8.9570827  85.7766647
  31.3694096   8.6180630  86.6007996  20.3727551  13.4609280  21.2900391
  20.0816174  13.2815943  22.1840801  20.3981419  12.6014442  20.8694725
  12.9880915  46.9140816  40.3546753  12.9246502  45.9854851  40.1312485
  12.1020880  47.2525597  40.2255974  61.9100227  64.5051117  61.6637459
  61.0013046  64.2823944  61.8658943  62.3400040  63.6601944  61.5316124
  63.2808838  64.9333038  10.5893745  62.6602631  64.9426117  11.3180552
  62.8276291  64.4554214   9.8948126  50.9768257  19.7255440  49.8049126
  51.5788994  19.1804733  50.3115044  51.2824287  20.6206112  49.9522018
  61.3997841  34.0757141  11.1425905  60.5552826  34.2582016  11.5545979
  61.6818848  33.2476578  11.5311460  44.2105865   2.9329975  57.4763184
  43.7176132   2.2808502  56.9784088  44.5169220   3.5560596  56.8173904
   6.9749246  53.5699005  47.8812294   6.0360928  53.6270027  47.7035599
   7.0302844  53.3776512  48.8172874  63.8810768  66.1564713  56.1835594
  63.8166847  65.9818497  55.2446251  64.1126099  65.3114471  56.5690041
  10.2353487  13.4238510  22.1454868  10.2264862  13.7316189  21.2391586
  11.1599178  13.4345951  22.3930511  19.5597553  28.3506699  24.0041618
  20.1391582  27.9888783  24.6747074  19.4675007  27.6467133  23.3621597
  61.8329620  13.3843117  11.7721443  61.3254623  13.6227427  12.5479193
  61.7843971  12.4289379  11.7384768  86.8698959  59.3939590   2.0587692
  87.4292374  60.1128082   2.3530846  85.9814148  59.7469177   2.1062648
  78.3665771  52.9806213  35.3761749  77.6139603  52.4697189  35.0782318
  78.3823547  53.7433014  34.7979889  64.5336761  67.8869934  82.2707214
  64.6776657  68.5857544  82.9088669  64.2978363  68.3445053  81.4636993
  64.9903717  13.5834379   9.6109543  65.2407303  13.0686131   8.8438139
  64.4703827  14.3045349   9.2561769  44.8703613  65.3769379  82.1747894
  45.6275902  65.5071182  81.6039200  44.5148354  66.2560349  82.3052673
   6.3965521   7.6302147  10.0240660   6.2174153   8.3549681   9.4250059
   5.7036152   6.9946008   9.8449984  23.4029484  12.9957266  70.9327393
  22.9081326  12.1799879  70.8555527  24.1830750  12.8543091  70.3964233
  43.8700600  54.9637833  65.2040405  44.7348442  54.5541878  65.2287598
  43.5386047  54.7707787  64.3270416  53.2199631   5.8509297  73.0889282
  53.4403381   6.7291660  72.7785034  54.0603943   5.3950262  73.1342926
  72.7878876  59.0720863  53.1146889  73.6862793  58.8995438  53.3963814
  72.3011856  58.2896385  53.3737831  86.1014252   1.1380708  65.8960953
  85.3885422   1.6835201  66.2285309  85.9454117   1.0886488  64.9529877
  27.5901661   3.7881899   6.3869686  27.9036160   4.3139067   7.1229057
  27.2321796   2.9983201   6.7921634  13.2973595  43.8212357  75.2295837
  12.5507402  43.2350502  75.3527985  13.9310331  43.3013268  74.7352371
  40.4542656  53.2941971  80.1211700  41.2116737  53.8762283  80.0594635
  40.1676712  53.3697510  81.0313339  73.5989075  25.1209202  33.0904236
  73.7673035  24.1861973  33.2094574  74.3582306  25.5528183  33.4817429
  51.5111542   5.0804405  66.3522034  52.3662682   4.6512380  66.3803482
  51.4766998   5.5986695  67.1562500   9.6777678  50.4910507   6.9769983
  10.3499079  50.9986229   7.4317846  10.0962858  50.2160797   6.1612372
  30.7228470  51.0852013  59.9001122  30.6023750  51.9589005  59.5281372
  30.1298180  50.5269279  59.3972359  53.9392853  55.9569550  68.1023865
  53.3815575  55.9869919  68.8797302  53.4997215  56.5255127  67.4701157
  48.9274216   1.2975367  37.4455566  48.9903259   0.3990080  37.7694702
  49.8336372   1.6038904  37.4116020  62.9688301   1.3879161   0.8313745
  63.4126129   2.0380859   0.2867944  62.0458069   1.4623498   0.5890481
   1.2650483   4.1084061  61.2637520   1.9244320   3.6540427  61.7881546
   0.7098126   4.5493698  61.9067879  53.8701363  24.3339119  24.7549667
  53.0945473  24.5361881  24.2317295  54.4577980  23.8838615  24.1480560
  13.7371635  27.8085499  86.6435013  14.1509485  28.5187302  87.1340637
  14.1398573  27.0120907  86.9895096  57.6809425  22.7545795  31.4915981
  57.4797478  23.6804676  31.3556404  56.8512306  22.3036861  31.3350525
  74.7544098  20.9015293  83.1972580  74.5940628  21.8353691  83.0613632
  74.4042664  20.4815712  82.4115982  33.0944366  57.2743187  86.8242111
  32.6394081  56.8917160  86.0740128  32.4313393  57.3104630  87.5135803
   0.8002338  58.2462997  55.9598732   1.5482055  58.4600716  55.4021339
   0.3119471  59.0665550  56.0304871  66.7369614  17.0073681   4.0201578
  66.4985199  17.6622810   3.3640573  67.2806320  16.3790779   3.5448568
   8.6614666  11.1068439  66.2232666   9.3891058  10.9207773  65.6298447
   8.0225239  10.4174709  66.0422974  47.5430069  42.0558205  10.9338999
  47.6771278  41.1459999  11.1993561  46.6147156  42.1043282  10.7055283
  30.4256210  58.4087105  34.7259636  30.9716339  57.7484550  35.1527748
  29.5955105  58.3768616  35.2015038  19.0819378   0.9113584  17.0550957
  18.6359482   1.7361494  16.8626232  18.9627838   0.7887465  17.9969044
  73.5297852  13.0994339  27.4075069  73.8420105  12.7066107  26.5923767
  73.4888992  14.0374126  27.2210770  55.2560272   8.9022427  85.8349915
  56.0155373   8.3747168  85.5878220  55.4793549   9.7897739  85.5545578
  63.6870003   9.0565987  25.4096870  64.2820206   8.3073692  25.4386044
  64.2505188   9.8158770  25.5585995  11.3254547  24.1297455  30.8590088
  10.6467848  24.7978001  30.9556637  12.1280355  24.5590305  31.1553364
  55.9092026  68.4625702  72.1245270  56.5169334  67.9287720  72.6363373
  56.3808746  68.6511917  71.3132477  52.7738495  10.3067083   5.3037882
  53.1722298   9.9459763   4.5117035  51.8614807  10.4657946   5.0619006
  85.9958191  18.9612675  42.2606277  85.7834930  19.7958317  41.8427124
  86.5067444  19.2033291  43.0330238  33.3322487  52.1609230  84.6370163
  32.4549980  52.4208870  84.9182358  33.2082634  51.8180580  83.7519684
  75.9512024  42.4518547   9.8018665  76.2854080  42.3255692   8.9138393
  76.2840424  41.7001686  10.2921934  28.4367161  37.1555748  84.9467239
  27.7148304  37.7685509  84.8075409  28.8707905  37.0994682  84.0954514
  52.3342056  46.1007271  51.2357826  52.4731178  45.2096024  50.9151115
  51.3825722  46.1934738  51.2807503  38.1716919  28.1837940  88.1591568
  39.0595474  28.1890945  88.5168152  38.2919273  28.0307560  87.2219543
  62.3856049   9.3656712  22.9588585  62.9734230   9.2212934  23.7003822
  61.9177895  10.1716461  23.1774540  81.6824875  26.2608566   4.9760060
  82.0271072  27.0180416   4.5025773  82.0333939  25.5044594   4.5059466
  80.9510880  16.6518822  69.3817520  81.4220963  17.4806614  69.4683838
  81.1722717  16.1664810  70.1765442  26.1032047  68.3040848  81.2940292
  26.9488659  67.8696136  81.4050598  25.4736996  67.7114563  81.7048264
  25.3143158  17.0694771  83.7692947  24.8133564  16.3334293  84.1207275
  25.2929249  16.9426308  82.8207779  57.6629829  32.9822159  34.2880745
  57.8398628  32.3465996  33.5945778  58.3621674  33.6303825  34.2029228
  50.7181396  38.9799995  55.5009041  51.6258049  39.0978775  55.7810440
  50.3504601  38.3628578  56.1335030  60.8164215   9.0090675  57.1149101
  61.2738953   8.2049036  57.3604088  59.9181862   8.8755541  57.4175262
  43.3049431  38.7947922  77.7681046  43.0249519  38.9468803  76.8654938
  43.7663803  37.9567070  77.7377472  45.6276741  10.9826870  50.9286537
  46.0250587  10.1252251  50.7767448  45.1214714  11.1560717  50.1349716
  39.5811043   5.0284634  71.9589996  38.9386826   5.6048117  72.3729401
  40.3908005   5.1839728  72.4452515  54.7145348  61.0730019  71.9327621
  55.2837715  61.7585106  72.2824478  55.2507057  60.2804642  71.9579926
  50.3179893  14.4665565  51.0692215  49.9703751  13.6468849  50.7177467
  49.5540848  15.0386095  51.1429443  39.3101540  22.6291885  26.6186237
  39.5713081  21.7086315  26.5940304  39.2806053  22.8944130  25.6993771
   7.3526382  66.4272156  16.3001938   7.6933103  65.7597733  16.8957577
   6.7606869  65.9498444  15.7188673  70.3548737  61.0545044  40.4825935
  69.5779953  60.6933212  40.9094925  70.1677170  60.9853020  39.5464249
  83.1246414  52.6932945  36.4548111  83.0671692  51.7394295  36.5102463
  82.2186127  52.9818573  36.3449783  57.1896019  31.6022701   6.9110136
  56.4123650  31.1411171   6.5956154  57.8724670  31.3817635   6.2775292
  61.6593628  33.6623993  46.8602486  61.3803177  33.0332985  46.1949692
  61.0390129  34.3869324  46.7799187  15.3059835  25.0538483   5.2405987
  15.3925104  24.4223576   5.9547162  16.2024937  25.1963997   4.9369874
   6.8501363   2.4877155  29.9299793   6.7953825   3.3596346  30.3211193
   6.8694906   2.6491501  28.9866886   2.3438275  60.1934090  39.2721977
   2.8822057  60.8722153  38.8652611   1.5269054  60.6385727  39.4973640
  31.3563957  60.1848297  86.1798401  32.0880814  59.9714775  86.7589340
  30.6756363  59.5529861  86.4112930  68.0172577  65.4965363  33.7997055
  67.3647232  66.1726990  33.6174011  68.8568954  65.9527512  33.7439804
   8.5389290  63.0416374  43.7388115   8.4569092  62.3525848  43.0794830
   8.5853786  63.8528976  43.2329178  39.8707809  37.1500435   2.2605431
  40.4064217  37.8513756   2.6312926  40.2299614  36.3481216   2.6402075
   4.1571345  26.9108334   5.2054138   3.5202878  26.2380714   4.9644771
   3.6728089  27.5046463   5.7790403   7.2411084  26.3940334  63.5425262
   7.3115830  27.3117065  63.2795792   7.2170658  26.4201374  64.4990692
  80.5363541   6.8229609  57.7250595  81.2160339   6.7641978  58.3964882
  80.7940216   7.5724974  57.1883736  62.6463699  17.5121479   3.6176748
  62.0920448  17.7183266   2.8650467  63.2572174  16.8513756   3.2913725
  17.4249611   8.1780767  70.4774170  17.9850788   7.8061600  69.7961121
  17.9458027   8.1126394  71.2778397  64.1284409  38.7285118  61.4314613
  63.9435539  38.8584900  60.5013275  63.3803635  39.1210289  61.8815002
  29.1780396  64.4520035  11.8106279  29.0015945  64.8678741  12.6545181
  28.9026680  63.5429878  11.9293442  69.1510086  14.3925581  39.8804245
  68.9966736  14.6509266  40.7890816  68.3144226  14.5476589  39.4419136
  14.6081495  13.1950617  65.2563553  15.0040417  12.6182709  64.6030502
  14.6205988  12.6842747  66.0657883  35.7919235  45.8199539  66.3498688
  35.8777580  45.6792603  67.2927704  35.1202278  45.1959572  66.0747604
  30.1824245  57.5984001   8.6438713  30.1626511  56.6431923   8.7023783
  29.8227043  57.8970184   9.4791307  23.0182152  33.4423027  66.9794846
  23.1407776  33.5435371  66.0355759  23.0644569  32.4976768  67.1270599
  42.3308640  61.4432449  49.5953827  42.2645302  60.8361588  48.8583069
  41.4785461  61.8778725  49.6251488  77.3370743  35.2757225  50.3754692
  76.6299896  35.8177872  50.0255775  78.0795746  35.4474869  49.7963104
  86.7960663  52.6967430  14.1492453  86.0593414  52.5295486  14.7370443
  86.7872849  51.9597130  13.5385571  50.5078239  70.5650253  30.1903000
  51.2947655  70.0202942  30.2053280  50.1606522  70.4599152  29.3044930
  83.9818649   3.1263082  75.7122955  83.1435318   3.2349908  76.1613159
  83.8673172   2.3403435  75.1780930  36.7688217  58.7102394  88.0381393
  36.9931450  57.9297218  87.5314789  36.3033485  58.3732681  88.8036575
  75.4128876  68.0200577  31.1651058  74.6086502  67.7426376  30.7263870
  75.1383438  68.7357483  31.7383747  49.2155418   6.8919015  62.9938774
  49.0680885   6.5452089  63.8738136  50.1168518   6.6447659  62.7870026
   7.6948514  55.7182198  84.0583496   7.4330225  55.8893318  84.9630051
   6.9187641  55.9310379  83.5400543  58.5311241  47.2041016  23.7503471
  57.8686371  47.3302727  23.0710678  59.2100220  46.6778450  23.3279877
  15.7571793  43.8950882  72.5829773  16.1228161  44.0419655  71.7106400
  14.8093605  43.9339104  72.4550476  67.6029129  49.3528023  16.4392796
  68.4427261  49.4385757  15.9880838  67.5598297  50.1180420  17.0126762
  16.8628178   3.5723367  78.6169434  16.8287640   2.6647410  78.3147125
  16.1247215   3.9979115  78.1806717  11.7588177   2.0438831  64.4871979
  12.6854067   2.2350805  64.3419113  11.3028984   2.5348263  63.8035698
  72.0539093  22.4370480  59.1376305  72.5609970  23.2211056  59.3482323
  71.3974457  22.3826637  59.8321304   5.9396262  58.4066200  70.3399506
   6.5921226  58.4034004  69.6396103   5.1584668  58.7864456  69.9377594
  19.6256618   8.4216604  21.5140476  19.8703403   9.2217579  21.0490646
  20.4146614   8.1739759  21.9960880  26.9247551  53.8855057   8.5319338
  27.8724785  54.0155449   8.4981337  26.5625401  54.6427460   8.0719137
  20.6501446  51.8734779  72.3883514  20.3309402  51.4930878  73.2066727
  20.4743233  51.2031898  71.7280273  77.6486435  52.4864769  65.9785767
  77.7056656  52.9908752  65.1670532  76.7176208  52.4946594  66.2007523
  76.8897095   2.5183229  51.8122253  75.9752579   2.6844420  52.0411530
  76.8861465   2.4323871  50.8588982  59.4146729  33.5810051   4.8941755
  59.1708832  34.5018578   4.9881287  59.5187645  33.2679176   5.7927160
  56.1015472   3.1182282  76.3841019  56.4227638   2.2656741  76.0904999
  56.2068214   3.6889465  75.6229019  71.1929321  64.9990082   5.0829263
  71.6493530  64.6382370   5.8430276  70.7771606  65.7968826   5.4096704
  18.7143917  32.8992195  77.1417999  19.6542110  33.0327034  77.2649002
  18.4857864  33.4687042  76.4071808   0.2153601   3.7418923  87.9981689
   0.4398437   3.4031086  88.8648071  -0.2726901   3.0312304  87.5822372
   5.5821385  46.5095406  16.2958202   4.8007631  46.9401512  15.9490356
   6.3031311  47.0910339  16.0544395  37.7095413  62.5889130  15.8235960
  36.8380127  62.9309349  15.6243668  37.5481873  61.8469048  16.4063625
  33.4362869  65.5501938  53.9707413  34.3477249  65.2914886  54.1070518
  32.9547691  65.1085358  54.6702461  42.8336639   0.3907523  23.6091919
  42.3597832   0.7975450  24.3345814  43.6031647   0.9461945  23.4843502
  25.1872845  54.4050713  74.5417328  24.7809753  54.1149178  75.3584061
  25.8395176  53.7322502  74.3464584  47.8093872  36.4163551  81.2423019
  47.4455261  37.2885094  81.3945694  47.0700836  35.9015236  80.9188614
  38.8931847  56.3962097   0.7287790  39.6946297  56.2924576   1.2417592
  38.7395134  57.3408623   0.7130039  43.3776283  52.9168053  77.0693588
  43.8623199  53.3836250  77.7500839  43.8958244  53.0460205  76.2750015
  56.0880280  44.7992363  67.0059814  55.5487671  44.5427208  67.7540665
  55.9506035  45.7429733  66.9240570  21.7141571  41.8043442  32.4023705
  22.6182804  42.1156273  32.4458847  21.4576912  41.6849327  33.3168106
  53.9107628   5.5100923  76.9082336  53.2561111   6.2064667  76.8560181
  54.2182426   5.5378661  77.8142776  58.6249275  21.4517784  40.4474602
  58.4080276  20.5194950  40.4414330  59.0037422  21.6151409  39.5837212
  32.2135773  32.7498741  12.5164824  32.6416931  33.2422104  11.8160887
  32.3426704  31.8320160  12.2775183  60.7901497   7.9520726   8.8614302
  61.5469666   8.0604372   9.4373779  60.0335808   8.0852995   9.4324675
  31.6041451  17.1416340  78.5133820  30.7849102  16.6592636  78.4020004
  31.3343906  18.0565262  78.5936127  20.2518654  53.0028229  23.2399883
  20.1151543  52.2139206  23.7645607  21.0074177  52.7965775  22.6896820
  29.9897156  16.7984447  88.8900757  30.0310097  17.1599026  89.7754440
  30.9033337  16.7483845  88.6089630  62.0321922  25.7367821  80.5201340
  62.9664650  25.6283264  80.3423538  61.8608475  26.6620522  80.3447876
  33.1597557  33.5228767  30.8740997  34.1029701  33.6531219  30.7760468
  33.0701180  32.6051445  31.1309319   7.0185766  22.8224258  11.1889200
   7.8217335  23.2146015  10.8463297   6.6734405  23.4759979  11.7971601
  56.9468727  65.8807831  37.7887535  57.8614502  66.0919876  37.9762955
  56.8590813  64.9592438  38.0322571  78.4613419  15.1742010  33.5093040
  79.1394501  15.8413229  33.6158600  77.8961411  15.5157299  32.8163872
  78.6776428  32.6565742  86.5141602  77.9547119  32.2507133  86.9925766
  79.4619751  32.2275391  86.8561859  72.4608841  13.3116102  86.1351852
  72.3985367  12.6180372  85.4784470  73.3927994  13.3556986  86.3492432
  32.3016548  56.7231140  18.7163429  32.4633446  57.6637306  18.6433411
  31.6961823  56.5279465  18.0011158  20.3935261  62.7122917  69.0041885
  21.1678066  62.4726868  69.5134125  19.6567688  62.3849373  69.5201874
  78.7028656  60.3872833  74.0618439  79.2367706  60.4751892  73.2722549
  79.0815735  59.6401405  74.5250854  14.6945677  12.1026297   5.7756643
  15.4476843  12.1736412   5.1891446  14.8937855  12.7019796   6.4949169
  76.1454620  33.2467842  29.4151287  76.1546555  33.0135727  28.4868183
  75.8484879  34.1566200  29.4305840  48.1130066  11.5292683   6.7280807
  47.5146103  12.0369349   6.1799650  48.5572319  12.1835384   7.2673612
  75.3243256   1.2666776  60.6455879  75.5557709   2.1467233  60.9425507
  75.3468857   1.3225911  59.6902885  11.2569075   5.0590363  16.2254639
  11.9904575   5.6158009  15.9644098  10.8938522   4.7384772  15.3998346
   8.8651152   1.2882837  76.3340836   8.8757620   2.1176314  76.8118896
   9.7589731   0.9550323  76.4127808  76.5821991  32.8587112  46.8257828
  76.0347366  32.1570930  46.4732895  76.0075455  33.6239624  46.8454895
  26.7360058  53.9667587  32.1878853  26.5470295  54.3516884  31.3321133
  27.4743729  53.3788948  32.0283089  38.4896164  63.2461433   4.1694298
  38.3810806  63.6674309   3.3168058  39.4116974  62.9904671   4.1946087
  17.7251186  68.0499420  84.6764603  17.9024410  67.3644714  84.0323181
  18.0088940  67.6745377  85.5099869  40.9594078  51.7382469  51.1146393
  40.0401039  52.0022697  51.1521111  41.3706360  52.1978798  51.8466682
  70.5071716   1.6574607  30.9502640  71.2356720   1.1097103  30.6578827
  69.8420181   1.5546668  30.2696476  85.6710739  30.4863682  34.6590767
  84.9567261  30.9721260  34.2467957  85.3274460  30.2372532  35.5170364
   7.9410534  23.0716324  30.1618156   8.8490076  22.7888794  30.2709122
   7.9509859  23.6086407  29.3695049  82.8747864  15.9339437  46.2030296
  82.6154327  16.4247284  45.4232216  82.2196960  15.2400866  46.2782059
  81.1416016  54.3832474   5.5391679  80.6193619  53.9922562   4.8387280
  81.1114044  53.7404709   6.2477989  36.5410004  46.2016640   1.6646496
  35.7735748  45.7182465   1.9705904  37.0957298  45.5369339   1.2564372
  60.2232895  50.3389626  46.2706680  60.2206955  50.3920555  47.2263908
  59.4214249  49.8627701  46.0550652  74.6361313  57.9253387  79.4939651
  75.4807053  58.0951958  79.9111862  74.8334351  57.8939438  78.5578461
  19.3375740  60.5778122  79.0462570  19.8828144  60.2516708  78.3303146
  19.2645302  59.8371887  79.6482315  40.8070564   1.0250599  34.3868828
  41.1079102   0.2022787  34.0012016  39.9038925   1.1158522  34.0830994
   7.9820075   4.9855661  82.0345688   8.3763361   4.1543174  82.2986908
   7.4221396   4.7597499  81.2917404  11.1706657  43.7060394  22.5245857
  11.5808687  44.3143539  23.1393356  10.3320122  43.4852524  22.9297352
  80.0437546  64.4313889  36.8575706  80.2581253  65.0049820  36.1218605
  80.4442902  63.5919495  36.6314278  55.6383018  15.6781378  24.1208363
  56.1465454  14.9843168  24.5409946  56.2654991  16.3895130  23.9912167
  55.6836739  40.4603195  35.4952621  56.3611298  41.1123047  35.6747131
  55.0479736  40.9201431  34.9469223  23.8930969  16.8508759   7.4589930
  23.5749092  16.7013969   8.3492985  24.8465996  16.8196507   7.5370164
  36.5190887  30.3298492  86.9333115  37.1419907  29.8336201  87.4643250
  37.0658302  30.8279686  86.3257065   6.4191656  47.7356148  72.9594498
   5.7723513  48.0347328  72.3203964   6.6001244  48.5072250  73.4962082
  81.0522385  20.0129890  78.9865265  81.8805313  19.5351562  78.9435959
  80.8748627  20.1011868  79.9230042  63.5611534   7.8543925  48.1639252
  64.0322418   8.4276886  47.5592461  63.6348763   6.9831233  47.7744560
  21.9116573  15.6247787  75.9956665  22.5383511  15.0419168  76.4243393
  21.6456375  15.1520576  75.2070007  25.8118000  32.3196411  22.7606697
  26.6263981  32.4916649  23.2329712  25.6100445  33.1462250  22.3221664
  59.5424995  62.9002762  79.2456284  59.3121834  62.9828796  80.1710281
  59.4203262  63.7800941  78.8889465  41.8613243  39.0160332  66.5383301
  41.6810646  39.7264481  65.9226608  41.9156990  39.4465256  67.3915253
  48.0715218  28.2604885  30.2742119  47.5229416  27.8535156  30.9447842
  48.7866707  28.6666946  30.7638969  42.5290604  55.4115753  39.0901566
  42.3242798  55.7340851  38.2124977  43.4334679  55.1044159  39.0274773
  70.5719604   7.8371882  10.2341890  70.3550339   8.6730061  10.6472044
  71.1323090   8.0735798   9.4950247   5.1199536   1.3967044  60.8893661
   5.8085599   0.7650062  61.0967560   5.0410423   1.3606509  59.9361038
  45.9592896  21.0216236  28.1341305  46.9073639  21.1023331  28.0298443
  45.7712097  21.4615936  28.9631577  34.2926369  19.5735359  78.9826584
  34.3463593  19.1722393  79.8500137  34.8867569  19.0539207  78.4411316
  56.5818291  57.5615730  26.8873787  56.6094933  58.1153831  27.6676121
  56.3751259  56.6883965  27.2206497  85.0065994  44.3832703  84.1993408
  84.0786819  44.6092949  84.1351471  85.0246964  43.5990601  84.7479019
   6.8136125   1.6549748  56.8892555   6.7532625   1.6558822  55.9339600
   7.5857501   2.1872163  57.0809708  67.8688431  14.6656647  28.5638027
  67.9506302  15.5979652  28.7646942  68.0095825  14.6110859  27.6185799
   1.2118267  11.2664738  74.8883286   0.6646661  11.5816164  75.6077271
   2.1078148  11.3495359  75.2147293  67.4136734   2.5660038  21.0386410
  67.0366287   2.0258012  21.7330837  67.7707748   3.3278575  21.4950314
   5.6086974  46.5326157  35.6210899   6.4170814  47.0293846  35.4947319
   5.8908358  45.6182747  35.6457710   5.7847981  71.1262207  85.6996231
   6.6064243  70.8833084  86.1264191   5.9744134  71.9618683  85.2730408
  10.7559147  59.0006409   0.4534209  10.5274620  59.9125595   0.6335490
  10.2843571  58.4996490   1.1189092  53.9464149  17.6491508  40.2829056
  54.8407974  17.5211811  40.5990334  53.7734299  18.5799732  40.4238930
  46.7532463  55.9892502  69.1396561  46.5694962  55.0679092  68.9563522
  47.4599113  56.2173157  68.5356293  85.1829987  70.0148315  85.2242355
  85.0352249  70.7405319  84.6178055  85.4134979  69.2756119  84.6615219
  75.8941574  22.7535744  79.9702835  76.4397659  22.8577137  79.1907272
  75.8746567  21.8090897  80.1245499   1.4904478   3.0599639  45.0835381
   0.5410002   3.1609054  45.1513023   1.8050349   3.9247000  44.8199120
  66.0198212  35.1303444  29.7436619  65.8599701  34.2966423  30.1859512
  66.3183594  35.7168388  30.4387360  45.2406311  49.7118835  70.8232269
  44.3582306  49.7328072  70.4528732  45.7224121  50.3773079  70.3319778
  24.8278732  45.4141541  85.6521988  24.6849060  44.4892693  85.4512634
  25.6542244  45.6283722  85.2192001  62.0166740   1.2624129  74.1943512
  62.2621574   2.1072383  73.8171997  61.2158966   1.0168732  73.7309952
  47.0974274  12.7762184  67.7293472  46.9594612  13.2736635  68.5354156
  46.3689766  13.0309572  67.1630402  66.2119904  65.8869934  85.5771332
  65.4932785  65.5103607  86.0848999  66.9576187  65.3140488  85.7560349
  83.6398544  29.7662716  60.9199829  83.0166855  29.0406685  60.9573135
  83.1049576  30.5305920  60.7056808  64.7944489  37.9819679  51.9893761
  65.0199890  37.1363525  52.3770599  64.2168655  37.7636986  51.2579498
  64.9350739  35.3916130   4.3271503  65.2298355  35.6914444   3.4672382
  65.1212616  36.1250801   4.9133215  21.7048035  35.6223717  66.2075577
  21.7677708  35.0356483  66.9612350  21.7463264  35.0416260  65.4477997
  30.2445698   4.2681985  23.6202850  30.3309841   5.2201247  23.5692902
  29.5530605   4.0565405  22.9931908  72.8347092   8.4655638  33.1645622
  72.4366302   7.6068497  33.0218201  72.2468567   8.9026423  33.7806931
  34.2753334  25.0282860  19.5023193  34.6093292  24.3048687  20.0327396
  33.8659058  24.6035004  18.7485580   9.5715227  68.5695343  88.9643555
   9.9290524  67.8592758  88.4314957   9.9903908  69.3595047  88.6226883
  52.1974258  64.8147736   5.3332810  52.8571777  65.4339218   5.0208540
  52.4316177  64.6564026   6.2477789  56.3852730  14.8884859  70.5543442
  55.5403633  14.8238039  70.1091766  56.1840553  14.7226524  71.4753418
  21.4434319  60.0853882  82.8321457  22.0866318  59.8719978  82.1561356
  21.9683170  60.3602486  83.5839310  27.0949707  70.6821136  43.4147034
  27.8637257  70.2672501  43.0233765  27.2784691  71.6203156  43.3664169
  39.1651344  31.2605591  54.5706024  38.5357666  30.9241219  55.2085152
  39.9849205  30.8154774  54.7852783  16.7836704  31.4085903  78.5547180
  17.0387821  31.4840584  79.4741974  17.4083939  31.9624939  78.0865860
  64.6438065  64.6275330  39.7217979  64.6539841  64.1086426  40.5260849
  65.3195343  65.2919006  39.8568230  76.4156876   9.1705122  77.9274216
  77.0512238   9.8824139  78.0016937  76.9285431   8.3754654  78.0726929
  56.0940781  54.8506546  12.0679817  55.5265541  54.1314430  11.7906981
  56.9004822  54.7260246  11.5675688  34.3535233  41.8418121  13.7278624
  34.0115471  41.8491287  14.6218586  34.7392082  42.7101517  13.6118450
   0.8630825  26.9853859  31.2968731   1.1014385  26.3248348  31.9473267
   1.6281922  27.5583038  31.2458515  85.5997925  68.7033997  45.1570053
  86.1006241  69.1740265  44.4907341  84.7708588  69.1786728  45.2137146
  30.1366501  56.9468193  71.2817917  30.4449139  57.3555603  70.4730072
  30.8281803  57.1253929  71.9190750  64.0561905  11.0999222  53.4042511
  63.4743004  10.6219311  53.9951477  63.9489555  10.6646090  52.5585327
  32.9013023  -0.1031413  83.4881592  32.2763329  -0.1991263  84.2067947
  33.5384636   0.5353070  83.8085327  45.0803947  63.2165833   5.0820012
  44.9200592  63.5852356   5.9506898  44.7926445  62.3062897   5.1512842
  70.5506287  66.0529251  21.6923313  70.4654465  65.2060699  22.1303005
  69.6655426  66.4173126  21.7013111  32.6879883  29.3631611  74.0489426
  32.8955765  28.5882835  74.5711517  33.5128441  29.5909634  73.6200485
  53.5104561  27.1467361  47.3801003  54.3738823  27.3501148  47.0204277
  53.1409836  27.9986801  47.6122932   3.1891413  28.4404583  30.7322693
   3.5820003  29.2653198  31.0177479   3.1006219  28.5329819  29.7836723
  43.8066483  38.2518082   6.8700418  43.4345284  37.8494263   6.0852818
  44.7269745  38.3976173   6.6510181  49.7633553  52.0702324  57.9539566
  49.2313194  51.5532379  57.3490715  49.7584343  51.5664787  58.7678604
  71.5968628   7.9049282  87.6963654  71.7106857   6.9564137  87.6363983
  70.7469559   8.0704384  87.2883224  62.0491791  58.9250755  30.2349949
  62.6426086  58.2024422  30.4396343  62.4944000  59.4114571  29.5411358
  74.9869003   3.7037482  39.6157761  74.2415543   4.2990928  39.5366325
  75.2812042   3.5674021  38.7152061  77.0773926  41.1539268  73.3139801
  78.0118179  41.3177567  73.4414291  77.0120239  40.2040634  73.2153931
  19.6383095  69.6812668  22.7153912  20.5947399  69.6704025  22.7521954
  19.4312382  69.4701538  21.8050156  60.0563431   8.1922417  22.4009571
  59.5925026   8.5134153  23.1742153  60.9189110   8.6042204  22.4507694
  77.3590469  69.5812149  55.3364792  77.1839752  68.9768524  56.0578156
  77.8652344  70.2892990  55.7347603  38.9440880  58.8372917  14.8297634
  38.1260529  58.6209030  15.2772274  38.7866783  58.6013641  13.9155464
  34.7271881  57.8673630  14.0329399  34.9708862  58.3081360  13.2189589
  35.4308548  58.0862846  14.6438084  75.0027390  50.7057877  27.6911449
  75.8459396  51.1164856  27.4998894  74.9805145  49.9313927  27.1289616
  40.5173225  17.9809723  83.9443283  40.6419296  18.9220753  83.8217239
  39.8353462  17.9147377  84.6127243  77.3587723  36.8287354  37.0452499
  77.6193848  37.2247314  37.8768120  77.4266205  37.5408173  36.4091911
  19.0231152  48.9891281  41.6943245  19.2349072  48.0560532  41.7216873
  18.9411087  49.1888733  40.7617950   0.0246421  26.4826088  86.7860184
  -0.1574410  27.0795212  87.5118103   0.4880395  25.7488480  87.1898575
  10.2354517  41.2985039   8.9882889   9.5101385  41.9100418   8.8611164
  10.8122692  41.7377129   9.6132746  74.5510941   9.9686975   0.3784682
  74.5330734   9.6096029  -0.5086385  74.4696045   9.2038269   0.9481739
  29.7880116  57.0255051  47.3706512  29.9600487  56.5625534  48.1905937
  29.8101635  57.9521408  47.6095886  23.8373642  39.9025269  73.7503510
  22.9052429  39.7512665  73.9068832  24.1869011  39.0385323  73.5322495
  43.4399719  65.0174942  41.9623070  43.4258156  65.7857819  42.5330696
  42.6035347  64.5819092  42.1262131  11.7235432  37.1744080  72.7317581
  12.5376472  37.2565575  73.2284622  12.0069942  37.0565109  71.8251190
  86.0191574  33.6396255  73.3945847  85.3371887  34.2357216  73.7041397
  85.5959854  32.7812843  73.3745575  17.4390812  69.3161163  61.1399727
  17.8592892  69.2515640  61.9975777  17.1027412  68.4359894  60.9711952
  58.1809349  60.4792442   6.5418663  57.8493767  60.3857155   5.6488075
  57.4678726  60.9038162   7.0188479  45.6426697  63.0596199  13.7883463
  44.7792015  63.4718819  13.8147793  46.1911812  63.6169586  14.3403797
  86.5949249  57.9033546  38.0685997  86.3972321  58.8300896  38.2039108
  87.5496216  57.8527451  38.1157188  42.3359413  65.5039062  19.3130054
  42.1052170  65.9397507  20.1333942  41.7338257  65.8741150  18.6675339
  42.6488953  51.3388748  31.2366161  43.4783096  51.1446648  31.6731834
  42.9026642  51.6491852  30.3673973  47.8802834  21.9187527  74.0336685
  48.7383156  21.6318398  74.3462296  48.0675888  22.3998356  73.2276230
   9.5029106  70.5248795  61.5762444  10.2399664  70.3028030  61.0073318
   9.9041128  70.7182312  62.4235268  59.8429260  59.7216263  39.9764900
  59.5018578  59.9028091  39.1006622  59.2204895  59.0987701  40.3517990
  52.9151840  11.9240456  57.3348274  53.2149506  11.0237503  57.2089653
  52.5335083  12.1694393  56.4920120  69.2030411   7.9010081  86.2539749
  68.3479919   8.2126732  86.5505981  69.0797043   6.9625220  86.1116257
  69.4500504   5.7432017  68.6914749  69.8121033   4.8591118  68.6320038
  68.5666504   5.6174483  69.0379181  40.7156563  11.2719345  18.4536552
  41.4905701  11.7921858  18.6659679  41.0651588  10.4310970  18.1585770
  24.2934132  58.0071220   3.4079790  23.8895321  57.9774704   4.2752924
  23.6553459  58.4667511   2.8622296  47.8053360  71.3211594  88.6732178
  47.9984131  70.9619751  89.5392075  48.4839821  71.9810104  88.5308533
  64.3618546   6.0808392  38.0613785  63.7144928   6.3031449  37.3922462
  64.8824768   6.8773675  38.1649513  70.1375351   2.0893314   5.3636851
  69.3313370   1.9768714   5.8673019  70.0443802   1.4877499   4.6250010
   5.1606374  63.3810768  47.9334183   5.9612436  63.4720802  47.4167213
   4.6168728  62.7767220  47.4281387  83.7601547  68.8584290  63.8734512
  83.3370667  68.0000916  63.8953094  84.6951065  68.6665268  63.9460373
  28.1963539  31.4427853  30.5358162  29.0988941  31.7090588  30.3604488
  27.8692379  32.0971184  31.1531277  18.1072140  51.6320534  11.9555216
  17.9608917  50.9707642  12.6319246  17.3001614  52.1466293  11.9450769
  77.6952133   9.8216906  85.5929947  78.1212463   9.1169024  85.1051407
  77.9787827  10.6230268  85.1529007  15.4294310  41.1544075  73.5699081
  15.7430286  41.9900665  73.2241364  16.2261105  40.6534920  73.7448883
   7.3112955  42.5596581  13.7063732   7.4435329  41.7203903  14.1472530
   6.5096931  42.4391098  13.1973219  51.3937416  26.1114254  44.7997551
  51.7225037  25.7434425  45.6199608  51.0814209  25.3535843  44.3054237
  66.8514557   3.9813156  65.9720917  67.7371292   4.3286877  66.0776749
  66.5300674   4.3856912  65.1662292  70.1660461  26.6880322  56.5678940
  69.4506607  26.1205902  56.8550606  69.9123535  27.5620251  56.8645630
  82.8390274  65.3219528  41.4399605  83.5127563  65.9886780  41.3065376
  82.4607468  65.1864929  40.5711746  80.2314606  37.2566338  41.9908066
  81.1632690  37.0386620  42.0120850  79.8959274  36.9565086  42.8355408
  47.9027824  56.1899338  73.5221176  48.2117271  56.4521523  72.6549225
  47.4078636  56.9456329  73.8386765   3.7418406  26.8581104  38.9219284
   3.0457234  27.4236870  39.2562561   4.0416050  27.2934456  38.1238937
   0.2605563  36.5820923  26.2523212   0.8635576  36.5068932  25.5127506
  -0.3526405  37.2696152  25.9924431  41.9483299  49.4768982  50.4523354
  41.6442795  50.3313141  50.7585297  41.4783783  49.3358727  49.6304512
  15.6894274  40.2935600  23.6624851  15.5186501  40.6134987  22.7766495
  16.5587273  40.6325340  23.8761311   3.5541956  46.3602257  73.2173920
   3.8425348  46.8055954  74.0140991   3.6121995  47.0288391  72.5348816
  32.7704239  28.2195282   0.4166296  33.7254410  28.1734371   0.4618565
  32.4689407  27.5621395   1.0436708  40.5500679  68.9680405  -0.2328087
  40.3621864  69.9061584  -0.2622750  40.0812874  68.6540527   0.5404255
  61.3816185  50.1197395  75.7980652  61.9633064  50.8704300  75.6783524
  61.4840393  49.6071091  74.9962234  72.7427139  26.5453529  44.7434807
  72.3288040  25.7464066  44.4169922  73.5216293  26.6519146  44.1974335
  64.6853256  45.2179298  31.1862125  65.2386703  45.8819199  30.7749176
  63.7998428  45.5775185  31.1328449  13.1000633  32.5133705  68.3353271
  12.6205244  33.3155479  68.5421829  12.6797171  32.1807899  67.5422745
  15.3066769  59.2143135  58.0243034  15.7434540  59.1155281  57.1783142
  15.4227695  60.1378860  58.2473946  71.4673157  53.9526405  40.6187706
  72.1125412  54.4224968  41.1471138  70.9891891  53.4131546  41.2485161
  73.7959595  12.7121859  62.1084366  74.3283005  13.4965334  61.9755898
  72.9834595  12.8911686  61.6351089  10.3982601  57.1423340  58.9419556
  10.0513067  56.9920769  58.0625954   9.6880941  57.5842628  59.4073524
  63.6067734  65.0204926  71.2748566  64.3730850  65.0949326  71.8435898
  63.8784332  65.4279022  70.4523926  25.9736176  31.7922668  26.8498726
  26.5167656  31.4023819  26.1648827  25.1216698  31.9242115  26.4339294
   6.4244070  11.0259552  74.1906052   6.3702469  10.0760078  74.2949905
   6.9424796  11.3200903  74.9398117  78.2235565  39.4633064  32.8161621
  77.3767776  39.5716057  33.2491417  78.2751694  38.5274963  32.6216736
  67.3634491  47.6277809  65.2799072  66.8740997  47.9169922  66.0500488
  67.9254303  46.9238014  65.6036682  67.2740555  28.7703362   4.2126331
  67.8535995  28.6254158   4.9605317  67.8260422  28.6098824   3.4472623
   9.0971842  44.8355064  29.8986969   8.3604565  45.0381355  29.3221512
   8.6995792  44.3943062  30.6493530  19.3909149  55.3644028  21.6588898
  20.2885857  55.1709442  21.3887177  19.0677452  54.5405388  22.0236378
  36.8242378   0.8822406  49.7016449  36.3551826   1.3155204  48.9885597
  36.9492950  -0.0159035  49.3951645  83.6769562  69.7500153  70.4711990
  83.9876480  69.1490555  71.1483688  83.1755524  69.1970673  69.8719711
  35.1417770  40.8544693  34.6604195  34.5705605  40.7344894  33.9017715
  35.0202827  40.0596619  35.1797943  -0.2613533   3.9920998  49.1882591
  -0.0131629   3.1314263  48.8508072   0.3818070   4.1754398  49.8730698
  52.6526260  45.5321541  56.1593094  53.5019302  45.6002808  55.7231140
  52.6690636  46.2203522  56.8243980  34.9297562  31.6367455  73.8235092
  35.0521507  31.4264050  72.8977661  35.5833511  31.1054897  74.2782822
  55.5645523  21.0935402   8.9746151  56.2916832  21.3310776   9.5500183
  55.4038010  21.8807545   8.4543419  11.7571564  67.5126343  51.5514717
  11.9000607  68.2697220  52.1194725  11.3349829  66.8655624  52.1165428
  51.1496544  56.2750893  84.5326996  51.7037010  56.6699181  83.8593750
  51.3441353  55.3390999  84.4843674   0.9932278  67.4658508   8.1950226
   1.9401363  67.6016998   8.2288151   0.8796974  66.7142868   7.6132207
  75.9743881  38.7433090   7.6636896  76.9296341  38.7712440   7.6093879
  75.7011185  38.3095474   6.8553548  23.3647652  69.0109253  66.6566086
  24.1851883  68.7814407  67.0930481  23.4482460  68.6387634  65.7786865
  33.7118340  58.1499939  78.7370834  34.5122604  58.6673164  78.8261108
  34.0094185  57.2408066  78.7695160  53.4175873  33.3082809  22.8694477
  52.8457184  33.7369957  22.2327347  54.2542953  33.2136040  22.4142723
  51.4692345  16.3447933  88.4890976  51.5633316  17.2919178  88.5907516
  50.6572075  16.2365475  87.9939880  12.3392267  48.2183151  65.3129578
  12.8036671  47.4507904  65.6467743  12.1088200  47.9863281  64.4133301
  74.1681519   6.5125737  39.7965508  73.5453568   7.2124343  39.6001968
  74.4110031   6.6576586  40.7109947  16.5727406  71.1541214  49.3623314
  15.7800322  70.7963715  48.9625092  16.9583931  70.4149323  49.8325386
   5.9751787  55.6166458  16.7763519   6.5671248  55.6809158  17.5258179
   6.5257883  55.8139877  16.0186462  67.2101669  46.4854584  10.3761339
  67.8997192  45.9758148  10.8015909  66.8907547  45.9176788   9.6748209
  54.4827232  62.9670410   9.4665918  54.1423492  62.2526245  10.0050964
  54.9751968  62.5297470   8.7719908  26.6192074   0.8755351  65.5371475
  26.0279026   0.1442443  65.3588104  27.2711964   0.8324353  64.8376617
  39.5750008  58.9894066  51.9781685  40.5245018  58.8968391  52.0563660
  39.3927460  58.8163948  51.0545464  45.5124016  54.5049934   4.5452309
  45.1729279  53.6637306   4.2398405  45.7160225  54.3599319   5.4692039
  85.5745239  60.6894836  16.1693611  85.8304138  61.6117554  16.1822834
  84.6324463  60.7046547  16.0005665   4.9313231  12.4129162  14.9489679
   4.0369749  12.1214714  14.7716751   5.4742050  11.8954134  14.3542395
  73.3984680  65.4285202  50.2326469  74.1847916  65.9325180  50.0230713
  73.2026215  64.9453659  49.4298782  42.5442581   2.8768048  12.3167086
  43.1956520   3.3416741  11.7915297  43.0036201   2.0997758  12.6352110
  44.1070061  25.6438751  48.6471214  43.8488426  25.5863743  49.5670547
  44.0032997  26.5695496  48.4266624   1.5579636  64.5713654  16.3719673
   0.9582087  65.3110580  16.2751541   1.6837800  64.2467346  15.4803286
  47.2141151  70.9781647  86.0479355  46.4038734  71.3097153  85.6608734
  47.2944412  71.4504318  86.8766327  72.1167450  44.0505486  36.8511162
  72.8910751  43.5498390  36.5943375  72.2566223  44.2500191  37.7767944
  59.0145874  45.8869972  79.1600723  58.2260971  46.0924416  78.6577606
  59.4560661  45.2103729  78.6467438  38.5098305   2.7091784  40.2865143
  39.3342209   3.1511853  40.0834427  38.7218781   1.7766196  40.2465134
   8.5293264  34.6843567  88.6688538   9.0804586  34.2176094  89.2970505
   7.7639623  34.1205940  88.5565033  81.4721680   0.5725175  84.1936569
  82.3517303   0.2054053  84.2821579  81.1703186   0.6909384  85.0942688
  22.0992317  56.9329185   6.8769288  22.6012325  57.6401558   6.4719071
  21.1933365  57.2415733   6.8591423  64.4898605  68.2615662  20.2984619
  65.0321121  68.8059158  19.7276001  63.5949287  68.4132156  19.9946022
  49.0436974   0.3518858  45.0247841  49.8713799   0.1001407  44.6151581
  49.2183723   0.3072332  45.9648514  84.8442154  26.4972553  75.9978485
  84.7237396  26.8351421  75.1104050  85.0690460  25.5750389  75.8745346
  50.5996170  61.1597176  15.4897060  51.3076057  61.7629356  15.2636309
  50.7853928  60.3707733  14.9805079  79.6415253   3.7963295  45.0003090
  80.3998795   3.9805560  45.5545540  79.4228668   4.6403599  44.6053009
  63.8177567  33.5132065  53.4336929  63.0146942  33.9377365  53.1318741
  64.4158325  34.2369728  53.6199799  67.0977707  16.6067448  25.2166557
  67.6142883  15.8016348  25.1813717  67.4861679  17.1700077  24.5472374
  46.4313622  49.6860733   3.8797247  46.4115906  50.4447670   3.2964363
  46.0621681  48.9733467   3.3582354  58.2763367  54.9085045  51.6254730
  57.4319611  54.8288307  51.1817207  58.3968239  55.8507042  51.7436752
  85.7523575  25.0106659  57.3574409  85.5660248  25.9386711  57.4999847
  84.9928284  24.5553112  57.7207642   5.2635989  51.2183304  63.3986626
   5.1516538  51.9671440  63.9843102   6.0796404  50.8090820  63.6864510
  82.5700836   1.8997387  19.9070091  82.2185059   1.1040993  19.5075321
  83.2631378   1.5891216  20.4896107   7.0832057   5.5603824  23.6380138
   6.8892722   6.4190516  24.0139256   7.5419002   5.0917287  24.3352909
  37.3176727  60.9480667  80.9003754  38.1984329  60.6930580  81.1750717
  37.1710777  61.7948570  81.3218994  25.9232845  68.3133621  47.3901215
  26.1002750  68.1893768  46.4576340  25.1360569  68.8573456  47.4142342
   1.2170153  11.5314741  44.2104187   1.4900219  12.2534943  43.6443901
   0.4911221  11.8891926  44.7216415  10.9073725  63.8211021  41.3334846
  10.1034002  64.3259888  41.4557610  11.5661211  64.2924881  41.8434601
  46.7925415  34.3384361  22.9962845  46.9460335  33.9972763  22.1152172
  47.5907440  34.8223953  23.2081547  14.1881351  19.6434422   3.7073681
  14.8110390  19.0033302   4.0515757  14.7154932  20.4243793   3.5392556
  67.1660385  19.6015053   2.9511168  66.6282730  20.2830639   3.3542478
  68.0223389  19.6936932   3.3688364   5.2145782  25.4337368  76.2148056
   4.9204912  26.2901707  75.9045410   6.1652484  25.5187092  76.2871780
  78.3917694  64.7652054  80.3574905  78.4326782  63.8628349  80.0408249
  78.9391098  64.7685165  81.1427536  69.5754395  27.7765903  11.7435188
  69.5128326  26.8228893  11.7961111  68.8923645  28.0943851  12.3339787
  23.4032936  61.7920647  62.1561852  23.9927292  61.1984901  62.6214409
  23.2307091  61.3537788  61.3229065  67.8197784  31.4242249  27.0726433
  67.2268677  31.0621815  27.7311401  67.6390381  32.3641891  27.0785408
  55.9400406  40.4904099  54.6329880  56.5471725  40.9884338  55.1803398
  56.1849976  39.5759621  54.7744598  15.5146809  11.4621277  17.0027676
  15.8651619  11.6679726  17.8693829  15.2522907  10.5435352  17.0625267
  51.5403671  19.5083008   7.3394499  51.2635498  19.9928875   6.5617738
  52.0953484  18.8064613   6.9993739  60.4787102  50.2880478  65.5596771
  59.7960701  49.8661041  65.0379562  61.1676826  49.6274872  65.6318588
  81.0939560  67.6338577  66.5366592  80.9722595  67.6758347  67.4851685
  80.7900162  68.4838715  66.2183304  25.3463650  48.5279999  85.8123779
  26.0513344  48.1544914  86.3412857  24.7070465  47.8202438  85.7312469
  31.9690723  51.2960892  36.7233238  31.5975533  51.2091179  35.8454628
  31.4903927  50.6563721  37.2504463  76.0304184  56.3722878  75.1172256
  75.6892242  55.4779892  75.1245041  76.5358124  56.4292297  74.3063202
  37.9116364  63.8634224  39.1811867  38.1126442  64.4999008  38.4950943
  38.7467079  63.4303627  39.3582497  74.8137360  12.2879238  36.6103630
  75.5963440  11.7819624  36.3918152  74.9598083  13.1423550  36.2043533
  73.5914917  60.2532959  33.4258842  73.6825790  59.5301857  32.8053665
  73.3858871  59.8294220  34.2591248  69.7775650  21.9480724  17.1507244
  69.4960709  21.4877777  16.3600769  69.0350037  22.5070229  17.3796558
  47.8080139  12.8652678  51.1093712  47.0548973  12.3043680  51.2949638
  48.0373573  13.2464943  51.9568977  78.1135788  22.4427319  25.6541138
  78.7043304  23.0900803  26.0390606  77.2727661  22.8953476  25.5877419
  72.1428757  39.8890495  74.8991623  72.2266769  40.0325851  73.9565048
  71.2424927  40.1435509  75.1010818  35.2873459  52.8494568  86.2882156
  35.0504265  53.7586746  86.4710388  34.5506058  52.5071182  85.7820053
  49.2610626  33.3390694  75.5706787  50.0891876  33.7992668  75.7072906
  49.1484528  33.3256798  74.6202164  59.8773766  32.1052666  65.0879059
  60.6261292  31.5811844  65.3723984  59.5548363  32.5170670  65.8895416
  46.1792679  67.6155243  56.3897362  46.3814049  68.4255905  56.8578835
  45.8846397  67.0119171  57.0717049  77.7470093  39.2189560  66.0111008
  76.8607330  39.3323708  66.3544464  77.9785309  40.0777168  65.6573257
  60.5227318  20.4739895  12.9702873  59.9737053  20.1745090  12.2456398
  61.1293449  19.7501526  13.1262093  85.2540054  38.8575821  57.7174530
  85.4052811  39.4752769  58.4328537  85.5423660  39.3242722  56.9330559
  80.1079712  22.3200703  21.2308769  81.0020752  22.3447056  20.8899937
  79.8036423  23.2256031  21.1706505  42.6195412  32.4672699  15.0820322
  42.5912056  32.9590454  14.2613077  43.5368652  32.2104721  15.1758289
   5.6527848  22.4151688  19.3974609   6.4986930  22.8596611  19.3417988
   5.0104527  23.1245155  19.4191093  17.2048931   3.4165030  65.3038025
  18.0162640   3.8481228  65.5714035  17.3429089   2.4936378  65.5171204
  59.8139954  60.7569084  67.9716644  60.5633049  61.2780724  68.2600250
  59.3586693  61.3186722  67.3444977   0.8901497  29.6331863  36.5690956
   1.5727689  30.0281067  37.1115913   1.3626065  29.2542076  35.8278885
  14.8315191  59.6784897  74.7355042  15.4715004  60.3896675  74.7058105
  14.3637791  59.8114548  75.5599823  59.6857834  19.1149178  10.6279583
  60.6243019  19.0710735  10.4449625  59.3311462  19.6656857   9.9300175
  63.2690735  59.8584366   0.7519556  63.2645912  58.9191093   0.9360120
  62.7205772  59.9525223  -0.0268454  72.1337204  26.6372719  81.1063232
  71.2780762  27.0613480  81.0410233  72.7349930  27.3453732  81.3371811
  37.3730164  39.1611977  64.1599426  37.2561455  39.6550865  64.9715118
  37.5684700  39.8268929  63.5004845  65.0523224  59.4768715   5.8101187
  65.7865677  58.8629875   5.8263640  65.3885651  60.2400627   5.3403206
  43.5076027  31.0992298  78.9684448  42.6032982  31.1480980  79.2784042
  43.7531052  32.0092392  78.8015747  17.6141987  15.5879812  87.8073044
  16.9247379  15.2295961  88.3662643  17.3013382  15.4381437  86.9151764
  13.7421474  38.0516281  15.4424572  13.4971380  37.8465462  14.5401583
  14.2785606  37.3089104  15.7196960  82.1966324  15.5441647  19.2346821
  81.9952774  14.8725014  19.8862629  83.1267014  15.4219370  19.0442524
  74.8244476  62.8870621  82.7116699  75.5167160  62.7358017  83.3551865
  75.0477676  63.7280769  82.3128510   5.5258441  59.4949684  72.9784241
   5.7919526  59.1268311  72.1358719   4.5765290  59.3748856  73.0031662
   8.3788204   7.3669648  30.8355160   9.1720686   7.6516314  30.3816948
   8.5844059   7.4700108  31.7646809  30.5884876  19.3334713  87.5564194
  31.4880333  19.1437874  87.8230133  30.0864735  18.5728836  87.8492050
  59.5700836  38.5393181  45.0066795  60.1282387  39.3167686  44.9903831
  58.8151131  38.7975273  45.5354347   2.3802502   6.0446143  57.9451103
   2.0493834   5.1547937  57.8227234   1.7524028   6.4538150  58.5405884
  63.4603081  70.7475662  14.7635775  64.3251419  70.9863663  15.0971355
  62.8487892  71.2493820  15.3025169  55.9148941  44.4575729   6.9435649
  55.0572433  44.7985878   7.1972866  56.5107384  45.1977119   7.0593009
   5.9437475   4.9616036  66.2299500   6.5933261   4.3019938  66.4732513
   5.4609876   5.1320744  67.0387268  66.9898224  70.5330887  64.9389267
  67.5770187  70.5355453  65.6948547  66.1294327  70.7408905  65.3033218
  26.9985657  26.7184772  84.9785156  27.7769604  27.0342274  84.5195694
  27.2655296  26.6683903  85.8963699  80.2296906  53.9954872  65.4844208
  79.9018860  53.5333824  66.2559357  79.4810333  54.0284042  64.8888855
  22.1239204  48.3490181  83.1750488  22.7135677  47.6978683  82.7948456
  22.0628223  48.1063156  84.0989532  70.4889450   0.7310188  66.2858963
  69.6492538   1.0008471  66.6578293  70.4062042   0.9139335  65.3499908
   9.9398165  64.2207184  69.1240311   9.4172144  64.9319305  69.4945526
  10.4633293  63.9003716  69.8585739   0.1701178  20.7951336  51.9754219
   0.1671982  21.1085701  51.0709991   0.7262663  20.0162888  51.9571991
  80.3619843  61.6262245  88.4299164  81.1692276  62.0399933  88.7355042
  80.2738800  60.8429375  88.9729919  76.1224289  53.3621597  46.0280418
  76.5149155  52.4914665  45.9641647  76.6488724  53.8144150  46.6872482
  73.3930130  59.4209404   4.8989892  73.0420227  58.6622543   4.4326878
  72.8653641  59.4776039   5.6956143  83.3475647  32.6022568  20.4341908
  83.8677444  32.8862343  19.6825237  83.9738388  32.1556015  21.0038509
  29.2119446  67.8862381  15.7266550  30.0980339  67.8804398  16.0886555
  28.8182220  68.6883469  16.0699291  64.3077087  15.7740793  57.3038902
  63.3881187  15.9740658  57.4788017  64.2975159  14.8802605  56.9615250
  20.8578911  13.9429359  70.7695923  21.7841034  13.7866278  70.9537964
  20.4831696  13.0681458  70.6668472  86.5649261  68.8166962  52.5059547
  86.2793121  68.1959152  53.1762428  87.3465271  68.4157867  52.1256752
  68.2402115  53.1738930  45.0012093  67.7684479  52.5893784  44.4078941
  67.5715637  53.7778740  45.3242531  27.3273182  41.1800728  20.1261749
  27.3796864  42.0392532  19.7074928  26.4131775  41.1019363  20.3990746
  57.9063377  66.4741745  31.9597893  58.3734894  67.2618179  31.6811867
  57.6261978  66.0604553  31.1433372   2.4835014  26.9703045   2.2536442
   1.9998894  27.7506123   2.5246990   2.5516121  26.4423656   3.0491779
   4.1103649  59.4042625  44.6299477   3.7956355  59.2365608  43.7416611
   4.7619252  60.0977669  44.5262566  37.9540405  61.5923882  48.7006149
  38.3432312  62.2842216  49.2355232  38.2618637  61.7743454  47.8127136
  84.9653473   5.8884859  84.0685577  84.9139709   5.7665987  85.0165710
  85.5087204   6.6684942  83.9564514  61.9772758  64.4113846  84.5369492
  61.4353027  64.4625931  83.7496262  61.4018364  64.7048264  85.2433395
  28.8343735  67.4316559  87.9131165  27.9709721  67.0748672  87.7046051
  29.2345638  66.7736130  88.4815063  51.2198257  13.1086626  76.4405823
  51.4875183  14.0191078  76.5657349  51.7889061  12.6090498  77.0260468
  30.3183804  50.8533630  34.4134674  30.4909039  50.2193413  33.7174187
  29.4236546  50.6624451  34.6949806  17.7680092   5.1374669  54.1881104
  18.3208046   5.7923975  53.7618294  17.0008392   5.0653272  53.6202393
   6.8017840  36.4609566  27.3362312   7.5092168  36.8744926  26.8414993
   7.2388391  36.0535507  28.0840530  29.4127369  21.9525547  15.6651802
  30.0109215  22.3961792  15.0638447  29.9154053  21.2090359  15.9979506
  29.9421864  50.2089996  12.4665194  30.0252895  49.5969963  11.7352352
  29.1733913  49.9037018  12.9481592  67.7780685  20.2053967  29.8955040
  68.0979385  21.1036644  29.8116493  68.4106293  19.6792564  29.4063396
  34.1746254  44.7045860  12.8717518  34.3593063  45.2320290  13.6488819
  33.2946091  44.9706650  12.6052866   4.4309711  59.7549744  31.4040051
   3.9831510  59.3951530  30.6383553   4.4345007  59.0380898  32.0382767
   9.3185911  50.0334015  88.2904892  10.0191288  49.4209785  88.5150299
   8.5123978  49.5647659  88.5065079  81.6695786  24.4834785  37.8182640
  82.3885040  24.8839092  37.3293571  81.1490021  24.0333138  37.1529922
  35.0994301  51.5540466  58.1919708  35.3709106  51.1588440  59.0204315
  34.1728973  51.3277740  58.1109200  68.5468903   0.6048460   7.7850304
  69.0430222   0.6993667   8.5981417  68.1931839  -0.2838296   7.8221979
  29.6088085  18.6730881  75.9666443  29.5321598  18.2066936  76.7990112
  29.1469975  19.4989223  76.1114197  83.7921829  62.6463165  43.8144226
  83.0728912  62.1309166  44.1794090  83.4708481  63.5478935  43.8261528
  41.3561020  29.9976444  25.8029175  41.0302696  30.3156605  24.9609375
  41.9509315  30.6843281  26.1043758  41.4217644  63.8725548   8.5745935
  40.8294868  64.4970093   8.1556702  40.9276810  63.5392952   9.3236284
   2.8879600  71.4827042  47.8858299   2.8780563  70.9888458  47.0659332
   2.8898325  70.8124313  48.5691719  56.2268791  35.8387375  51.3078003
  57.0969467  35.4398727  51.2966881  55.9219627  35.7736015  50.4028053
  83.0238571  60.3822403  54.3878975  82.3768463  59.9873924  53.8033447
  83.7322845  59.7398949  54.4298592  73.0617371  21.8134842  43.6027374
  72.8926163  21.1212883  42.9636040  72.8656235  21.4112949  44.4489174
  48.5895691  21.8844433  27.9985561  49.2749023  22.1515808  27.3860283
  48.9824638  21.1708717  28.5012302  65.3128510   8.8498373  42.6898804
  65.9366379   8.9865971  41.9768448  64.4578629   8.8314295  42.2599030
  85.9504318  62.4840851  10.4813538  86.4899673  63.1717453  10.8715591
  85.8597794  62.7423019   9.5641088  37.2904396  43.1617775  14.0630589
  37.9491577  43.7990074  14.3392048  37.7820587  42.3512383  13.9305210
  47.9406319  32.4660873   0.4855244  48.3757706  31.6156845   0.4246812
  47.2729645  32.4430885  -0.1999832  27.6373844  29.8025055  82.0092926
  27.4861012  30.7408447  81.8958588  26.7815819  29.4496479  82.2528610
  16.6708317  19.9618950  80.1393127  16.9010582  19.1929512  79.6178284
  15.8637142  20.2882233  79.7414398  77.2884903  55.6402245  44.0952492
  77.5007935  55.4055061  44.9986115  76.8021393  56.4613495  44.1691170
   6.4213381  35.4620895  71.4815063   7.2551985  35.4875870  71.0121918
   5.8613591  36.0776558  71.0085068  39.7954102  38.6535988  15.4066458
  38.8523064  38.8101120  15.4545403  40.1800957  39.3400002  15.9517145
  25.5083160  53.8184090   4.5563354  26.0543766  54.5144882   4.1909256
  25.3453350  54.0909386   5.4593296   0.0888412   0.3861387  71.7985687
  -0.7075044   0.8306278  71.5078888   0.6304220   0.3260050  71.0116119
  40.3530655  14.9687119  18.5498619  40.2128105  15.5144014  17.7760506
  39.4744492  14.6925936  18.8106728  33.2268677  18.9665966   9.2308149
  33.6989822  18.2425880   9.6420984  33.4804115  19.7371941   9.7388763
  53.2833214  48.6884499  38.1288643  52.5632095  48.1577835  38.4695473
  53.2076225  48.6125412  37.1776848  47.1412773  70.2618637  18.4322262
  46.3343887  69.7661133  18.2929688  47.1492691  70.9093246  17.7272701
  11.3977499  43.4008446  29.0510445  10.8406229  43.9975433  29.5508366
  12.2723827  43.5243835  29.4198055  60.9332008  55.3669930  81.0160141
  60.6508636  55.1653976  81.9081345  61.0235138  56.3198318  81.0029297
  84.3277969  27.1291122  58.3907967  84.1781845  27.9109745  57.8592491
  84.8334122  27.4424706  59.1407204  55.6928825  34.6182251  11.4078655
  56.0922470  34.2150154  10.6370468  56.0260925  34.1070137  12.1453390
  22.5745373  56.6859512  33.8540268  21.9727764  56.0375328  33.4884148
  23.0722904  56.2048378  34.5150909  74.4357605  18.3062305  29.8140144
  75.2459869  18.5282097  30.2728024  74.5812531  17.4185104  29.4868774
  71.1085663  57.3465385  54.0784340  70.2088013  57.6679840  54.1361160
  71.0203323  56.4380684  53.7901115  47.9445534  36.3891144   6.6416316
  47.3491821  35.6725616   6.4218159  47.5443344  37.1631317   6.2454615
  28.4318924  27.1537457  87.4147415  28.9251747  27.7297478  87.9987946
  28.2172432  26.3926544  87.9540863   4.3516560  48.6880455  79.1592484
   5.1002140  48.5653610  79.7430649   4.2908216  47.8664436  78.6719055
  46.1774330  21.1218357   3.6005425  45.8831139  21.2292595   4.5050144
  46.1996155  22.0117092   3.2485976  75.9828491  37.7147141  10.4594297
  75.8220444  37.8716240   9.5289707  75.1793213  37.3011627  10.7749491
  69.6450043   2.0514705  81.9218216  69.7143936   2.7087824  82.6141815
  70.0549240   2.4615924  81.1602478  67.8454590  38.6296806  22.6619644
  67.6087494  37.7509308  22.9586048  67.2732620  38.7914963  21.9118671
  12.5130281  71.5910873  19.3679676  11.8896704  72.2011795  18.9736977
  12.8465595  71.0796814  18.6307774  12.9026499  34.6702766  79.6176834
  13.6264429  34.9834328  80.1601715  13.1987076  33.8208961  79.2903824
  70.7008591   2.0413105  56.6118622  71.1142349   1.1907682  56.7599564
  71.4273148   2.6266193  56.3976097  50.3823357  43.7683525  86.5394440
  50.3792076  44.5681801  86.0136108  50.9173470  43.1536751  86.0372772
  79.7285538  11.3839531  82.0777206  80.4599838  11.9165707  81.7653732
  79.7252960  11.5141134  83.0260239  10.2538557  20.5322514   2.8044722
   9.6882038  19.8548222   3.1750925  10.7361708  20.0868492   2.1078942
  54.1387024  61.8907318  57.7993279  54.6360855  61.1071472  57.5651665
  54.7408447  62.4047546  58.3373222  14.5890989  62.1933899  11.3913851
  15.1657372  62.6276283  12.0199986  15.0667486  61.4051399  11.1330338
  66.3633957  53.6687622  20.7628727  65.6971664  54.3559647  20.7517014
  67.1226654  54.0779877  21.1779251   9.1572151  37.1744690  33.4559021
   9.4139357  36.4120750  32.9371758   9.7677422  37.8619232  33.1896400
  75.6091385  50.6532021  54.8608513  75.2935791  50.0236053  54.2125778
  76.5604858  50.6492996  54.7551956  27.0765095  48.2161713  34.8004570
  27.6800404  48.4131546  35.5168228  26.2132607  48.1951485  35.2134857
  19.4312706  29.1273994   6.1632133  19.8308868  28.3450871   5.7830486
  19.0665264  29.5982685   5.4138961  82.1193161  65.3502731  38.7669334
  81.5744019  66.1137009  38.5759354  81.8276520  64.6856613  38.1428680
  69.9820251  57.8805542  31.0199776  69.3105011  58.1736565  30.4040413
  69.8788376  58.4554901  31.7782860  24.9026051  67.5429688  16.2883472
  25.6484680  67.0630646  16.6483555  24.2398071  67.5079803  16.9780617
  27.5883007  66.2845459  24.4835949  28.0895462  66.9543915  24.9486656
  27.9678497  65.4556732  24.7753963  66.6080399   3.0738254  28.1949978
  65.7615356   2.7227397  27.9185982  66.7877274   3.7811823  27.5756512
  46.4160538   9.5162764  61.6623154  45.7147217   9.9488173  61.1752052
  47.2216606   9.8884268  61.3035278  70.5445099  17.2143669  70.7280197
  71.4051971  16.9424934  70.4093781  69.9242249  16.7812386  70.1416092
  65.8176422  50.1334114  14.0361729  66.0999451  49.6284294  13.2735920
  66.5484848  50.0677872  14.6508217  81.5994568  47.5997696   6.2536325
  80.9646835  47.3009262   5.6024914  82.3583374  47.0302391   6.1272993
  76.9414062  41.7025414  24.9480286  77.1803894  41.6899223  24.0212269
  77.6823578  41.2901688  25.3920689  24.0744991  22.3242893  13.7497997
  24.6069412  21.9255581  13.0615044  24.7111549  22.7031345  14.3559160
  18.7281017  45.1266403  38.1088600  18.6305351  44.1924362  38.2931862
  19.3241291  45.4436874  38.7874374  29.9656181  25.5569706   3.7484450
  29.7247963  24.7633152   3.2705877  30.2859306  25.2401466   4.5929890
  71.7604752  37.6736488  64.2573318  71.5377274  36.7978401  63.9417686
  71.7893143  37.5848389  65.2099686  82.5403824  66.5479126  64.3724594
  81.9272079  66.9738770  64.9714584  83.1580353  66.0933304  64.9452515
  59.6940651  51.9280624  83.1441116  59.3499680  52.7934647  82.9229507
  59.1080742  51.3162727  82.6985092  17.2605133  14.5914965  82.7601395
  17.1381054  15.0582819  81.9334869  18.2096081  14.5020227  82.8464127
  31.8206902  56.9668083  37.3383064  32.7417679  56.9543457  37.0781212
  31.4220810  56.2515335  36.8425980  36.7730103  46.4870491  18.3440781
  36.0773735  46.7376823  18.9519501  36.9845505  45.5841560  18.5812855
  38.0302277  31.4536285  71.6580124  37.8384285  32.1738281  72.2586441
  38.2288818  30.7117500  72.2293167  64.7294464  21.8775616  83.0571671
  64.8391571  22.1093063  82.1349487  65.4129715  22.3705959  83.5109787
  38.5600014  51.5095177  76.2250977  38.8493652  52.3455811  76.5904694
  39.3465309  51.1374207  75.8261642  11.3674774  53.8729057  22.9324608
  10.9307976  53.5215034  23.7083855  11.9416466  54.5597916  23.2712078
  50.5093193  36.8704720  58.2512894  50.6730156  35.9691925  57.9735641
  51.3640099  37.2976494  58.1942635  73.7162628  23.1450939  25.4102516
  73.9964447  24.0045719  25.7249451  74.1737671  22.5223675  25.9751720
  56.6329727  15.5957022  54.3962784  57.0971107  14.7585869  54.3896027
  57.2574921  16.2187996  54.0248566  17.9140644  70.4486237  27.2652397
  18.1070309  70.0068817  28.0921955  18.3680363  69.9269638  26.6034126
  76.0598679  60.8486214  73.1497498  76.9744797  60.5956802  73.2752304
  76.0816498  61.4747696  72.4260788  69.9255371  34.7271004  52.7998047
  69.1014862  34.9137421  52.3499870  70.0598068  35.4797249  53.3757896
  13.7903891  29.1715050  83.4349213  14.6429596  28.7744961  83.6130829
  13.7893372  29.3225536  82.4897156  32.7670174  25.4056721  12.5996113
  32.3551407  26.2236271  12.8780680  32.9409370  25.5305653  11.6666670
  75.5188065  65.2891922  81.5347290  76.1257019  65.1975098  80.8002167
  75.9233093  65.9483032  82.0988083  79.1239243  60.9890251  23.8079681
  79.3760223  60.0880356  23.6057472  79.0095749  61.4034348  22.9527359
  76.9114532  62.3655281  57.5234184  77.3233032  61.5586472  57.8325348
  76.0094299  62.1135101  57.3257370  86.6962738  23.3744850  32.3944473
  86.3559341  22.5469589  32.7344475  87.6148987  23.3841743  32.6632881
  14.7301273  29.9357853  17.7358360  14.7377005  30.3969288  16.8970737
  14.0096722  29.3102951  17.6587753  50.7205238   6.1336384  56.1125565
  51.6465454   6.0692873  55.8789444  50.6619301   6.9284472  56.6427231
  25.4294701  63.0226517  73.2110672  26.1738853  62.4395027  73.3594360
  25.0429878  63.1431274  74.0784454  82.5526733   9.8903637  61.8118286
  83.2275543   9.4801531  62.3526649  81.7332382   9.7068167  62.2712402
  16.9373112  19.6725502  86.8775787  17.1554241  20.5504494  86.5646133
  17.6747684  19.4274063  87.4364166  24.0896397  63.8083305  30.3352413
  23.2042713  64.1661530  30.4009476  24.0555401  62.9917564  30.8335171
  41.1109734  63.4090881  42.2383156  40.8730431  64.1227722  42.8301544
  40.6176338  62.6552353  42.5616684  77.4430618  47.5506096  38.9531212
  77.9084015  47.6371765  38.1211395  77.5911942  48.3849144  39.3983421
  56.7119446  46.5473022  86.0285873  56.7603149  45.6108780  85.8362274
  57.5643616  46.8910675  85.7612991  32.4350586  15.7351379  12.5164242
  32.0353127  15.7389421  11.6466999  31.8828678  15.1466894  13.0312510
  60.6731529  56.2636108  87.3157196  61.4749146  56.6150970  86.9285812
  60.7098274  55.3249855  87.1316833  20.3293343  58.3522797   9.7771387
  20.1872368  57.9073257   8.9416399  19.5214195  58.2031937  10.2683411
  18.5227051  56.5673485  69.7375107  18.3510475  56.3487625  70.6534729
  19.2417145  57.1982460  69.7725220  63.5261459   7.6431808  13.6346540
  63.8853836   6.9401145  14.1758375  63.8756866   8.4458179  14.0217314
  71.9507828  67.6460114  84.2505646  71.9584656  66.7844620  84.6675873
  71.5354767  68.2199707  84.8942413  50.3493996  44.6349525  69.9494019
  49.6999817  44.9414787  69.3165359  50.0984764  45.0545044  70.7723541
  86.6497192  42.3008690  45.9269371  85.8112259  42.6882095  45.6756783
  86.8640900  42.7152138  46.7627563  11.7903585  50.7267799  58.1138153
  12.5921793  50.2507210  58.3298798  12.0850267  51.6165695  57.9197044
  13.6263561  60.6093025  70.9209442  12.8917694  60.0091553  71.0491562
  13.5026264  61.2851334  71.5874100  43.9193306  45.2407875  75.5032349
  42.9787903  45.1540375  75.6584320  44.1570015  44.4476128  75.0230026
  81.3032227  33.6583748   8.4537182  81.8402786  34.4486160   8.5113964
  80.7593460  33.6804161   9.2410822  21.1428871  14.8972063  79.6125717
  20.4809074  14.4736605  80.1590347  20.8714008  15.8143301  79.5749969
  29.8791904  10.4532776  26.1405296  30.4719009   9.7889967  25.7888794
  29.0642357  10.3287296  25.6541462   4.5797181  20.3844929  63.9577560
   4.1760092  20.3009682  64.8216248   4.9976907  19.5368938  63.8057442
  52.3865967  54.4775848  81.7642975  53.3189583  54.2867775  81.8668900
  52.3625565  55.2883949  81.2561188  61.3277130  24.5071430   1.4610949
  60.9234200  25.3657799   1.5856870  62.1842155  24.5823803   1.8817784
  81.7982101  54.6439552  77.8686676  82.6816483  54.4365463  78.1732025
  81.2491074  53.9521294  78.2375717  48.9768181  60.1417007  41.9490585
  48.4234505  60.7622986  41.4748535  49.2124596  60.5991287  42.7561874
  58.1485062  62.3281364  49.5227776  57.9854012  63.2363968  49.2684212
  58.9625626  62.0966759  49.0755959   4.9544964  17.1447086  21.6613617
   4.3331876  17.3397026  20.9598026   5.3233948  16.2936878  21.4249096
   2.7222836  56.6740417  74.5405502   2.1792121  56.4056206  73.7994308
   2.1509087  57.2344704  75.0656052  48.6472969  45.2553978  36.3671112
  48.4820518  44.7635689  37.1714935  48.1699829  44.7752457  35.6904602
  71.1056290  34.4641953  65.7265091  70.5406036  34.9648247  66.3150177
  70.7368240  33.5809326  65.7342224  69.6398849  12.3362970  72.5931320
  69.6188812  11.6926460  73.3013000  68.7318268  12.3954058  72.2961884
  55.1550903  39.9363098  44.6388817  54.7740021  40.8107452  44.7186890
  54.4006271  39.3479156  44.6104927  61.1794167   2.2682829  28.9449902
  61.7837944   2.9590642  29.2166176  60.4942780   2.7270155  28.4587994
  50.0976372  10.9239855   4.0928655  49.7787361  10.3616056   3.3869884
  49.4157867  10.8771372   4.7630258  17.1132870   3.9574778  36.2590446
  17.5681438   3.2369037  35.8230286  17.5001755   3.9904585  37.1339531
  83.4444427   5.3608871  41.0982552  82.5391464   5.3337798  40.7885056
  83.3751373   5.6138039  42.0188293   8.1904612   7.7051725  33.8230286
   7.4442754   7.2421875  34.2039299   7.9796362   8.6321449  33.9348679
  67.0283966  34.3343849  41.5702858  66.8224487  34.1644783  40.6510735
  67.2097549  33.4698105  41.9388733  29.6028576  67.2526932  26.2144680
  30.0679226  67.0391388  25.4055557  30.2567635  67.1382217  26.9040585
  13.0213156  56.0263290  19.4696503  12.5347414  55.2235298  19.6567059
  12.3705549  56.6185036  19.0927238  65.5764313   2.6749749  52.8321190
  65.3879623   1.9805954  53.4634247  66.1390152   3.2855515  53.3084908
  30.0787315  44.3661804  51.6409111  29.1438904  44.1703033  51.7036629
  30.2832489  44.2628136  50.7115479  31.1129894  13.0629168   2.1672280
  31.8489494  13.6561871   2.0168145  30.9047852  13.1700697   3.0953450
   0.3331969  14.3676929  46.4222603  -0.1647947  13.8033619  45.8308487
  -0.1592631  15.1882668  46.4415817  76.3873978  63.6310883  44.6702003
  76.8256912  64.3531876  44.2199821  75.4566879  63.7685165  44.4937782
  58.8764648  12.6970606  63.8702431  58.0472374  13.0712309  63.5725708
  59.3554955  12.5046883  63.0641708  24.8345146  50.5811081  33.2130699
  24.4966106  51.0954971  33.9461861  24.1335087  49.9610023  33.0123405
  68.8814926  34.9445763   4.2037292  69.6145096  34.7793045   4.7966981
  68.1036530  34.7312508   4.7191820  43.3231812  55.7839508  27.0022964
  44.0079155  56.4522133  27.0306168  42.8953094  55.9151573  26.1561642
  36.2936897  62.7194023  78.4011993  36.1318283  62.5104256  77.4812241
  35.9196510  61.9821510  78.8836823  15.4777699   1.0248351  67.7144547
  14.9660568   1.6003400  67.1459656  16.3819599   1.3173494  67.5999680
  68.9347992  63.7661514  55.2504005  69.4931030  64.0170822  55.9863091
  68.0660172  64.0906830  55.4873161  11.3878002  33.7677269  86.1682739
  11.0941620  32.8923302  86.4206390  11.6759653  34.1692734  86.9879990
  20.7656879  26.0268097  84.2141571  21.0877686  26.6136589  84.8983383
  20.3565311  26.6080761  83.5731049  16.9166355   0.7837728  80.9680328
  17.6811333   0.6372787  81.5250931  17.2798443   1.1030715  80.1419830
  28.6747532   5.0890279   8.5010786  28.5158024   5.5510592   9.3241787
  29.6231823   5.1346340   8.3800993   6.7121482  68.2447052  83.8919144
   6.6197147  69.1862335  84.0375366   6.7620630  67.8700943  84.7713547
  56.2361221  13.3235254   2.4237888  56.1596947  14.1876602   2.8283389
  55.9816933  12.7121429   3.1149530  61.0758972  58.9172668  18.4189816
  61.0420380  58.5605164  19.3065720  61.2635231  59.8478203  18.5418625
  12.9125538  48.0879745  17.5888805  12.3780727  48.5085182  16.9153061
  13.4607353  48.7925911  17.9341908  58.6111603  33.3269882  83.1593781
  57.9742622  33.6163635  82.5060349  58.4273796  32.3949394  83.2766190
  25.5123844  11.9495897  21.0942001  26.0654716  12.2557011  21.8129635
  24.8330784  12.6190357  21.0128517  31.3833637  50.1294327   8.7330084
  32.2644997  49.9113655   8.4292402  30.8786697  49.3270874   8.5997553
  44.7594757  28.0214424   3.1780760  45.3962326  27.7523785   2.5159762
  44.7601051  28.9777317   3.1363273  32.5905800  57.3795967  50.8617249
  33.0774307  56.8381996  51.4830894  33.1274261  57.3762856  50.0692482
  80.2981949  21.3454247  23.8286934  79.5038223  21.3527908  24.3626862
  79.9881897  21.4982986  22.9360809   5.5145011  39.9484177  64.1444168
   5.1830144  39.6550789  64.9931183   5.7294879  39.1401482  63.6788902
  25.7475891  55.5844841  85.7472687  26.2230568  56.4067230  85.8659363
  26.1164055  54.9971695  86.4070129  74.8411102  60.8574791  56.2892113
  74.0174255  60.3754044  56.3625603  75.4593201  60.2218895  55.9285583
   1.0482390  33.9606133  16.7487907   1.8940282  33.5712128  16.5268860
   1.1663215  34.3003464  17.6358452  76.3228302  52.4405289   4.5441513
  76.9343414  51.7069588   4.6086674  76.8457718  53.1574097   4.1852026
  82.6092453   3.2754400   8.6073875  81.9844131   3.6993852   9.1956797
  83.3581314   3.8711321   8.5838032  15.4121141  13.1358261  76.9459610
  15.5129194  13.5206709  76.0753479  15.0263596  12.2748890  76.7840652
  22.0039845   2.9072957  20.4034786  21.7642117   2.6489234  19.5135441
  21.6345959   3.7843814  20.5059757  58.1008377  39.0944252  27.6350956
  58.8378372  38.8874779  27.0604382  57.6109772  39.7679482  27.1632500
  72.8138351   8.6205111  27.6549511  73.0993042   9.1918430  28.3679161
  73.1679077   7.7603850  27.8808784   0.6237155  36.7449646  64.1192856
   0.2987721  37.3492050  64.7867737   0.1243771  36.9655876  63.3330154
  46.1821556  33.5542679  19.8618832  46.4765930  34.4424782  19.6603432
  45.4300003  33.4149246  19.2864914  73.0928802  25.1127930  87.9708710
  72.2392120  24.6824417  88.0186005  72.9165344  26.0221119  88.2122726
  57.8004189  22.5427265  85.0908966  58.0240517  21.6969490  84.7024612
  57.5391006  23.0861206  84.3474808  54.6611824  30.2172451  37.5517426
  54.1715965  30.7401619  36.9168434  54.3088379  29.3324394  37.4557915
  37.6323357  50.6764183  61.1511841  36.8908730  51.2124939  61.4324074
  38.4037361  51.1900139  61.3907585  30.7790279  22.5050449  78.8112411
  29.9704170  22.8716183  78.4534683  31.2331905  23.2554607  79.1944504
  32.3934593   9.4403315  71.9059525  31.5559368   9.3116283  71.4607239
  32.5938492   8.5870285  72.2905884  64.7132721  37.2258987  23.0974159
  63.9132309  37.7283745  23.2513027  65.1732483  37.7116699  22.4128113
  81.0909882  28.5598984  60.9030457  80.2396698  28.2927895  60.5564346
  80.9205856  29.3943272  61.3399887  72.2393494  51.3329124  73.1596985
  71.9018021  52.1442490  72.7801819  71.7788315  50.6384315  72.6886902
  74.0953445  63.2669945  63.6529961  74.8832932  62.8536606  63.3001175
  73.6564102  63.6382904  62.8876801  35.4654236   4.9948287  87.7516174
  35.1610680   5.3867226  88.5701599  35.3735313   4.0519738  87.8887711
  32.7049103  54.3176994  73.5350876  33.2957268  54.4938736  72.8028793
  31.8407688  54.5734291  73.2124481  47.9143372  55.9841805  44.5892754
  47.5148392  55.1764183  44.2665482  47.5322304  56.6738396  44.0465050
  46.1426773  46.8952408  81.3593063  46.6260109  47.4859734  81.9369431
  45.2763176  47.2942963  81.2792358  50.7307968  24.1925564  83.3850708
  50.2191048  24.4130840  84.1633835  51.0876198  23.3240662  83.5711823
   4.7128344  32.0899849  47.6072388   4.4890332  32.7479057  46.9489975
   4.8077030  31.2771053  47.1107903  47.5183144   0.4289643  66.5868073
  47.3206100   0.4807335  65.6516800  46.8388748  -0.1429056  66.9439621
  53.3188133  22.2718201  26.8985786  53.7438164  23.0772896  26.6039295
  53.1874008  21.7637024  26.0980930  84.1492996  13.9735689  78.7649460
  84.0244751  13.0258904  78.7143860  83.2726364  14.3223515  78.9263000
  29.7917767  55.0691109  83.9725037  29.8871880  54.5986557  84.8006363
  30.1441555  54.4697723  83.3145828  50.6481476  22.5577068  67.6240311
  49.8606148  22.8570232  67.1696777  51.1113815  23.3626060  67.8559418
  13.1064205  57.5463753  66.0586243  13.8823309  57.5620995  65.4983139
  13.3683386  58.0268440  66.8439789  44.3929024  37.0545769  81.4869461
  43.7591133  37.5006485  82.0486908  43.8794365  36.7567253  80.7360306
  42.6023102  50.5208359  18.4853268  42.9064217  50.0562820  19.2650280
  41.6541100  50.3899002  18.4831085  57.5885201  40.2134933  13.5703526
  58.0544052  41.0449829  13.6587276  58.0053749  39.6362152  14.2100506
  62.4876823  10.9802980  30.4166641  62.4822159  10.0231791  30.4054718
  62.3683243  11.2312222  29.5006828  68.0966644  14.8450699  71.5991135
  67.2887115  14.3882332  71.8330917  68.6943359  14.6610537  72.3237915
  37.5145378  55.3164101  80.8678207  37.7450714  54.4462738  81.1933212
  37.1870079  55.7811623  81.6378632  59.3375549  32.9860115  21.1199780
  58.6280212  32.3535728  21.0067673  58.9372711  33.7119141  21.5985928
  25.6815968  43.3619156  12.6138039  25.1409264  42.8245735  13.1927443
  26.5531483  42.9698601  12.6678534  17.4709530  55.3434601  25.2360668
  17.3732986  54.7343750  24.5041447  16.9866676  56.1233253  24.9649315
  24.2410145   1.9053445  18.4502754  23.3484344   1.6805892  18.1875648
  24.5906010   1.0975050  18.8263302  12.8485088  64.2849350  32.8422470
  13.0201197  63.3500824  32.7289581  12.7842340  64.4035339  33.7898941
  65.9478302  17.9271736  81.7036972  66.1003876  16.9971027  81.8707962
  65.6445923  18.2746334  82.5424728  42.7107468  62.3264008  79.3561401
  42.7018051  61.9769173  78.4650650  42.9253197  61.5733109  79.9066315
   1.5921816  64.5460663  86.4161758   1.0014415  64.4215317  85.6733780
   1.5202727  65.4772339  86.6259003  83.3823013  60.2481575   7.8827906
  82.5668411  60.0371552   7.4281058  83.8816299  60.7658806   7.2512307
  42.3045120  48.6777725  73.4433212  41.9869308  48.6446419  74.3456955
  41.5249405  48.8691978  72.9219208  19.4353542  52.2863655  82.7001038
  18.7031918  52.5452881  82.1405258  19.4845257  52.9743423  83.3638000
  16.6985493  54.0478401  82.4648895  16.7598820  55.0029907  82.4523392
  16.3377781  53.8423119  83.3273468   3.4865806  37.0559959  54.3312798
   4.0022721  36.3601990  54.7389069   4.1366825  37.6901360  54.0288506
  26.3944378  37.1920967  22.0654011  25.6954956  37.8375473  22.1707878
  27.1099091  37.6785355  21.6558781  40.8588181  56.0583687  52.3020859
  41.2672768  56.2381210  53.1488953  41.1756668  55.1872253  52.0634384
  43.9292564  10.4554100  11.4553738  43.9751663   9.5877361  11.0537939
  42.9995346  10.6817970  11.4308386   8.8514986  70.5336990  23.1224556
   8.3061819  70.6226273  22.3408203   9.6919928  70.2153168  22.7931614
  47.4023438  62.2138100  70.7935791  48.3341217  62.4208107  70.8654861
  47.0929527  62.7520409  70.0650024  63.3599701   3.5939686   7.3494883
  63.0697365   3.4840136   6.4440017  63.2192917   2.7369089   7.7518444
   4.5795045  35.7426910  63.5930061   4.3063402  35.3003197  64.3966980
   3.7596495  35.9781647  63.1587029  11.4589777   8.4438486  18.0009403
  12.2929153   8.6625881  18.4167919  10.9869699   7.9378810  18.6623306
  49.8991051  35.0029793  13.2421637  50.5997734  34.4847908  12.8462114
  50.0681229  34.9549675  14.1830988  50.7693825  56.2926979  50.2361641
  50.0675621  55.6417999  50.2401047  50.3442383  57.1049881  50.5112419
  22.1702309  33.7819862  82.3366165  23.0485973  33.4198990  82.4532318
  21.5825615  33.0775528  82.6098328  49.8909378  52.6960297  88.5393295
  49.8915253  52.1745758  87.7366333  50.2733421  53.5344963  88.2805328
  72.9082642  58.6334076  59.3862953  72.9311066  58.8146248  58.4466858
  72.0223770  58.3079224  59.5459824   4.2894883  10.3501339  62.7960777
   3.3530045  10.3033247  62.9885330   4.5999775   9.4503117  62.8968124
  45.2416916  34.8163795  83.1222839  44.5218620  34.8960190  83.7481689
  45.2941628  35.6771088  82.7068100  28.7370720  13.8992939  19.1909924
  29.5188770  14.3209915  19.5476208  28.0073967  14.3413200  19.6250648
  82.0080948  35.3891525  50.5960960  82.9126740  35.4185181  50.9077034
  81.5505524  36.0409737  51.1271515  69.6344757  19.2455463  87.5374069
  70.0224075  18.4873619  87.9743195  70.3493576  19.8792686  87.4776459
  78.1941528  45.8180504  28.6889286  78.3946686  46.3763809  29.4401188
  78.6214676  44.9851532  28.8887253  70.0596771  66.1819229  63.6021538
  69.5499191  66.9494019  63.8616791  69.5587616  65.7929306  62.8852158
  68.5495453  45.5540543  14.9401045  67.9445114  45.9495621  15.5675936
  69.3133163  45.3119278  15.4637957  78.2246170  71.0214462  87.0384293
  78.4070969  70.9279099  86.1034470  78.8748474  71.6522751  87.3474274
  58.8330040  11.0276518  23.6634693  58.6201935  10.3354540  24.2894135
  59.0138741  10.5639114  22.8458729  19.5909595  70.0867691  14.4271832
  18.8810291  70.7247162  14.3547182  19.1655293  69.2392044  14.2972517
  24.7410164  39.4298782  63.4638939  25.6219215  39.7198563  63.7008553
  24.2183018  39.5841560  64.2507858  71.1335297  65.8259354  36.9542961
  71.2169342  65.4238052  36.0896759  71.1348267  66.7674408  36.7816887
  56.4560699  33.0473557  13.5292645  56.1375961  32.1846199  13.2637491
  56.2537651  33.1002998  14.4633427   6.9578810  34.3669701   2.5254664
   7.6176305  33.9457626   1.9745176   6.1779461  33.8212509   2.4248409
  85.1255493  63.3427315  15.7560215  84.4934769  63.8627777  16.2522850
  85.7886810  63.9741135  15.4770145   1.8334130  46.6752586  27.0904522
   1.0926875  46.8949013  27.6555328   2.0296283  47.4887581  26.6257439
  17.2495117  43.2760925  89.2855911  17.5482922  44.1794281  89.1809616
  17.3162384  42.8986397  88.4084854  21.4644699   7.6040783  80.9876556
  21.2808933   8.0360880  80.1534500  20.6116562   7.2887816  81.2868652
  49.0122337  49.0504074  21.8494835  48.1795044  49.1833076  21.3965645
  49.2333374  49.9123955  22.2020817  82.8432465  36.8105659  27.7723579
  82.8450928  37.7351761  27.5247097  83.2762985  36.7903290  28.6257591
  34.7247543  16.6060734  17.9004974  35.1508064  17.4441223  18.0804577
  34.8793945  16.0847359  18.6882305   7.8866062  22.1372375   3.1444731
   8.4735746  21.5539150   2.6633942   8.1165085  22.0032883   4.0639486
  59.8258972  66.8597031  83.2994385  59.4933586  67.7519989  83.3966751
  59.0424805  66.3246994  83.1718979  44.4504089  51.7513199  81.1676102
  44.2690506  52.0282326  80.2694702  45.2683830  51.2580566  81.1056213
  74.3097839  47.1069565  28.3772678  74.0274048  46.2200813  28.6007500
  74.7860413  47.4087448  29.1507893  59.6976624  70.3518600  86.5676651
  60.0527534  70.4882889  85.6893005  58.8299141  69.9759674  86.4194946
  85.2583694  23.7382069  15.3146114  85.9501038  23.1096249  15.5210619
  84.4474869  23.2350979  15.3892717  45.8016777  62.0836868  67.8435440
  44.9448013  62.0082817  68.2634277  46.1356277  61.1869965  67.8180084
  13.1466541  65.3568954  42.7765732  12.9301224  64.7155457  43.4533424
  14.0671797  65.1899338  42.5741158  32.2173805  31.5660267  77.5597305
  32.4548225  31.6514969  78.4830704  31.9225101  32.4407005  77.3062973
  54.3926125   3.6795354  35.6437263  53.9440193   4.4973168  35.8587341
  55.3227081   3.8839428  35.7405281  27.3772831   3.1744473  38.1603127
  27.9996700   3.8967264  38.0755768  27.4394989   2.9111383  39.0784798
  70.4074783  58.3020630  17.7778282  71.1701508  57.8345108  17.4373016
  70.7007370  58.6607094  18.6154480  67.8933411  41.7052460  29.8155346
  68.5035172  42.2223244  30.3414173  67.1541519  42.2929840  29.6593513
  85.5336533  26.3043785  62.7512512  85.3249817  25.5091076  63.2413864
  84.7302704  26.8237247  62.7841301  60.1875420  17.9930229  58.6218414
  60.4635391  18.7515736  59.1362915  59.2343597  17.9789448  58.7083321
   9.7196493  46.6269913  64.0715485   9.3998528  45.7260818  64.0232773
   9.5733566  46.8846321  64.9817352  57.8528404  19.7499466  75.5496292
  57.1364670  20.3785648  75.6383972  57.5268860  19.1019859  74.9250259
  54.4387169  19.0744591  10.4320230  54.7311859  19.7383823   9.8076029
  55.1145439  19.0689373  11.1098576  71.0372772  35.9532356  40.0971336
  71.0515823  34.9962807  40.0809975  70.2718124  36.1724091  40.6284180
  36.4962158  64.1163101  41.3413773  37.0454216  63.4964066  41.8213043
  36.9343452  64.2203751  40.4967232  59.7038307  24.2627125  55.8102684
  59.8514824  25.1749725  55.5608444  60.3219566  23.7650204  55.2750587
  10.1132736  12.9263649  74.3991547   9.7008314  12.2533474  73.8577042
   9.4594154  13.6232481  74.4544220  74.0524673  57.0964966  33.9885674
  74.3716583  56.2651024  34.3394661  73.2659454  57.2861710  34.5000687
  71.0732574  23.2061024  30.9540653  70.4878311  22.6732731  31.4922123
  71.9456482  22.8518505  31.1263256  54.2575645   9.3289499   7.4546990
  54.7626801   8.5243120   7.3378758  53.7347298   9.4015951   6.6561999
  78.4684067  37.6268616  11.4486198  78.7718887  36.7193413  11.4716806
  77.5269241  37.5605888  11.2890816  40.4599190  32.3443832   1.3621489
  41.0244484  32.9924316   0.9407535  40.7955704  31.5008907   1.0586839
  45.6965675  35.9364777   3.1635859  44.9917030  35.3192596   2.9675207
  46.2582169  35.9126129   2.3888540  54.8294525   9.3067913  26.3406372
  54.7290344   8.8828650  27.1929474  55.3708344   8.7012339  25.8342400
   7.2510414  46.3395691  78.8306198   6.9968109  47.1051331  79.3459091
   8.0460386  46.0179405  79.2557907   2.4720390   3.0532503  68.8676300
   3.1465421   2.5496414  69.3233185   2.2471673   2.5184169  68.1063004
  37.1836281  61.2974815  84.3645248  37.3056145  62.0809326  83.8282852
  36.2470551  61.1093063  84.3040771  12.5291214  36.1880989  82.1864166
  12.3964958  35.4293823  82.7547379  12.4034948  35.8485069  81.3003387
  68.8487244  50.0156097  51.2329750  68.8988571  50.4962044  50.4066887
  69.0981140  50.6567917  51.8984985   7.2947173  54.3723564  70.7360077
   7.6353106  53.7389145  70.1043549   8.0577154  54.8918114  70.9894562
  48.6322937  26.9152489  18.8753719  48.1436005  26.4328022  18.2085476
  48.9702148  27.6837406  18.4155254  47.5180244  25.4946423  16.8035450
  47.4810104  25.9279270  15.9508286  48.1685944  24.8014374  16.6919327
  39.7137642  -0.0903542  -0.1054647  39.4637642   0.7084321   0.3589412
  40.6618309  -0.0169271  -0.2150626  33.2939796  43.0437431  72.0001297
  32.9920998  42.2602730  72.4597702  33.3413353  42.7791557  71.0814438
   1.0778081  12.6322260  37.2932930   0.5166937  12.2661600  37.9769440
   1.9221371  12.1991882  37.4190636  38.6657295  47.4077682   3.1221564
  37.9962349  46.9786148   2.5893934  38.2037468  48.1260490   3.5544457
  38.8517342  16.8465538  81.8615494  39.2403069  16.5992928  82.7006531
  38.8350716  17.8034668  81.8780212  35.7235336  13.2827759   5.0558896
  35.4637680  13.7795572   5.8317518  35.2785225  13.7212343   4.3306627
  83.4352112  32.6163940  25.1953640  83.1512985  33.5232773  25.0805359
  84.3494339  32.6138916  24.9117737  45.4108505  21.1116371  72.8950043
  45.7648582  20.2253876  72.9689713  46.0781975  21.6701603  73.2936707
  14.4880161  64.9955444  55.2983131  14.0684605  65.0306168  54.4386749
  15.2153673  64.3836899  55.1850510  69.5760880  39.1505241  30.3347225
  69.2969208  39.3148041  29.4339924  70.5323715  39.1650696  30.2955227
  82.7729568   5.7011933  86.6527252  82.3853607   6.4954352  86.2850571
  83.3341599   6.0147195  87.3619385  81.5696259  31.8378963  54.2909088
  80.6456757  31.9706326  54.5028839  81.9281464  32.7224312  54.2181854
  75.0215454  60.0816689  49.8657188  74.3992004  60.5113029  50.4525185
  75.8406830  60.0589485  50.3604164   3.6845047  39.2054024  69.5992584
   3.3967979  39.2021713  70.5121918   2.9383876  39.5579720  69.1142502
  26.1439819   4.9321289  87.0896683  26.4740868   4.4670992  86.3209000
  26.0891438   4.2612090  87.7701797  35.0880051   8.4525414  73.4705658
  34.5641518   7.7881808  73.0228653  34.6402245   8.5879469  74.3056641
  82.4378815   2.2628498   1.4472097  81.5242310   2.0439265   1.6303399
  82.3910828   3.0423439   0.8936485  77.7853317  62.1863708  79.5221329
  77.9285736  61.7692032  80.3716583  76.9663467  61.8066292  79.2038803
  72.3574982  27.7814789  75.1744766  72.3143921  26.8435860  74.9881134
  71.5504456  27.9676723  75.6542892  28.4543056  15.2700453  14.9721308
  28.6151772  14.4578190  15.4523821  27.5670300  15.1722498  14.6265717
  71.0404587   0.9434178  53.6433716  71.2640152   1.8413311  53.3984070
  71.2561646   0.8883681  54.5743256  54.0825005   0.8362563  67.1617889
  54.0345917  -0.0896348  67.3998260  54.6718750   1.2202653  67.8109436
  73.0734100  17.0905876  24.1280479  73.0930862  17.6329041  24.9165516
  72.5351410  16.3367119  24.3692265  39.0027351  32.6072159  18.2491589
  39.5799637  32.9652596  17.5747375  38.4015045  32.0359535  17.7712326
  54.3877068  20.2030506  83.4203491  54.0483208  19.6765213  82.6965942
  55.1045914  20.7065735  83.0346375  51.3065529  59.7612267  18.3574638
  52.1555443  59.6842079  17.9221306  50.6975403  59.9911804  17.6557121
  55.1732292  57.1917419  11.7533417  55.6732750  56.4316406  12.0507183
  54.7892075  56.9152031  10.9213037  78.6597595  25.2708950  74.2395706
  77.9954834  25.4799786  74.8962708  78.2007294  25.3441525  73.4028168
  68.6361465  26.1168175  50.4368439  68.2332611  25.2591324  50.3016014
  68.3179474  26.6486187  49.7073479  25.6794281   2.7584805   0.7131783
  25.9227314   1.9947084   0.1900267  26.5148010   3.1379037   0.9859807
  63.4395561  43.4569016   0.2694831  62.4945564  43.5544853   0.1525109
  63.6697044  42.6964149  -0.2642983  77.9507065  65.7849655  28.0939026
  77.5316391  65.2183151  28.7416153  78.7997589  66.0018387  28.4790077
  14.2295856   5.3463349  30.5303135  14.0732584   6.1914344  30.1088867
  14.0812035   4.7023129  29.8378906  29.5638866  10.5014305  13.7562771
  29.4606380   9.5942745  14.0437479  30.4897404  10.6952162  13.9028196
  78.5115738  44.0912094  55.8562012  78.2183838  43.8888550  56.7446404
  77.9103928  44.7724228  55.5549202  79.8640442  39.7886848   3.5449381
  79.2596893  39.3418045   4.1376295  79.6906128  40.7198143   3.6833329
   8.9508028  49.1823959  61.8611069   9.7963486  49.1826591  62.3097534
   8.3279963  49.4812393  62.5237045  33.8200607  62.5658455  68.3835754
  32.8791008  62.6508636  68.2299500  34.1660919  63.4473763  68.2443085
  51.1379890   6.2671866  81.0694427  52.0935822   6.2117639  81.0682755
  50.9232826   6.7189455  80.2533264  57.6019745  23.8056679  36.6739349
  57.4179688  22.9903946  37.1405182  58.4337807  23.6442909  36.2286377
  70.7243729  53.8621445  35.1709442  70.1143799  54.1074524  34.4752693
  71.3279037  54.6025581  35.2323837  70.7718048   2.8904030  46.5136757
  70.9567184   2.1226065  47.0545349  70.0925522   2.5974803  45.9061928
  73.2732925  14.7222490  30.6555004  73.1372986  15.1384373  31.5066910
  72.3922424  14.6189728  30.2958946  42.6257973  50.8945580  63.6772194
  41.9508896  50.2167358  63.7130241  43.3688049  50.4703064  63.2480545
  71.5708008  43.2092667  65.2358017  71.1510086  43.6682053  65.9633865
  70.9695053  43.3258629  64.5002289  68.6155548  41.5863495  63.8770294
  69.1472931  41.3262405  63.1248131  67.7124252  41.5155525  63.5678787
  74.1792679  20.8050365  60.2834892  73.9644623  20.7208576  61.2124710
  73.4073181  21.2171421  59.8955498  16.8064461  65.5933533  29.3838387
  16.2804813  65.1253357  30.0323372  17.5826149  65.8787994  29.8658295
  66.8513107  11.7686462  12.4601641  66.0565720  12.2833300  12.3196926
  66.7339401  11.3783531  13.3262634  33.3585320   5.2617669  12.1410933
  32.5198250   4.8168468  12.2629242  33.4697151   5.3074360  11.1914692
   1.3354391  24.4580917  27.6405945   2.0502036  24.4114361  28.2755489
   1.2311612  23.5584316  27.3308048  60.2123871   4.5801158  64.2844925
  60.4214668   3.9786038  63.5698586  61.0572815   4.9489980  64.5419998
  77.7965698  14.7032070  21.2606583  77.8730698  15.6406317  21.4384651
  77.9318008  14.6267567  20.3161488   4.8205876  13.9723196   9.2744827
   4.7202601  14.5533686  10.0285034   5.6447225  14.2441788   8.8705940
  80.6561813  11.3617735   7.7263999  80.9653625  11.1405602   6.8479338
  79.7872009  11.7380991   7.5867720  48.3809280   4.4027767  80.0906677
  48.6404495   3.5668273  80.4780579  49.1721954   4.9401002  80.1282730
  59.7868042  17.5291958  55.8242722  59.5272484  17.7127647  54.9214058
  59.3417664  16.7095299  56.0394859  36.4018097   4.4745336  47.1780472
  35.7453575   5.1371646  47.3930473  37.2391205   4.8934312  47.3772049
  74.8424072  67.8635025  73.2262802  75.1586609  68.7083969  73.5462341
  75.5145569  67.5742340  72.6092148  21.0662155  21.8474522  76.2005463
  21.9536552  21.6000843  75.9407501  20.4975376  21.3603992  75.6042099
  72.0300217  33.1137352  53.5013847  72.3651657  32.8766098  52.6366997
  71.1848679  33.5272789  53.3255424  71.6179352  60.2772789  67.8043900
  71.9185257  60.3488197  66.8984299  72.3575363  60.5867920  68.3272781
  16.8463173  68.4670792  70.4374313  16.3254452  68.1456451  69.7014923
  17.7481422  68.2416382  70.2091370  64.2291336  22.8617477  60.5232544
  64.3688202  22.7104645  59.5884628  64.2520523  21.9879436  60.9133453
  40.5761833  16.4612179  28.8456764  39.9428368  16.7266197  29.5125103
  40.2490387  16.8522167  28.0355358  56.7499390  48.0679245  79.1405106
  56.1682396  47.3938332  78.7891464  56.8953209  48.6650810  78.4066849
  78.5285034  27.3408318  48.9004364  77.5765991  27.2447510  48.9300346
  78.8192673  27.1187515  49.7849541  35.4502525  31.6351662  20.9194794
  34.5738831  31.7838612  20.5643806  35.4210205  32.0165329  21.7969398
  24.9957428  26.4293976   0.8526778  25.9422684  26.3462849   0.9685034
  24.6741638  25.5278358   0.8543175   4.9529490  28.1930046  17.1444397
   4.9021173  29.1416779  17.2613430   5.3662820  27.8745975  17.9469395
  61.8948669  39.9742317  30.8767624  61.0846024  40.4831924  30.8510113
  62.4648743  40.4613342  31.4717865   2.6395535  20.9225998  42.5346718
   3.2282374  21.6428604  42.7602997   1.8015461  21.1659927  42.9280357
  71.2871704  64.8462753  34.3231468  71.4605713  64.2416306  33.6016426
  70.9034958  65.6162491  33.9034233  66.6720276   3.9421155  18.4052334
  67.2274246   4.6361895  18.7602291  66.2995605   3.5152352  19.1767750
  86.9823532   7.5331364  63.1888123  86.6328201   7.5571136  64.0795822
  86.6561737   8.3357668  62.7818413   4.6775699  32.8574562  29.4830780
   5.1778216  32.7841339  28.6703014   4.0869031  32.1043549  29.4695396
   4.9180751  36.3832245  40.6072083   5.6572318  36.6386032  40.0552444
   5.1728029  35.5354767  40.9714508  15.0490198  63.0759888  82.6556549
  15.6692390  62.9537621  83.3744202  14.1912060  62.9185753  83.0501251
   9.3668289  66.8330002  32.2025681   9.8972120  66.7775726  32.9974594
   8.9042645  67.6673355  32.2809639  41.8427086  42.7989349  62.7291718
  40.9162407  43.0137520  62.6208153  41.8891106  41.8550529  62.5769730
  76.7192459  58.0151024  77.2729111  76.6619492  57.5222969  76.4543152
  77.0222092  58.8838272  77.0087814  14.6653919  20.7876492  78.4694290
  14.3981009  21.6510334  78.1542206  13.8623533  20.4009151  78.8184204
  66.7680817  40.0579414  48.7602234  66.1359406  40.5588722  48.2447662
  66.6277847  40.3500290  49.6609077  47.9319916  47.8916779  36.8450737
  47.5051231  47.8658180  37.7014313  47.9498940  46.9784927  36.5587082
  46.2336464  53.8653336  32.9361420  47.1825142  53.7653160  32.8594398
  46.0215683  54.5934372  32.3520851  27.1400776   4.5997944  80.2906113
  27.2085876   5.5367856  80.1073456  27.2646484   4.5311470  81.2371826
  20.5774555  50.1167755  62.2241096  19.8781395  50.3183174  61.6023636
  20.6401939  49.1617012  62.2126923  27.6282425  67.5166931  35.7017784
  27.4634190  67.7145538  36.6236839  28.4399166  67.0093536  35.7070999
  19.0061455  44.7311478  18.5281696  18.7837200  45.1751442  17.7098637
  18.9255638  45.4097404  19.1984291  19.4188747  69.4790955   9.6146832
  19.7299519  70.3717880   9.7648840  19.1039982  69.4840927   8.7107687
  58.8754196  26.4058304  38.1349068  59.0749283  25.4854527  38.3061714
  58.2580948  26.6494598  38.8246803  57.6469688  30.3600731  25.8645687
  56.6977348  30.2650928  25.7860584  57.8196754  31.2643757  25.6025753
  18.3887367  35.7363472  12.3059988  17.6896400  35.2281342  11.8946371
  18.0540962  35.9410629  13.1791182  68.8683167  18.5240841  38.2951698
  68.6397934  18.5505428  37.3660240  69.8213120  18.6123981  38.3100433
  37.6035919   3.0012307  72.9378433  38.1979866   3.7062509  72.6811829
  36.7285156   3.3699725  72.8174210  21.9231052  50.6374321  76.2889557
  22.2735004  50.3276138  77.1240997  22.6942196  50.9121208  75.7928085
  44.3983002  67.6283875  33.8206177  44.1528664  68.4430847  34.2590904
  45.2718391  67.4289246  34.1573257  62.3974991  25.0111523  87.8631897
  62.7961044  25.6346245  87.2560425  61.6153183  24.6998749  87.4076309
  42.5617867  49.9235382  59.7629013  43.4262085  49.5452042  59.6020546
  41.9561615  49.3402100  59.3055458   5.1701984  63.8132477  71.0462036
   5.2678914  64.7147369  71.3528061   5.6219044  63.2859001  71.7050705
  19.9392529   2.6245773  78.3704605  19.0796432   2.3739898  78.0320663
  20.4665813   2.7868178  77.5882645   1.7842138  14.6037254  52.9705505
   1.9669431  14.5314932  52.0337334   2.0898981  15.4793386  53.2073860
  63.3057251  71.1333771  72.5736237  62.7972679  70.7992249  71.8346786
  63.0589409  72.0560837  72.6364288  72.7361374   6.4111376  65.9608459
  73.1889801   6.0160818  66.7058945  71.9568863   6.8161902  66.3415527
  15.8592739  38.2713013  88.4176483  16.1309605  37.3804741  88.6386566
  16.3351631  38.8269348  89.0349274  56.9985466  64.6852112  29.7875843
  56.0908318  64.4314499  29.9545860  57.4996605  63.8795738  29.9143410
  17.9910297  40.8034248  36.1795540  18.4305763  41.6503143  36.1033554
  18.4215088  40.3759041  36.9199219  66.9204941  52.7702942   7.0648403
  66.8114395  52.3383331   7.9120407  66.6492538  52.1129074   6.4241343
  40.0496254  53.6122398  63.5350075  40.7946320  54.2106781  63.4795723
  39.4740410  53.8793144  62.8183441  68.6119156   6.3620610  50.0548553
  68.5439148   5.4542570  49.7590485  69.5130463   6.6131926  49.8520584
  59.7618637  63.7542381  42.0991592  59.1157646  64.3943024  42.3976746
  60.6069527  64.1734467  42.2613945   4.0766611  49.5959625   1.9996343
   4.4821477  49.6505814   1.1342850   3.9009593  48.6631966   2.1233633
  26.7668285  55.1438904  49.2172546  26.5071297  55.4457436  50.0876999
  25.9619751  55.1819687  48.7005386  77.3328857  47.9346581  70.8049469
  77.7371674  47.9324913  69.9373169  76.4015961  47.7923470  70.6355972
  38.5696983  35.8437347  22.5045509  39.1600075  35.3024940  21.9803123
  38.9775925  36.7096710  22.5071468  21.8625927   9.6737461  70.0926132
  22.4608269   9.3702755  70.7754364  21.3866119   8.8877344  69.8245468
  31.5332375  35.1661987  72.5108948  30.8066273  34.5803909  72.2985306
  31.8884125  34.8201981  73.3296585  47.8460617   3.3772442   6.3466787
  47.4638405   2.5043948   6.4376311  48.0381508   3.4584401   5.4124722
  51.1831131  10.7197933  73.4766922  50.7077370  10.1189642  74.0504990
  51.9967575  10.2600088  73.2697830  21.6562653  25.5268002  30.7857342
  22.5996914  25.5582428  30.9444466  21.4984055  26.2179928  30.1426449
  84.0899658  15.7343006   6.2369504  84.7414551  16.3569317   5.9142642
  83.2645645  16.2185249   6.2153015  67.1282272  42.6832199  89.0976181
  66.5432358  41.9841690  88.8054733  66.6941071  43.0532227  89.8662949
  70.0246887  56.1931000  86.0370102  69.6149902  55.3523979  85.8330383
  69.3394623  56.8402519  85.8699799  42.3734207  49.9816208  43.1451797
  41.7027550  50.1051788  42.4734879  43.1323509  49.6472397  42.6672211
  61.7528305  56.6031303  68.4005585  62.6799812  56.8178139  68.5031815
  61.4669838  56.3501053  69.2783432  62.1515198  62.1148376  33.7337837
  61.6590080  62.1480255  32.9136848  62.0896988  63.0025749  34.0863914
  11.2814217  57.6977844  18.3283043  11.2934723  57.8502502  17.3834019
  10.3520126  57.6389008  18.5495796  82.9373398   3.1077387  86.2531662
  83.7780914   2.7966058  85.9176483  83.0501022   4.0541701  86.3413925
  83.9358597  35.5221901  73.4563675  84.2700653  35.9280090  72.6564636
  83.1637497  36.0404282  73.6833115  16.8334026  15.2465830  66.0126419
  15.9464808  14.8884773  65.9757538  17.1907654  15.0917749  65.1382523
  11.9948330  66.5696335  26.4963360  12.7540283  67.1418915  26.3850880
  12.1818371  66.0761642  27.2949257  72.3384171  37.8422279  15.6348610
  72.6838303  37.7961349  16.5263748  71.4439774  37.5090446  15.7070246
  71.1584320  46.7088776  25.8286133  70.5508423  46.2925491  25.2172737
  71.9871750  46.7507248  25.3514729  84.7668457  33.6314926  62.9188004
  84.9285660  32.7075500  62.7279816  84.3342438  33.9661446  62.1332436
  79.9334717  59.3972931   9.6426744  80.0682068  58.9173279   8.8255367
  79.2431412  58.9119682  10.0944862  74.5038452  15.3499050  20.3578186
  75.1306381  15.6731043  19.7105942  74.5318222  15.9972324  21.0623875
  79.7863312  61.6769485  39.3161049  79.3795624  62.4573364  39.6926308
  79.0507812  61.1029816  39.1021957  74.0365524  43.6888390  66.4806290
  73.2916718  43.2775383  66.0421982  73.6510468  44.1509209  67.2250061
   7.2681313  49.9297981  74.6308441   8.0756474  49.4826584  74.8842545
   6.6888938  49.8241501  75.3855362  24.3959103   5.9777761  32.6919708
  25.2814312   5.9806318  32.3285484  24.4543343   5.4104409  33.4607048
  20.3250370  47.5152626  34.4965515  19.8120308  47.8809319  33.7758942
  19.7397518  47.5575523  35.2527809  75.9356461  29.1587715  27.1264954
  76.3243332  28.6962013  27.8689117  76.3971710  28.8147488  26.3617210
  42.2069092   0.3448177  88.7352676  43.1004028   0.0046384  88.7819672
  42.1749115   0.8207916  87.9054108  85.6560211   6.5092759   4.4963069
  85.0326691   6.7881188   3.8255556  85.3339615   5.6543579   4.7820044
   3.2863166  63.8311691   4.2385931   3.5069726  64.6510391   4.6805816
   4.0660720  63.6180344   3.7259650  83.2524643  38.3180351  53.8960915
  82.9027100  37.4343338  53.7821922  84.1972733  38.2185974  53.7791252
  76.6002274  61.6416435  19.0681610  77.1075058  62.4533577  19.0720310
  76.4143753  61.4709511  19.9915009  44.1866684  57.7609978  73.1546097
  43.7760887  57.1731606  73.7887268  44.0792046  57.3180771  72.3128891
   5.5398111   7.9229026  14.6518679   6.3232713   7.6697583  15.1400681
   5.6655574   8.8527431  14.4626131  30.9828911  69.7213821  69.2034683
  31.0901051  69.6826859  68.2530823  31.3404884  68.8913879  69.5188370
  61.5856209  38.2839813  34.1185379  60.9407997  38.8711662  33.7240067
  61.0814896  37.5113106  34.3736153  21.9543819  70.6381378   8.0579386
  21.2578297  70.0987930   7.6835680  21.6480083  71.5378265   7.9442182
   8.5337849  10.5798588  76.2178726   8.2621698   9.7492313  75.8273392
   9.4558897  10.4501305  76.4395218  13.9607353  28.9693127  64.6116714
  13.1700916  29.3860073  64.2689209  13.6402473  28.2051907  65.0908737
  21.5431042   4.7981362  13.7719221  22.2229385   4.6772666  13.1090136
  21.1836777   5.6666074  13.5908098  52.9699211  34.5070343  70.7106094
  53.0933380  35.1213913  71.4341888  53.5536346  33.7763481  70.9145966
  44.2784653   4.6239595  10.4221354  44.0546646   4.0286860   9.7067366
  45.0754890   5.0642304  10.1269236  63.5037766  37.3823204  82.9639282
  64.4059601  37.0811119  83.0714798  62.9959946  36.5797920  82.8441849
  52.9131165  32.7540855  47.2964859  52.2396164  32.7376328  47.9764557
  53.6988640  33.0663948  47.7451515  50.9270477  61.7545242   1.9185745
  51.4963226  61.7526016   2.6880910  50.8283005  62.6802406   1.6960124
  56.0443840   0.5403957  84.4518051  56.0174561   1.3060814  83.8780136
  55.2601929   0.6203349  84.9948349  41.7564392  64.6687775  80.7497635
  42.0330620  65.4556046  80.2800751  42.2105980  63.9526711  80.3057175
  32.8160248  12.9437599  76.2064362  33.3306236  12.6205931  76.9460220
  32.6840668  12.1745968  75.6521759  82.4996948  42.4571075  70.1677094
  82.3492432  42.5802689  69.2304611  81.6996689  42.7791023  70.5830536
  19.8712864  36.3433266  76.2819061  19.2007484  36.0712852  75.6553192
  20.6959419  36.2534637  75.8043060  72.5150604  13.0881577  45.1464615
  72.6749344  13.8457222  45.7092819  72.9824829  12.3699741  45.5730247
  48.3317795  43.9986382  58.4887314  48.7971115  43.3253098  58.9850464
  47.9677505  43.5326958  57.7359924  25.8330517  62.7042885  14.2774343
  25.2229824  63.3099251  13.8564186  26.6362095  63.2127953  14.3896570
  52.5532455  57.8957787  66.7090225  52.3568001  57.7964592  65.7774734
  53.2450867  58.5566139  66.7387772  86.1314011  15.2281933  72.1666336
  87.0145721  14.9779520  72.4379578  86.0713196  14.9435635  71.2547073
  36.7031364   0.6617861  30.5640450  36.0794220   0.1880066  31.1142693
  37.4166107   0.8958423  31.1576786  73.8222809  41.7496910  21.8592453
  73.5575104  41.4943047  22.7429333  74.6498566  41.2907944  21.7151470
   2.3587065  42.4426651  83.5539627   2.4502327  42.0014229  84.3984451
   2.3559997  43.3751602  83.7700043  74.6836243  30.5453968  83.1236954
  75.3211594  30.9607162  83.7044601  74.1784058  31.2738285  82.7626266
   5.9790301  17.7947502  76.6888046   5.2078152  17.6991711  77.2476654
   6.0626168  18.7389164  76.5554047  70.7464447  12.2677097  35.0930595
  70.5226517  12.2987843  34.1629066  70.8727570  13.1839085  35.3397522
  64.9834290  21.6758347  55.2361679  64.8442688  22.4867229  55.7253799
  64.4082947  21.7536297  54.4749832  82.2053375  14.7216854  28.3600750
  82.8629761  14.9653463  29.0115128  82.6862869  14.6940641  27.5329418
  50.0066681  20.3620319  68.9885254  50.5204735  21.1036892  68.6688766
  49.2436676  20.7615318  69.4062195  85.9520493  18.4827251  10.8387222
  85.9877472  17.5358658  10.7030172  86.8360596  18.7177658  11.1207037
   4.7827396  12.7078533  72.6862793   4.3422933  13.1712151  73.3986893
   5.4040699  12.1275272  73.1260529  76.7375336  37.5101051  43.1901016
  76.8565826  37.1635361  42.3058243  77.4424286  37.1115227  43.7004776
  43.6408920  70.6660995  39.8637581  43.9693489  71.3064041  39.2326050
  42.7201271  70.5495377  39.6295815  47.2985611  62.6798210  88.3540878
  46.4169998  62.7529373  87.9883804  47.7151375  63.5155907  88.1438904
  72.8212204  52.1168098  26.8698349  72.5378571  52.6921616  27.5804043
  73.2514648  51.3846931  27.3115635  72.1406784   2.9831352   1.7398611
  72.2543259   3.9223742   1.5944390  72.9468231   2.7092335   2.1772957
  63.9790611   1.8859605  27.7045898  64.1422272   1.1049701  27.1757565
  63.5187492   2.4828384  27.1146049  42.6431618  55.7647324  46.5378647
  42.0435219  55.5108566  47.2394409  42.3170433  56.6138000  46.2395973
  22.4642563  13.1657200   3.4308748  21.5942497  12.7764559   3.3425975
  23.0565605  12.5171738   3.0503547  11.9818668  18.2013130  82.3045197
  11.6658525  17.7246361  83.0720749  12.9331827  18.0996304  82.3343506
  42.5088272  71.2902985  73.0902100  43.3947716  71.1757584  73.4340363
  42.1901016  72.0889206  73.5107422  84.7662811  69.4724884  36.9683609
  84.0764618  69.5277710  36.3070488  84.7931671  70.3455048  37.3599663
  59.2807732   1.2652152  87.6913147  59.2092705   0.3125049  87.6324692
  60.1500549   1.4621693  87.3423309  10.8281918  11.4135513  79.7761078
  11.5389366  11.0112371  79.2768860  11.2157383  12.2053938  80.1489639
  58.3367081  47.6394119  68.9944687  57.3926048  47.4976082  68.9252319
  58.5551605  48.1743279  68.2313309  40.5849190  59.0828552  19.0996494
  39.7378235  58.6714821  19.2712040  40.9421806  58.5950394  18.3576012
   3.0887444  24.5861015  54.2741737   2.4249458  24.5125465  54.9598808
   2.8024676  25.3286991  53.7423592  65.7945862  57.4530296  38.9650803
  65.4643402  57.9496269  38.2163773  66.5286789  56.9493637  38.6134224
  86.1765213  47.1769981  24.8203945  85.5567169  47.2749443  24.0975666
  85.6384659  46.8974533  25.5610561  79.6664658   9.0238771  71.0272064
  80.5143204   8.5796957  71.0183487  79.5007782   9.2052908  71.9523392
   5.9903812   9.0191984  29.7209206   6.8196626   9.0043135  30.1987305
   5.5676103   8.1912823  29.9490681  78.0912323  35.8527679  54.6068916
  78.1048203  36.8087082  54.5597343  78.9813995  35.5888023  54.3741570
  28.1707249  64.2078934  19.6597118  28.3414040  64.9715805  20.2109680
  28.6767807  63.5029716  20.0637150  52.5618782  36.9939232  37.8758774
  51.6977501  36.7629623  38.2167130  52.3854561  37.3816452  37.0186844
   4.0180826  57.7694855  61.8021278   3.7737842  58.0747032  62.6758499
   4.1434779  58.5713577  61.2946777  46.7810135  61.7524796   2.2207630
  46.1593132  61.0589294   2.4414654  47.2421303  61.4240761   1.4489114
  25.1850452  66.3115997  29.7645836  24.9954815  65.3762283  29.6912270
  24.3807201  66.7424011  29.4752655  70.3594131   5.1104598  38.0066147
  70.4136963   5.7656283  38.7023430  69.4599609   4.7862701  38.0525589
  82.6846542   8.1516142  71.5607071  82.8676605   7.4444051  70.9421692
  83.5484009   8.4715881  71.8210754  50.0028839  48.5293427   9.8496675
  50.4644699  47.8378067  10.3239527  49.6439285  49.0919113  10.5358887
  77.0178299  43.2873039  66.2251434  76.3028488  43.0865135  65.6212234
  76.5844574  43.4557228  67.0618362  15.6931782  67.4563446   1.1949134
  16.3201370  67.3345490   1.9078808  16.2360573  67.5534592   0.4125563
  70.9294281  36.5206947   2.3673620  70.7491150  36.6182251   1.4323727
  70.0652237  36.5175972   2.7789068  60.6413116  49.1641693  41.0502853
  60.0931854  49.4614410  41.7765236  60.0717812  49.2177353  40.2828255
  54.2282219  34.5932999  37.6945343  54.6973534  34.7185020  36.8696251
  53.7660217  35.4196587  37.8350220  68.9767761  42.1261902   8.7630529
  68.6257935  41.8018761   9.5924273  69.4377060  41.3756790   8.3882113
  82.7858734  13.0698261  63.8078499  82.0242233  13.2626648  64.3545990
  83.4940414  13.5859442  64.1930161  56.9492226  40.4905701  49.1055641
  56.2318954  40.8959274  48.6183662  56.5868187  40.3311043  49.9770393
  53.5080566   3.8478739  70.5036697  52.8733215   4.5577736  70.4067917
  54.0655022   4.1227002  71.2316513  48.3398819  64.5504608  33.4279556
  47.5688095  63.9855423  33.3774338  48.6722641  64.4231415  34.3165169
  63.2236595  31.5073414  31.0620384  62.5236702  31.2514954  31.6626968
  63.0399551  31.0202312  30.2587910   4.2376814  61.9367218  57.5375633
   5.0428371  61.4568520  57.7316856   4.4861188  62.8586464  57.6051064
  74.8941956  52.7699165   0.9364559  74.3754807  53.1625862   1.6385784
  74.9218521  53.4413834   0.2548390  84.5955048   5.4614840   8.3021679
  84.6436157   6.3346457   8.6914062  85.4599609   5.3239636   7.9148173
  34.7945595  50.2171211  12.5626087  34.7629776  49.8329124  13.4387465
  34.9331474  51.1517639  12.7157993  57.6163788  63.9524956  15.4790754
  58.5722313  63.9056091  15.4596539  57.4038544  64.1300125  16.3953457
  80.9698334  24.4252701  16.0829353  81.3181839  25.0549545  16.7141113
  80.0201187  24.5312290  16.1381474  77.4173355  71.0045242  80.5654526
  78.1066895  71.2571564  79.9512863  77.8851013  70.6099091  81.3014526
  31.4399052  52.2770195  47.7464676  30.7819271  52.8246536  47.3182259
  31.2952137  52.4163818  48.6823502  41.0452271  18.6756153   1.8299676
  40.6109161  19.3030643   1.2521155  41.9519081  18.6558170   1.5237572
  51.9778595   1.3679971  71.3620224  52.0222244   1.2784702  72.3139954
  52.7384834   1.9033854  71.1360931  20.6946869  21.1185703  58.9633446
  20.8398552  21.9026375  58.4338188  20.7427921  20.3951721  58.3383560
  50.4038658  63.8801765  57.4961777  49.8512001  64.5037079  57.0250015
  50.7606163  63.3124809  56.8130341  12.0228682  17.6364498  14.6761055
  12.5594521  17.4112225  13.9161167  11.9338255  16.8144970  15.1584911
  31.9841671  51.5620537  14.1681366  32.1846581  50.7418137  14.6189613
  31.1925125  51.3714905  13.6649475  17.6961441  11.6595869  12.8549547
  18.2952251  11.4971418  12.1262941  17.6669083  10.8294535  13.3306179
  16.5363407  22.3783932  11.4572906  16.2952557  23.1228199  10.9059849
  17.4702759  22.4996433  11.6284571  46.7755661  67.7617722  38.3126793
  46.0982018  67.6180954  38.9735641  47.2651901  66.9396210  38.2888756
  57.3293495  21.2992058  11.5925932  57.4247742  22.0234547  12.2111301
  58.1329384  21.3205681  11.0729561  32.4211044   7.1684356  32.0344467
  32.1482811   6.3326035  32.4128456  32.1252480   7.8248429  32.6651840
  56.0204926  26.4275780   0.5257169  56.8327179  26.7949257   0.8744016
  55.7623253  27.0335541  -0.1688149  63.6350403  33.4862785  63.5556717
  64.1940155  34.2258682  63.3173752  63.5571213  32.9755554  62.7498665
   5.5430264  56.6099892  82.5088348   5.0818229  56.3274651  81.7190857
   5.9317546  57.4517441  82.2709961  72.5724716  37.8125763   7.8457031
  72.8834152  38.7174110   7.8742895  72.8433533  37.4396133   8.6846056
  42.3350677  -0.0820990  59.0692635  41.7495804   0.5052291  58.5912704
  42.3569260   0.2726613  59.9580269  13.0420170  11.3908749  30.6916847
  12.9326181  12.3406992  30.6458912  12.1687860  11.0404510  30.5158939
  28.4561977  71.0175171  47.1046753  27.5280323  71.2430725  47.1668549
  28.8339558  71.7063217  46.5578003  68.9586868  63.3933907  29.4925213
  68.0925140  63.8005028  29.5081291  69.0122604  62.9772263  28.6321907
  79.4195023  17.5827885  38.5543861  79.4869003  16.7983818  38.0099640
  80.2358398  18.0562935  38.3943329   1.8788331  18.2917290  87.8029327
   1.8526490  18.9499874  88.4973679   2.3698280  18.7094440  87.0953522
  39.7106361  68.5738373  17.7528648  40.5252800  69.0444946  17.9291210
  39.2269325  69.1467667  17.1578732  59.9668846  18.3055267  68.3098145
  60.4642105  17.5079861  68.4909973  60.5768356  18.8637886  67.8275986
  48.4171753  38.9346313  38.5890160  48.1178436  39.7665710  38.2222595
  47.6689720  38.6110268  39.0907173  44.3011208   9.9240637  86.3308182
  44.8769722   9.2609501  86.7114792  44.3965569   9.8098726  85.3852539
  46.3026199  18.0672913  18.0953617  47.0289307  17.4827557  17.8785267
  45.5226326  17.5171890  18.0229626  11.8457718  48.9954987  50.6483040
  11.5877066  49.9170952  50.6310272  12.0089407  48.8097610  51.5730247
  34.0062294  60.3023376  15.4353561  34.4862938  59.6395531  14.9388819
  34.1278687  61.1100998  14.9364023  71.7079391   5.9287548  46.6138039
  71.5588989   6.3754387  47.4471664  71.1665955   5.1409459  46.6641541
  18.3912392  19.3975105  70.3871765  18.4471817  20.3503551  70.3151550
  19.2884445  19.0938034  70.2492752  42.3692627  55.9820366  74.7944717
  42.7595863  55.1091118  74.8377762  42.1719818  56.2016258  75.7050171
  16.0421410  59.9575615  10.7395010  16.7101860  59.3259659  11.0060272
  15.5903683  59.5345612  10.0092916  48.1989059  21.0822582  33.9211960
  49.0373077  21.5365543  33.8379288  48.3295326  20.4691143  34.6445389
  11.1617069  26.2354336  22.5340538  10.2918386  26.6073532  22.6797829
  10.9926405  25.3615665  22.1819077  42.0953217  40.9324112  29.8711338
  42.1597900  41.6982841  30.4416733  41.1606674  40.7268791  29.8508148
   0.7353689  47.5152130  66.0685806   0.1221734  46.7867546  66.1663895
   1.5513940  47.1046371  65.7826385  47.0062294  15.3168621   2.4516289
  47.9103775  15.3773613   2.1432688  46.9152679  16.0413628   3.0705442
  75.9005432   4.5672345  29.8712730  76.7648239   4.9782810  29.8542767
  75.4443512   4.9985638  30.5938225   2.4930406  58.1495094   8.8775883
   2.2696400  58.2396584   9.8039770   1.9370265  57.4355888   8.5654984
  61.4925499  15.3333750  75.3058624  60.8545685  15.6988688  75.9187469
  62.1855621  14.9802446  75.8637772  79.9364166  10.6901684  55.0534935
  80.3192749  10.7007570  54.1762581  79.0169067  10.9179859  54.9162827
   6.1389871  61.6464233  69.5709686   6.1937499  61.0351677  70.3055420
   5.6912088  62.4125710  69.9297791  77.5969391  22.6108055  77.7606201
  78.1172485  23.2972431  77.3431091  78.2079010  22.1751995  78.3549347
  85.2396088  25.9663258  11.0864162  85.0102005  26.0722256  12.0096655
  84.4533844  25.5960369  10.6852102  66.0172119  31.8950443   2.6951060
  66.7659912  31.6354141   3.2319069  66.3926620  32.4536133   2.0144660
  71.3521271  43.7662086  21.0574074  71.7823334  42.9996529  20.6785336
  71.7717896  43.8792953  21.9102421  84.4126205  21.5669384  18.1364918
  84.5715790  20.6241856  18.0898037  84.0685806  21.7948818  17.2728291
  50.3410454  17.1696110  80.5097504  49.7211952  16.6601543  81.0317307
  49.8325272  17.9177876  80.1968994  71.5183411  53.5940971  64.2051315
  70.7717438  53.0410919  64.4353561  71.5494995  54.2546959  64.8971329
  55.8739471  64.1702499   5.6530938  56.0986404  64.5589523   6.4984660
  55.3872147  63.3767815   5.8761067  31.8071251   4.9433098  33.5322304
  32.6035576   4.4270711  33.4080429  31.2695236   4.4158916  34.1230354
  32.8791008  49.8660088  22.9311657  33.3725662  49.3911514  23.5999222
  33.4465904  50.5979156  22.6893044  56.5922775   1.8579586  25.5242577
  57.2381134   2.4546139  25.9025822  56.9376030   1.6504933  24.6559601
  82.6494217  16.3667641  81.9315567  82.4625092  15.9235239  81.1040115
  83.3265991  17.0069122  81.7127762   7.9446082  11.7358894  11.7941036
   7.9274554  12.5815592  12.2421885   8.8557100  11.4494457  11.8579378
  52.7541008  30.4094334  66.5625305  53.3946152  29.7349930  66.3364639
  52.5030479  30.7926521  65.7220840  35.0659370  68.2386703   7.9735456
  34.8341408  67.3389435   8.2037516  34.3878746  68.7737198   8.3860750
  84.0006332   6.7627125  17.3497581  83.8546448   6.1674538  18.0850048
  84.7913055   6.4296861  16.9253139  38.2421494  44.2098007  38.5135612
  38.1972198  43.5221252  37.8492432  38.9703636  43.9503212  39.0780144
   2.4459617   4.0806065   9.0891314   2.3271828   5.0291262   9.0397997
   1.8349452   3.7287195   8.4417782  15.6136122  65.3319550  33.1518097
  14.7308035  65.0145874  32.9616508  16.1927147  64.6793137  32.7581940
  56.8045998  62.3717079  73.2750473  57.3047714  61.5766487  73.4592819
  57.4678307  63.0553856  73.1804810   3.1265254  54.4183884   8.1134825
   3.8033581  55.0214844   8.4207363   2.3654506  54.9755020   7.9503193
   6.6050057  68.4598312  67.3048019   7.0690846  68.0263138  66.5886154
   6.0526595  67.7748795  67.6816177  48.3687897  30.9512787  14.0921555
  48.0628777  31.8345604  14.2982235  47.6388817  30.3820515  14.3359709
  13.1547022  33.9207382   6.7485552  12.3037214  34.3434029   6.8643823
  13.0789337  33.4538155   5.9164057  80.9694138  27.8767948  18.2542858
  81.1217575  28.2124062  19.1376820  80.0713425  27.5462589  18.2752094
  85.3380814  50.5918770   2.5793877  85.3823471  51.3560143   2.0046089
  85.6877213  50.9003906   3.4153323  75.0161743   9.8659039  66.8726578
  74.0895844   9.6844625  67.0299911  75.0164413  10.6405802  66.3104248
  44.8155975  18.6543770  22.7131329  45.7513504  18.8203487  22.8273926
  44.7625961  18.1150990  21.9240799  84.5989838  69.1103592  25.4050713
  85.4738998  69.1167374  25.7932911  84.6825485  68.5473862  24.6354542
  61.6235352  70.3541794  45.9241867  61.5836182  70.4661179  44.9743919
  62.0185165  69.4909973  46.0472374  50.1534462  70.4455261  63.6699905
  50.7952652  70.1801910  63.0112801  49.3534355  70.6119843  63.1714897
  73.0064850   3.6359432  44.9500732  73.3683853   4.3737783  45.4408455
  72.3815994   3.2314487  45.5518494  28.1356201  29.3349247   8.1866627
  28.4876499  30.1818275   7.9126863  28.1805840  29.3547783   9.1425991
  36.9700775  41.2276840  10.6479788  36.0684357  40.9179001  10.5624733
  36.8860054  42.1666222  10.8139887  52.2664948  20.2949715  52.8165741
  52.4368057  19.4969788  52.3161392  51.3119240  20.3569202  52.8510513
  35.6371689  65.5677109  29.3891621  35.3273544  66.0460892  28.6201363
  34.8384094  65.3184204  29.8539982  69.3623581   2.2352958  10.2336893
  69.1959457   2.0281882  11.1532793  68.4922409   2.2827587   9.8376141
  82.9593887  63.0763626  10.9624271  82.8937912  62.1722069  10.6551266
  83.8955383  63.2732506  10.9293327  18.6959171  61.4260941  39.9815941
  18.5900459  62.0367546  39.2521286  18.3768044  60.5899086  39.6421967
  58.8776512  17.6773777  62.2726631  58.4257088  17.3188667  61.5088272
  59.6800499  18.0604820  61.9182320  10.1658363  66.5289307   1.8213997
  10.7787685  66.8558426   2.4799368   9.5826416  67.2681427   1.6491065
   5.4507113  68.0674515  26.7482071   5.8995724  67.6100235  27.4592018
   6.1422997  68.5595627  26.3057499  71.4402390  37.4978752  51.6233635
  70.6635361  37.9843826  51.8995438  71.2431793  37.2198219  50.7288857
  18.0587978  23.8588619  83.5189438  18.7500687  24.3835125  83.1150665
  17.4537678  23.6674156  82.8023453  17.3820801   6.6829872  36.1837311
  16.8863602   6.7534771  35.3679314  17.2675304   5.7724090  36.4556808
  16.6453953  57.2706871  87.4644165  15.9427614  57.0882530  88.0883255
  17.4492779  57.0690613  87.9433289  51.5660820  46.7976341   4.9138007
  51.6740189  47.2079582   4.0557694  52.4430847  46.4916039   5.1449714
  57.6180038   5.8431602  57.5541306  57.8787804   6.0074930  56.6479149
  56.8149834   6.3514662  57.6682129  51.5812531   6.2040062  32.3908005
  50.8017654   6.3392506  31.8519688  52.0063019   5.4361877  32.0086746
  28.8197575  69.9359436  84.0200043  27.9452991  69.9997864  83.6359711
  28.7205868  70.2936859  84.9022827  26.9733562  44.7570839  51.1411171
  27.3763638  45.5123405  50.7128601  26.1292610  44.6546745  50.7015152
  17.0533714  44.3366890  69.2707672  17.6257210  44.5243378  68.5268402
  16.3687801  45.0038071  69.2205200  20.4651127  58.1268387   1.1222299
  20.2788067  57.7251282   1.9708483  19.8981361  58.8974724   1.0923895
  17.7239437  44.4335098  50.4250259  18.2723827  44.2589607  49.6601906
  17.3599224  45.3042145  50.2650414  13.0674372  22.4893913   4.0197725
  12.4585171  22.0119247   4.5832210  13.8717632  22.5517292   4.5349479
  50.7653465  40.3939438  48.3175850  50.7613907  40.0075836  49.1933365
  51.6887054  40.5713539  48.1382370  60.2886467   3.3385992  50.0812302
  61.1174507   3.8067877  50.1818199  60.3925323   2.5504661  50.6144142
  40.5136223   2.5808711  18.2828674  40.0701218   1.9082569  18.7997112
  41.4453926   2.3896639  18.3900032  67.6164322  12.5914211  87.9368057
  67.0827332  13.3828096  88.0082397  68.4300385  12.8093605  88.3915329
  24.7027779  41.1584091  69.3538437  25.5455055  41.2390137  69.8005447
  24.8368511  40.4594002  68.7138062  70.2982483  35.3565445  45.3075027
  70.0907059  35.1602936  44.3939133  69.5826874  34.9617195  45.8058167
   0.3415309  65.5369644  48.3667488  -0.0657089  66.3918533  48.2269249
   0.4495907  65.1763229  47.4866943  62.3073845  10.6317368  45.4342155
  61.4603348  10.4977179  45.8593979  62.0877113  10.9104939  44.5452423
  44.5764542  70.1988754  49.1778412  44.9006386  70.2717819  50.0755157
  43.7908096  69.6568832  49.2501907  21.3205814  53.2252998  75.7402115
  21.3127708  52.2868118  75.9283981  21.8714008  53.3089218  74.9618530
  40.5824776  62.7290535  69.4400482  40.5468941  62.1513481  68.6776657
  39.8313179  63.3127022  69.3335571  72.4357300  13.0606117  70.6956177
  71.5997772  13.2170506  70.2563705  72.3320236  13.4626026  71.5580978
  14.9927244  69.4230728  13.8331575  15.8074570  69.3448029  13.3368540
  14.3445959  68.9575348  13.3045387  77.6865692   5.3327818  47.6929054
  77.4874191   4.7772741  46.9392586  78.6186066   5.1889944  47.8567963
  71.6873169  20.1394653  70.5112915  71.9609299  19.2840672  70.8424454
  71.3574677  19.9610367  69.6306152  50.9618263   9.5836983  35.9588585
  50.7458649   8.7346859  35.5731506  50.1216888   9.9316521  36.2577438
  36.9215202  63.4252090  22.6158600  36.2569046  63.7520485  22.0094814
  37.3353233  64.2142639  22.9656982  20.8805294  20.7457275  25.1448212
  20.4460430  20.1863937  25.7887154  20.6088314  21.6337490  25.3768330
  83.6334457  47.2121773  35.2148361  84.2439728  47.3761253  34.4960785
  83.8201065  46.3138046  35.4874382  69.4449005  10.2506704  74.4010696
  68.8405685   9.8283167  73.7906342  70.1390686   9.6055193  74.5357895
  78.2573242  26.5081348  36.4906464  78.9982147  26.4787025  37.0959930
  78.4879684  27.1929798  35.8629341  52.6623611  52.9210129  39.7692604
  52.5354919  53.7621346  39.3303413  52.2074928  53.0164948  40.6060448
  43.7832489  62.4270897  51.5715141  43.1054726  61.9452591  51.0974960
  43.3820686  63.2735786  51.7683563  35.0951462  62.1879501  13.7296495
  34.9564743  63.0421982  14.1386290  35.0550003  62.3631706  12.7894812
  51.0093575  17.4556160  32.4376221  51.3159027  17.8210850  33.2674980
  50.7579002  16.5568027  32.6500740  39.2008438  29.0661449  10.2297869
  38.2923622  29.3653011  10.2671833  39.2233200  28.2968845  10.7989683
  64.6350098  28.4267197   3.8354805  65.5859833  28.5110931   3.7664173
  64.3895493  29.0418205   4.5265889  84.0042953  63.4633598  76.2370529
  83.0626221  63.6015358  76.3389587  84.3994598  64.2875366  76.5213318
  50.6683502  33.9241295  79.3603363  50.8089104  34.8032913  79.7118301
  49.9301910  33.5802422  79.8634186  42.5203438  63.5523186  14.5161200
  41.9731750  64.3331146  14.4313154  41.9143867  62.8637962  14.7899637
  85.9906998  10.5261116  18.3070450  86.8037872  10.8049240  17.8858757
  86.2353363  10.3676853  19.2187939  74.7328415  41.9462280  42.7831879
  73.9370041  41.8080330  42.2695885  74.6884995  41.2868996  43.4756889
  53.4957657  66.8192520  67.6840134  53.6380768  67.4313507  66.9619904
  52.8157997  66.2260590  67.3646393   2.1875732  29.5940914  47.3801613
   2.6228414  30.4305668  47.2155876   1.3363366  29.8348866  47.7457352
  54.1244888  56.1936226   9.0715256  54.7961960  55.5161095   8.9939508
  53.8051109  56.3176994   8.1777515   7.0739603  28.8750038  62.1426277
   6.3744140  29.3079357  62.6319504   7.0105171  29.2403393  61.2601700
  57.3482399  40.7189751   2.2179182  57.1155663  40.0893898   1.5354817
  57.1002922  41.5689659   1.8542331  64.7998734  12.2083015  31.2654877
  64.0869293  11.5973186  31.0793419  64.3713150  12.9575357  31.6792755
  37.7540131  32.7842674  82.4220734  37.2358246  33.2581635  81.7715912
  38.5703697  32.5720367  81.9695816  36.0421143   6.2848735  12.7074680
  36.6677895   6.8643017  12.2726994  35.2961082   6.2456946  12.1089926
   2.7498775  28.7555084  64.9044266   3.0121269  27.8545723  64.7152939
   1.9382899  28.8771706  64.4117279  19.6644173  14.8474503  32.3846474
  19.6659966  13.9251957  32.6409225  20.5114594  15.1799965  32.6815720
  10.2191591  49.0505447  35.0771980   9.7413664  48.2230949  35.0199699
  10.4615936  49.2501640  34.1729813  52.4751778   1.5830574  48.5353622
  53.3242416   1.3024137  48.8767700  51.9938774   1.8822539  49.3067627
  14.0321341  50.0371780  14.8626394  14.0889883  50.0178032  15.8179531
  13.1656942  49.6804771  14.6669855  70.9446487   0.6490229   0.8413906
  70.4731979   0.5465519   1.6681117  71.5214386   1.3991176   0.9859723
  37.8996735  60.9331245  42.4140854  37.9237595  60.4167709  41.6084595
  38.7868500  60.8673058  42.7673721  44.1190987   3.7766013  78.6263580
  44.3090744   2.8879375  78.3256607  43.2942467   4.0035343  78.1969986
  85.6204910  57.1332397  40.6481857  85.9195709  57.6721230  39.9157982
  86.4247055  56.8676033  41.0941734  28.9320755  49.1647949  36.8061600
  28.5203686  49.5104713  37.5981407  29.6362457  48.6021347  37.1283226
  13.3204060   4.7164812  13.3238544  13.0270414   5.3883286  12.7083950
  14.0568256   5.1187172  13.7844238   3.7927516  68.5594559  60.4635201
   3.9378257  67.7467194  60.9479179   3.9526784  68.3252106  59.5493088
  45.4536819  14.0041323  69.3847504  45.4061127  14.6572123  68.6865692
  45.0956535  14.4485445  70.1532211  23.9769135  49.7419319  55.9314117
  23.0229492  49.7413635  56.0100594  24.2846889  50.1260643  56.7523537
  78.4695969  38.0418015  85.9045868  78.7623749  38.4313812  86.7284393
  78.6801987  37.1120720  85.9911118  45.4429436  40.2407990  61.5136108
  45.6139717  39.6861191  60.7524834  44.5711975  40.6029320  61.3550262
  24.9230042  19.5223541  22.6177406  25.8210487  19.8493824  22.5648289
  24.6132088  19.5254993  21.7120647  62.2322464  19.3076477  67.2729874
  62.3229294  20.0462551  66.6709366  62.7018661  19.5817165  68.0607529
  12.2594824  23.4805317  28.1905098  12.0541067  24.1018467  28.8890953
  12.5888596  24.0246754  27.4752102  39.5876045  32.9696732   8.1792746
  38.7213058  33.1256981   8.5553236  40.1505814  33.6222038   8.5958004
  34.6956253  60.0206490  46.4471207  34.1184006  60.6912384  46.0819473
  34.6969795  59.3230286  45.7917137  55.9692650   5.6145754  22.9079418
  56.5254364   5.7179489  23.6800919  56.5153389   5.9076424  22.1784592
  38.2587166  17.3272724  21.7333488  37.6417656  16.8943005  22.3233814
  39.0015602  17.5583076  22.2910595  82.1478806  29.4876213  72.0959244
  82.1801224  30.0735626  71.3397064  82.1142197  30.0738316  72.8518753
  62.8779984  70.5065765  30.1255875  63.1372833  71.3905945  30.3854179
  63.3542633  69.9315109  30.7245064  28.5504856  32.3075638   6.5670357
  27.6686096  32.0946770   6.2617402  29.0444145  32.4860306   5.7667751
  64.2226944  15.9542131  71.0590973  64.3767090  16.5510311  71.7914429
  64.8739014  16.2056732  70.4041748  75.9100800  56.4080238  69.6473618
  75.1059723  55.9033737  69.7697449  75.9146500  56.6291962  68.7160797
  13.1433668  27.9587383  28.3373203  13.6852980  28.4958706  28.9152756
  13.5724316  27.1030979  28.3335266  39.2884903  45.3749199  45.4627457
  39.0973320  44.4653702  45.2338219  40.2242203  45.3795929  45.6642952
  32.9643822  45.6271362  28.9814262  33.3502846  45.7747269  28.1179867
  32.6085472  44.7396851  28.9362144  53.8425026  63.4022408   1.5866733
  53.0735359  63.9212875   1.8222916  53.7104340  62.5639191   2.0293977
  37.6566544  50.9836502  68.3852234  37.9616432  50.5133820  67.6092911
  37.1201630  51.6962471  68.0379257  76.7540588   5.2238727   5.3886223
  77.4737244   5.2483492   4.7579732  76.7200775   4.3120914   5.6779861
   9.2171459  60.7917137  45.4102058   9.4446974  61.6479378  45.0478096
   9.9988203  60.2571602  45.2706757  68.9841232   4.0948381  61.1782913
  69.6343231   3.3933346  61.2151871  68.5263290   3.9537508  60.3495865
  81.4486542  27.0116024  32.8663559  81.8224182  26.1691666  32.6078339
  81.1968079  27.4253597  32.0407600  38.9516640  45.2237091  61.5998268
  39.1881027  44.3026505  61.7092667  38.7828598  45.3178978  60.6623497
  67.0141144  15.5816002  87.9735107  67.1924362  16.3171196  88.5595551
  66.2992630  15.1060457  88.3966827  41.4785767  46.4885864  65.9338150
  40.6507530  46.0146980  65.8539810  42.1172333  45.9317322  65.4885406
  78.8140182  27.0138092  71.4801941  78.9437408  27.3370323  72.3717804
  77.8711777  26.8619289  71.4152985  78.3981934   8.5855913  88.0853424
  77.9156418   8.9009409  87.3211899  79.2317429   8.2758017  87.7311478
  72.9063187   7.3657246  53.0115814  73.7182846   7.1856050  52.5377655
  72.2321854   6.8991275  52.5175591   7.2508187  44.7513618  27.9631824
   7.3963590  44.0666504  27.3103256   6.4788604  44.4596672  28.4481831
  39.2856369  35.4872818  13.6849794  40.2290611  35.6412926  13.7346029
  38.9985886  35.4629250  14.5978003   3.3522270  14.6053486  74.3701248
   4.2131109  15.0001307  74.2313538   3.1271656  14.8325415  75.2723236
  32.8344803  64.2026443   3.2034173  32.3745689  63.9725533   4.0107431
  33.7205544  64.4264984   3.4880111  43.4250755  22.3884125  25.4076099
  42.8318977  23.1377831  25.4606876  43.3420715  22.0807037  24.5050259
  73.7585449   8.7125359  11.7402420  74.5229874   8.2291527  11.4268799
  73.0487823   8.0703659  11.7309847  31.2259121  55.7333679  77.0092621
  31.6750546  56.5786362  77.0045013  30.8512154  55.6562996  76.1318283
  77.4109268  38.8810463  54.8042717  77.5390015  38.5983543  55.7097626
  77.0747147  39.7742615  54.8774948  74.5509033  66.2122955  79.0618744
  73.8843918  66.8829956  78.9130096  74.5251846  66.0543747  80.0056076
  45.3438797   1.5803888  76.7479477  46.2848015   1.4289064  76.6587677
  44.9383316   0.8482774  76.2834320  42.6550865  31.4641914  27.7769909
  43.1446571  32.2699280  27.6116333  43.3282471  30.8064938  27.9516945
  27.3553009  55.1012344  15.8672581  26.9456291  54.9131241  15.0228558
  27.9920311  54.3965988  15.9868212  20.6894360  57.0681229  78.9903717
  21.5357227  56.6842728  79.2199173  20.3806610  57.4701691  79.8023148
  51.2443886  29.4051857  39.2373009  51.1909332  29.4081554  38.2816010
  51.9813728  29.9821625  39.4377632  74.3420563  34.1825867  26.8357143
  74.7966156  33.3636742  26.6382446  74.2239990  34.6024742  25.9836636
  79.2167282  18.7792377  53.0126534  79.0497971  18.2017345  52.2677689
  79.8585510  18.3068199  53.5428581  23.8597984  71.8386688  66.9280624
  23.7822361  71.9688416  67.8731995  23.4685001  70.9792023  66.7717590
  27.8078556  66.2545471  31.4214020  27.9640408  66.4747086  30.5030518
  26.8571758  66.1650085  31.4878979  63.2032204   0.3139081  58.0035515
  63.6152420   0.6166866  58.8127441  63.8847084  -0.1939920  57.5632744
  84.9284439  43.1046791  71.2857971  84.9037094  43.9518204  70.8408508
  84.2583694  42.5826950  70.8444748  82.7604980  26.4071503  87.4006271
  82.6441345  25.5632191  87.8370590  83.0467300  26.9990883  88.0962601
  63.6837616  67.0527115  62.7619972  62.8629723  67.5424500  62.8138809
  63.4176826  66.1633682  62.5285606  67.5452194  23.4915791  49.7569733
  68.1339569  22.7476997  49.8845139  67.6004944  23.6830025  48.8207397
  71.1218033  12.1894827  29.9416885  72.0690613  12.2945499  29.8528290
  71.0179749  11.4505692  30.5412388  59.4579926  49.4452858  16.6658077
  59.5921288  50.3908119  16.7307949  59.7158737  49.1072884  17.5234127
  27.9422340  61.0580559  24.4885120  28.0310459  60.8415642  25.4166698
  27.2078476  60.5232468  24.1870327   8.3844509  64.1095505  12.5710726
   7.6919188  63.5337143  12.2469692   8.8430071  63.5862274  13.2284079
  32.9784164  12.5810556  11.3009844  33.5859985  13.3088570  11.1691456
  32.2930565  12.9402685  11.8644400  66.5314484  65.3763504  29.2177162
  66.2771606  65.9820099  28.5214806  65.7112579  65.1673584  29.6647587
  76.9697418  59.6642799  27.5689850  76.3063889  59.5159531  26.8950481
  76.4686890  59.8905296  28.3525581  62.4345055  60.1629257  44.7440987
  63.3065147  59.9284592  44.4265175  61.9512405  59.3366928  44.7490501
  84.8315735  49.0515556  74.6793823  84.6093292  48.9578781  73.7530670
  85.0781403  48.1692886  74.9569473  53.6281662  33.6283798  76.1144409
  54.1596222  34.1195793  76.7409439  53.1469803  32.9982414  76.6507416
   0.4708828  53.3126755  48.0382195  -0.0127649  53.8713264  48.6466827
   0.7612731  53.9071350  47.3464661  50.8703270  64.4057388  26.1249447
  51.5012665  64.7112885  26.7766991  50.1972847  63.9558334  26.6356583
  17.3612804  24.1020126  29.8729992  18.1648979  23.6610584  29.5973358
  17.2088661  24.7650814  29.1996918  14.9250574  65.3368301  45.2687950
  15.5531464  64.6828613  44.9621010  14.0692215  64.9333191  45.1240349
  56.8068657  44.4345856  37.6070251  57.4811134  45.0896263  37.7874298
  56.2698898  44.4191246  38.3992653  30.3308315  57.9185410   5.4081998
  29.6491184  57.2836952   5.6283603  30.4804859  57.7939529   4.4710159
  44.7106209  34.7617340   0.0099431  44.2187691  34.1863518   0.5958163
  45.2748184  34.1704788  -0.4883843  27.4663773  40.5021439  28.2711639
  26.6761284  41.0169373  28.1076927  27.1426296  39.6670799  28.6089382
  20.7385883  52.2635918  12.0034389  20.0068493  51.6465378  11.9977312
  20.9704762  52.3515968  12.9279470  20.8799419  48.2679863  13.6005783
  20.2186718  48.7401772  13.0946264  20.6765099  48.4749374  14.5127296
   0.3132163  55.7512741  70.5440674   0.0217602  55.9625473  69.6571350
  -0.1245038  54.9252129  70.7496262   2.0913815  36.6052246  24.2020893
   2.5253332  37.3412399  23.7705784   2.7664914  36.2253418  24.7643566
  75.4258499  26.3778381  30.0323448  74.6605148  26.1103249  30.5411873
  75.4876480  27.3228436  30.1715469  58.8782539  32.7799644  16.2654419
  58.6391373  32.2620621  17.0340977  59.2725143  32.1481400  15.6641207
  64.6453934  17.0520115  61.3022461  64.6460190  17.2551479  62.2376442
  64.8305435  17.8885059  60.8753700  23.8122425  71.3906326  50.4332237
  23.7960358  72.0713425  51.1059875  22.9656715  70.9516907  50.5161743
  53.3268738  26.0563717   0.7902742  54.2759628  26.1225224   0.8955647
  53.2069931  25.7301521  -0.1016011  60.9874916  51.6186829  70.9726791
  60.1778679  51.2037239  71.2702484  61.0252991  51.4256439  70.0359116
  85.2375488  11.6488848  40.9270706  84.4694519  11.1046991  41.1006241
  85.1896057  12.3463659  41.5808716  72.1129150  41.6524162  41.8393974
  71.7075577  41.7117844  40.9742966  71.5567169  42.1912651  42.4019966
  16.4786720  62.7537804  46.0785294  15.7930355  62.9853630  46.7050323
  16.1174545  62.0135269  45.5909081  84.5409393  16.1722698   3.3715589
  83.8974991  16.8540764   3.5648420  85.0197067  16.5032654   2.6116543
  52.6608963   6.5907292  44.7252808  53.5454483   6.4575233  45.0659447
  52.6883583   6.2289300  43.8395157   2.2690222  12.7268333   8.2913809
   1.7818139  13.5499229   8.2541800   3.0525670  12.9350958   8.8002186
  83.3067856  18.4170647  69.6069183  84.0668945  18.0251389  69.1769638
  83.3185272  19.3322411  69.3266602  71.4884109  49.0315285  49.6726685
  72.2895432  49.3940620  49.2945290  71.3008575  49.5959129  50.4226837
  31.0177212  62.1455956  64.1042023  31.5568218  61.5197296  64.5878296
  30.7164650  62.7656059  64.7683258  47.5778236  61.9033127  45.4559212
  47.8041420  61.1308784  45.9739532  47.4726067  62.6022072  46.1014519
  34.1759949  69.3284073  85.7058105  34.8039818  69.6915131  86.3303299
  34.3753395  69.7710953  84.8808746  40.3242912  66.0947342  17.3509846
  39.5113640  65.6852112  17.6470814  40.1501007  67.0347443  17.3985710
   4.9164953  23.6515465  33.5817413   4.0514793  23.4251308  33.2401047
   5.0476637  23.0531788  34.3172569  81.7963867   0.7995507  11.8264475
  81.3873444   1.6595697  11.9228077  81.4110336   0.4391790  11.0277824
  51.8904800  31.9023037  77.5281601  51.2411385  31.2943077  77.1747131
  51.4284058  32.7384987  77.5872955  20.1641731  59.4598389  30.3205013
  20.0704689  58.7719345  29.6615372  20.3090191  60.2588501  29.8137131
  32.3662033  66.3565292  64.7429047  31.4912777  66.4968033  64.3808746
  32.2313843  66.3257294  65.6900635  70.6525269  61.4689331  48.3126106
  71.3850021  61.6565018  48.8995705  70.6901779  62.1620636  47.6535339
  69.1544342  25.1583462  11.9561281  69.6492615  24.9380836  11.1669121
  69.0359192  24.3217049  12.4058123  41.5298042   3.8746023  60.7868309
  41.1060295   3.0533807  60.5373497  40.8255081   4.5225863  60.7691383
  73.2056580  58.3195000  21.5787716  72.4328232  58.7451210  21.2075539
  73.4106293  57.6159363  20.9629650   8.9818268  62.9256363  53.1764221
   8.4526949  62.1330070  53.0870247   8.7350950  63.2833977  54.0292778
  36.9617157  34.9975128  18.7307491  36.8755608  34.0980644  18.4148388
  37.7123337  34.9720764  19.3241806  27.0480232  50.0109291  55.7345848
  27.3380623  49.3143234  55.1456451  26.2551727  50.3565979  55.3245430
  62.6556396  56.4377289  32.2394943  62.0399437  55.7586632  31.9637814
  62.2735519  56.7965813  33.0404091  59.3568039  44.1306686  66.0825729
  58.7636566  44.2080460  66.8298492  59.8814049  43.3529320  66.2727127
  11.3167305  56.1406708  50.8588829  11.8046484  55.3212357  50.9406815
  10.5033817  55.8922997  50.4195557  75.8910217   6.4611478  58.8080139
  76.5994034   6.0237460  58.3356705  76.2933426   7.2540650  59.1624908
  42.1742706  30.0459156  70.2780533  42.0942039  30.2474575  71.2103653
  41.2804375  29.8487701  69.9980087  63.9839058   9.2713556   0.4236831
  63.2220840   9.5132504  -0.1029555  63.7924004   9.6178331   1.2951819
  53.4529724  68.0106430  88.2286224  52.6015549  67.7659149  88.5911484
  54.0832329  67.7491760  88.8999176  58.1782265  16.9260826  11.8372555
  58.7995224  17.4934425  11.3808250  57.3725243  17.4408741  11.8827267
  39.6730728  16.2369709   9.3436327  40.0284805  16.2814617   8.4559746
  39.6877365  17.1426201   9.6531725   5.5511265  11.6848030  60.7583389
   4.9828439  11.1806927  61.3407135   5.1043487  12.5251436  60.6561165
  86.9086075   8.9765940  14.9659910  86.0799408   9.4556322  14.9573364
  87.5342484   9.5728397  14.5545368  -0.0090940   0.5149052  15.8160772
  -0.0175999  -0.1485924  16.5059547   0.8338587   0.9565858  15.9189415
  66.6773529   9.8900414  88.7469559  66.5715408   9.6794081  87.8192368
  65.8092270   9.7496605  89.1249619  22.4793072   4.0244493  47.6002464
  23.0098362   4.8205285  47.5681610  21.7207241   4.2198324  47.0501480
  69.5669174  62.7861786  82.0009079  69.3452759  62.9879761  82.9099655
  69.1183014  61.9595833  81.8228226  71.6994858  29.8013077  67.8173904
  72.1355972  30.6250992  68.0351181  71.8270187  29.7049217  66.8736343
  46.2946129  69.3989182  32.2544136  46.4144135  69.6003494  31.3263493
  46.7618980  68.5734177  32.3825951  20.1242962  30.4280186  21.6559792
  19.7067986  30.6410198  22.4905815  20.9408035  29.9926071  21.9008541
  71.7969208  54.0769958  13.2196007  71.0402832  54.0623207  12.6335039
  72.5255737  54.3521767  12.6632013  42.5908928  61.5793686  31.6070518
  41.7015419  61.5971603  31.2535458  43.0873528  62.1657028  31.0361137
  50.7055206  12.2510090  12.4860554  49.9501381  12.3591709  13.0639181
  50.5755920  11.3940573  12.0798721  26.0107365  51.3097382   7.8524880
  26.4103203  52.1002846   8.2152557  25.3447285  51.0620689   8.4938345
  36.2070503  55.6817894  55.9136162  37.1280060  55.4231949  55.9483070
  35.8258514  55.3179512  56.7127075  77.2948227  57.4590759  25.3938389
  77.9295959  57.6309471  26.0893612  76.5530396  58.0275726  25.6007309
  77.2852707  10.6790857  63.4174500  77.9350052  10.3343525  62.8048897
  76.4459076  10.3737526  63.0732460  84.5121994  43.7641907  77.9194641
  84.2106476  44.6222916  77.6212082  84.9411087  43.3816795  77.1539917
  13.5261774  71.5666656  12.4398422  13.6631546  71.4275589  11.5027628
  14.0609503  70.8946075  12.8624325  69.9564362  45.0343857  82.1412354
  69.5419235  45.3605499  82.9400024  70.2008286  45.8240433  81.6585922
  36.8596687  39.1172943   6.6911349  36.3787766  39.0738373   5.8646436
  37.7684631  39.2691040   6.4317632   3.1072552   8.8844423  15.9169636
   3.8731663   8.3580093  15.6878786   2.5883169   8.3169107  16.4869137
   0.8096718  54.3427162  34.4125748  -0.1102883  54.3898544  34.6727371
   1.2957183  54.4603386  35.2287598  76.8615265  17.0776291  16.5426426
  77.7107697  16.6421909  16.6162033  76.2323380  16.4310417  16.8624477
  36.2677383  49.8320274  82.4128418  35.7818871  49.0714378  82.7317200
  36.1140709  50.5082436  83.0726471   3.3476238  47.5391235  12.1826410
   2.9125667  48.3892555  12.1175880   3.2601452  47.2951889  13.1040945
  69.9534607  47.0314140  88.9490356  70.4418335  47.7880135  88.6245575
  69.1585541  47.4047775  89.3297577  11.9458694  30.2081604  60.0299950
  11.5451813  29.8943138  60.8406639  11.2046242  30.4110107  59.4593506
  86.8028793   2.4740982  36.6049995  87.4216843   1.9929982  36.0555840
  86.0288010   2.5853391  36.0530396  74.0021439  53.9693375  72.8437881
  73.8350143  53.1011772  73.2106552  73.4360046  54.0168648  72.0734253
   2.2872391   6.3534541  12.6137552   1.5901961   6.1944308  13.2502098
   3.0801873   6.4382596  13.1431637  56.0621185  49.0444298  34.7622795
  55.2970085  49.5570755  35.0231133  55.9054756  48.1754303  35.1317825
   0.2681756  67.1379623  10.8111525   0.6233954  67.9997559  11.0287857
   0.4138177  67.0497742   9.8692160  36.3636208  44.8328285  36.2402420
  36.5973816  44.8299332  37.1684532  36.2402840  45.7578316  36.0271950
  71.8618088  36.7202530  77.0805893  72.0471954  37.5376663  77.5428619
  72.7192917  36.3110771  76.9642944  52.4342461  66.0756073   2.0268564
  52.0582314  66.8793106   2.3858836  53.2677650  66.3508453   1.6451204
  55.0168991  11.2224436  40.4496918  54.8616867  11.6373072  41.2982368
  54.1793060  10.8177023  40.2241821  74.4996567  42.1233139  31.9754925
  73.7703857  41.6692047  32.3976097  75.0658798  41.4211388  31.6552181
  85.0214920  70.3605652  29.2013416  85.7110596  70.3670807  29.8651886
  85.0898895  71.2156143  28.7765541  75.3579254  10.7819405  80.3945236
  75.6673355  10.0917377  79.8079147  74.4623871  10.9579067  80.1059494
  44.5996323  55.4834557  84.3375320  44.4012489  54.7436066  83.7635040
  44.0710945  55.3277702  85.1202469  17.0193348  40.3555717   8.0595245
  17.4500237  40.0249405   7.2712235  17.3561516  39.8040924   8.7656803
  10.4662066   7.4596300   2.0310662  10.0785503   8.1452150   1.4870738
  10.7024775   7.9046144   2.8449438  27.1586742  66.5032806  17.5657063
  27.6457367  65.9332657  16.9706554  27.3384304  66.1496735  18.4368458
  45.2374115  69.9266205  71.9262161  45.6486244  70.7812195  71.7966309
  45.8556137  69.4441147  72.4750748  80.9352951  59.7141190   6.7517266
  81.1316452  59.5238037   5.8344150  80.0933228  60.1687660   6.7271085
  11.0600367  43.4148941  18.8150387  11.5161657  42.6208420  19.0937176
  11.6450510  44.1287384  19.0688362  45.2485580  26.2574158  26.3268623
  45.9278374  26.9147243  26.4777126  45.3825226  25.6110954  27.0200844
  78.8442383  40.1726723  30.0967407  78.0998230  39.9347649  29.5440445
  78.5085526  40.1093903  30.9909115  10.3440056  27.6800747  59.6024857
  10.4860258  28.3441906  58.9279404  10.7137680  28.0635490  60.3977585
  42.7706642  14.1344023  84.1703262  42.7676620  13.6571770  83.3405762
  42.6803246  15.0534210  83.9183807  80.4798660  26.8404160  85.8170319
  81.0865173  26.7195759  86.5475159  80.4524918  25.9868412  85.3847198
  47.4173965  66.8205643  42.3643074  47.1686516  67.5359421  42.9496269
  48.2490692  67.1015091  41.9827003  60.3787079  47.1021919   8.2664051
  60.5200729  47.2858849   9.1951170  60.4298935  47.9587936   7.8423257
  12.3571663  51.1368294  61.9425316  11.5019016  51.5515251  61.8294678
  12.4501657  50.5675316  61.1786728  71.2803955  41.4783821  39.3119049
  70.9145966  40.5957184  39.2542686  71.9418106  41.5091476  38.6206589
  19.3830814   9.5766430  67.1506500  18.4656544   9.3550539  66.9910965
  19.8763714   8.8753796  66.7250595   9.2412777  31.8995781  81.9349976
   9.0901699  32.1247101  81.0169983   8.5770140  32.3938446  82.4152908
  61.8642731   1.8793445  34.5933609  61.5391769   1.6763188  35.4704742
  62.7892418   2.0886219  34.7232513  21.9842815  70.0735550  32.3492393
  22.5336399  70.2697449  33.1081505  22.2585773  69.1985245  32.0747948
  31.5747070   5.2082663  26.8072853  31.5169640   4.2942243  26.5290337
  31.7454147   5.1619301  27.7480011  11.1798248  64.0660553  10.1267042
  10.5863333  64.2051773   9.3887043  10.6203032  64.1348648  10.9002886
  73.7694092  60.3836060  69.5720520  74.5909271  60.0147743  69.2475586
  73.6087570  59.9228554  70.3955460  55.3820305  40.9633102  74.7389221
  56.1370354  41.2077255  75.2741470  54.6972580  41.5814743  74.9942551
  61.6954269  55.3106384   8.1112452  61.8517647  55.5117989   7.1885719
  62.0233459  56.0766792   8.5822916  51.5878220  38.3694801  35.4380417
  51.9918442  38.2488251  34.5787163  51.8928185  39.2293777  35.7274971
  74.2295685  64.1947479   4.4338336  73.7765579  63.8320656   3.6725991
  73.7259827  63.8801117   5.1845903  43.7994614   9.8508835   0.9100850
  43.6518669   8.9076567   0.8410215  44.6870422   9.9795446   0.5756037
   1.2110085  56.6643066  85.1924210   0.8912364  57.3293266  84.5827332
   0.5045118  56.5648842  85.8305511  78.4520264  29.8180065  16.6533375
  78.8650742  30.4585400  17.2324238  78.8087463  30.0134163  15.7868509
  62.2497406   0.6372398  16.8448391  62.1643524  -0.1375404  17.4004078
  61.6386185   1.2704828  17.2213554  27.2866936  11.1026115  12.5017443
  27.5699654  10.8620462  11.6196346  28.0342674  10.8888311  13.0600138
  22.8410950  63.1938210  51.1330566  23.6425495  62.9828835  50.6540909
  22.3835907  63.8189888  50.5708427  54.5838737   9.0900106  47.0686646
  55.0059776   9.7645521  46.5366364  53.6517029   9.3043184  47.0317268
  50.4979401  30.0816498  87.6044464  50.7743645  29.5033321  86.8935471
  49.9715118  30.7554035  87.1741486  39.9804993  65.5999527  60.1996651
  40.8528175  65.7457886  59.8335724  39.6237869  64.8746033  59.6869736
  32.3928719  57.9044533  57.3495827  32.5849380  57.9115829  58.2872887
  31.4480038  58.0485039  57.2975311  61.8076286  18.3745918  33.9563103
  61.2205429  17.7820034  34.4257812  61.8281517  19.1666431  34.4934006
  34.0233994   0.3863939  88.0364990  34.3146210  -0.5218922  87.9562531
  33.3104439   0.3538613  88.6743546  23.3536415  35.5413017  25.2656307
  23.1202564  35.0188866  26.0329933  23.2417526  34.9439163  24.5261421
  68.7066498  21.5047874  43.0674248  68.5936050  22.3009777  43.5865898
  69.2758331  21.7689743  42.3446045   8.7521887  40.9899254  43.8984795
   8.6384373  41.9399643  43.9253235   8.0179443  40.6463127  44.4074440
  54.9015770  56.9477425  29.7410507  53.9781494  57.0882149  29.9502792
  55.3731155  57.5339203  30.3328972  60.9142952   1.8697925  40.9203300
  60.6300583   0.9688353  40.7663307  60.1464577   2.3027179  41.2934685
  79.6960373   3.4747751  24.4796982  78.9708939   3.3969820  25.0996532
  80.4465942   3.1002340  24.9408016  26.9952202  34.7210846  84.6280441
  26.4674282  34.7502136  85.4260559  27.7742348  35.2364845  84.8371658
  80.2700424  41.0642853  44.1347542  81.0236816  40.5082932  43.9369202
  79.5192032  40.4716759  44.0988007  32.6775551  14.9598351  73.2756042
  31.8471680  14.5279903  73.0751114  32.5323181  15.3753843  74.1255798
  16.5873604  31.1068077  71.4663620  15.7826385  31.3641510  71.9162827
  16.4620152  31.4012070  70.5642242  37.3549232  35.4804878   4.8907909
  37.0135727  36.3101768   4.5571356  36.5831795  35.0181160   5.2176790
  63.9759331  34.1231804  72.5296707  64.9279099  34.1070290  72.6281815
  63.6590919  33.4741478  73.1578445  13.9215393  21.5453415  26.9342823
  13.1515141  22.0526142  27.1911221  13.6367426  21.0498638  26.1664104
   6.5266814  57.1718979   0.4921325   7.0510859  57.6633759  -0.1400680
   6.7953496  56.2613602   0.3697668  72.2722778  24.5336132  82.5440979
  71.5231705  23.9708481  82.3482361  72.2096558  25.2458496  81.9076767
  36.6634254  27.9545727  23.7948818  35.7673073  27.8797340  24.1229191
  37.1456413  28.3721371  24.5085602  45.0583725  59.0999680  60.3377800
  45.8618240  59.5173683  60.0271759  44.9931412  59.3600464  61.2566605
  46.9875374  51.2938309  17.6910152  46.9253693  52.1619492  18.0894318
  47.9239807  51.1665802  17.5389767  74.0776443  21.2169094  48.2315903
  73.2214050  21.5984325  48.0378799  74.3068619  21.5674400  49.0923004
  38.9471321  45.5637207  82.3515778  38.4487991  45.0050354  82.9480362
  38.7298889  46.4560127  82.6214828  79.5552902  56.7170486  66.6881104
  80.0972443  56.0339012  66.2933655  79.4059219  56.4162140  67.5844421
  27.2577286  62.0038910  35.5501099  26.8400822  61.2175369  35.9014626
  27.1651840  61.9205399  34.6010475  77.3767242  46.4880524  54.4975128
  77.9891968  47.0085564  53.9777222  77.5284729  46.7698860  55.3996048
  69.9213791  41.9678688  27.4200802  69.8795395  41.6810951  28.3323517
  69.0678482  41.7332230  27.0558624  38.8074875  31.8833389  78.3635406
  37.9561729  31.4457378  78.3645477  39.2970657  31.4531841  77.6624603
  64.7885132  11.2408018  70.6961823  64.7148972  11.6457911  69.8320084
  65.1447449  10.3694477  70.5227814  30.0801563  12.1965075  22.2554245
  29.9772949  11.3946295  21.7429352  29.2283115  12.3250332  22.6726437
  64.2105713  58.4985962  65.5725555  65.0709381  58.7141800  65.9324570
  64.3187180  57.6228447  65.2016068  74.0902557  21.0226631   0.7161064
  74.7506485  21.7081871   0.6152483  74.4789734  20.2526951   0.3010407
   9.0049887  36.6427383  70.8086777   9.3379478  36.6655426  71.7058105
   9.6609144  37.1169014  70.2976379  25.7954559  36.2752342  11.1542616
  26.3726940  35.9953270  11.8646688  24.9249992  35.9815407  11.4231138
  78.2073135  53.8771324  63.5233345  77.5519180  54.5719681  63.4609184
  78.9509430  54.2030640  63.0163612   5.4220304  29.4548721  78.8047714
   5.8215141  30.2980461  78.5909958   6.1593375  28.8957386  79.0496826
  81.2370453  50.7500420  15.3223114  81.3829346  51.6864586  15.4567165
  81.5037918  50.5936737  14.4164286   4.3040614  24.3224716  22.7454720
   3.4303653  24.6861897  22.6019554   4.8603902  25.0871143  22.8939705
  23.7798939  55.7848549  76.6645737  23.5191288  56.0241547  77.5539398
  24.1621208  54.9118271  76.7537689  15.6851416  14.6392784  56.9024467
  16.1587429  14.6451015  57.7342491  14.8682251  14.1791325  57.0951729
   2.5694642  14.7408991  14.7230530   2.2789464  14.9787483  13.8425646
   2.5486140  13.7839661  14.7318106  45.1105843  21.2375546  61.9375191
  44.6207275  22.0431213  61.7721977  45.1958771  21.2003307  62.8901825
  21.5524464  17.7749634  77.5464096  21.7972832  16.9527664  77.1218185
  20.8890896  18.1540394  76.9697952  44.5237923  64.1337738  22.6758060
  44.4979172  64.6133499  23.5037956  45.1065331  63.3936729  22.8458004
  54.8384323  69.6031113  51.6739273  54.9534340  69.0920029  52.4750328
  55.6649437  69.4987717  51.2025261  51.6431770   2.2469447  26.9539928
  52.4801140   2.7114508  26.9561520  51.5525818   1.9124745  27.8462677
  79.0134277  33.4846077  48.1472511  78.8598099  33.1394119  49.0267258
  78.1371307  33.6241837  47.7882957  16.2872524  47.8523712  54.4635048
  15.5521793  47.9207458  55.0727844  17.0643024  47.9517097  55.0135536
  56.7618790  64.5895386  64.3419647  56.7050133  64.8083191  65.2720871
  56.4552650  65.3765640  63.8916092   2.8267288  58.8131981  50.3078842
   3.3108439  58.3932533  51.0188751   3.4454820  59.4411812  49.9350395
  84.7692566  25.4882908  51.7763405  85.6836014  25.2718391  51.9589348
  84.4719467  24.7947445  51.1874161  48.2286987  55.1441269  50.6795998
  47.8603706  56.0275955  50.6862602  48.2860718  54.9015732  51.6037788
  36.9469604  33.7632141  75.7769852  37.0183563  33.3448563  74.9190140
  36.1093712  33.4563484  76.1241226  17.2857056  69.8600693  56.4315567
  17.8726006  69.9731445  55.6838951  16.4077454  69.9646149  56.0648308
  26.9121475  42.3211823  70.7899399  27.5835533  41.6410103  70.7368927
  27.1043739  42.9052086  70.0563202  55.5216675   6.6682034  52.9018974
  54.9150925   6.4116130  52.2073059  56.0969124   7.3136716  52.4911690
  41.3204193  56.0786705  14.1975746  41.8179474  56.7345581  14.6859484
  41.7753563  55.2546196  14.3713713  38.3281250  59.0202904  11.8436871
  39.2050743  58.7042694  11.6261578  38.2906075  59.9000244  11.4683304
  66.1190033  62.4123421  34.1393700  66.8140564  62.9976387  33.8384285
  65.3161926  62.9247322  34.0435562   4.1277151   4.7062006  24.7336617
   3.8961167   4.4692464  23.8356380   5.0786500   4.8139811  24.7152729
  79.5369263  64.7113724  82.8272324  80.4122849  64.5006714  83.1521606
  78.9528198  64.4924316  83.5532608   8.9926672  30.8731804  58.0083656
   9.2116270  30.1406765  57.4324112   9.0804310  31.6484280  57.4538193
  40.4143600  29.2922020   2.2776196  39.8176193  29.9280548   2.6723592
  40.6023750  28.6712112   2.9813619  82.4806976  59.3429070  30.7137184
  82.4511871  59.6888657  31.6057224  83.2279892  59.7844353  30.3101768
  46.9713745  50.3339462  62.3102913  47.4574051  49.7804794  61.6990013
  47.5272751  51.1038971  62.4302063  22.4156666  51.2172585  59.2407455
  22.5282326  52.1395187  59.0105438  22.0703201  50.8122444  58.4451752
  39.7892723  36.3107986  72.0490799  40.6095848  35.8218613  71.9838486
  39.3312683  36.1205063  71.2303848  59.4631462  10.3724155  46.2426033
  59.0471458   9.5771656  45.9098091  58.8412857  11.0711040  46.0392494
  18.3194466  51.0969963  17.4188175  17.8562679  51.7999115  16.9631767
  18.0270615  50.2961159  16.9836903  27.2430382  66.8346786  58.7608643
  26.7409134  66.5800323  57.9867477  26.6100235  66.8026733  59.4781494
  14.3607168  43.2401199  49.1212540  15.1720896  42.7560844  48.9675789
  13.6685581  42.5878525  49.0131226  20.5608501  54.6905632  33.2129097
  19.6854992  54.6465607  33.5976906  20.8180695  53.7758026  33.0976448
  50.6967354  45.6581268  61.4884377  50.5714569  45.0307693  62.2004471
  49.8112640  45.9405022  61.2594490   9.9810543  14.5908785  64.6570129
   9.0749769  14.3348837  64.8294067  10.5065556  13.9352837  65.1155701
  81.6798248   0.8321855  45.0184631  82.2434692   1.6058314  45.0219536
  80.9567719   1.0652596  44.4361382  83.9437714  64.2046204  57.8750076
  83.9988403  63.3639221  57.4206734  84.3012390  64.8373947  57.2520676
  36.9798164  56.9673576  37.5114441  37.2455177  57.5919113  38.1864014
  37.2627754  56.1168709  37.8473587   1.2766219  41.5949020   5.3618355
   0.6162264  42.0771141   5.8594103   0.7823668  40.9148636   4.9041319
  75.4099426  28.6805058  43.6038857  74.6379318  28.9378281  43.0998878
  75.4044342  27.7236538  43.5786781  41.8327141  65.5151062  47.2422676
  41.6395721  65.1279755  48.0961189  41.5164032  66.4159470  47.3106499
  26.1342087   8.9973078  21.0239639  25.9178543   9.3004017  21.9057560
  26.0916805   9.7855597  20.4825935   7.2210064  18.3335323   8.7131395
   7.6648154  17.7672939   8.0817614   7.1860428  19.1887684   8.2846737
  70.8628693  55.2780952  31.0799160  70.5134735  56.1585350  30.9421558
  71.8122025  55.3981895  31.1039505  38.3287010  65.1490479  30.5803795
  39.0674057  64.8364182  30.0580635  37.5869598  65.1404572  29.9754181
  73.4149933  28.6893654  21.5363064  74.3253708  28.8112125  21.2668648
  73.4577637  28.5917397  22.4875526   3.0318830  46.1472511  65.5324783
   3.4479983  46.3508835  64.6948547   3.7576759  46.0969467  66.1545105
  71.2356644  50.6059799   0.7855462  71.3948364  49.6987305   0.5251750
  70.6552734  50.5392418   1.5437876  68.4346542  61.4374695  24.6629162
  69.1290512  60.8945541  25.0361233  67.9714813  61.7897682  25.4229069
  69.0724945  52.2899132  64.3770447  68.5429306  51.4976006  64.4666748
  68.7709579  52.8607521  65.0837631  69.5214157  56.9961891   9.0049515
  68.5899353  56.9387703   8.7921572  69.5947342  56.5932732   9.8701200
  41.3245316   7.2708778   9.1036625  41.2057152   8.0640678   9.6261215
  41.4151421   7.5874276   8.2048759  66.2000656  50.4829140   4.4024758
  65.2696152  50.5737228   4.6080165  66.4721222  49.6920586   4.8680511
  61.0165443  46.1403618  66.5550003  60.6932831  45.4335213  65.9963379
  61.4117470  45.6926956  67.3030930  12.4065857  24.6815853  34.5564346
  12.7104568  24.3220654  33.7229843  12.9710236  25.4391479  34.7105179
   1.0831861  46.8380623  71.9348221   1.4297608  45.9463577  71.9661636
   1.8372270  47.3800812  71.7027206  21.1707211  22.3180161   2.8824544
  21.9621563  21.9486847   3.2741909  20.8357925  21.6217442   2.3174250
  70.7205124  33.4018211  23.2521858  70.7486267  34.2210236  22.7578716
  70.1499329  33.5910263  23.9970875  15.7183466  52.0072479  25.4855423
  15.2639914  51.5839272  24.7571239  16.4740715  52.4334297  25.0812149
  21.5495815  67.9676285  80.4888077  21.5476570  68.2350693  79.5697327
  20.7838745  68.4008789  80.8659286  65.0541229  27.7272377  46.6943398
  64.2947617  27.7713718  47.2754250  65.6857376  27.1846027  47.1664009
  25.4860897  11.7187109  28.1557560  24.8345394  12.3421173  27.8346939
  25.4214878  11.7744455  29.1091461  68.5822906  15.6551075  74.2745209
  67.7137527  15.9364405  73.9868927  68.4530945  14.7590094  74.5852432
  85.9165268  17.0024147  48.2878227  86.1481857  17.4157429  49.1195221
  86.7514496  16.8980713  47.8314705   1.7819712  34.9591217  19.1647739
   2.5294662  35.0572662  19.7545624   1.0875363  35.4787560  19.5697098
  59.3061066  21.0862312  80.4058685  58.9914017  20.9868889  79.5073547
  59.5747681  22.0030136  80.4655609  40.4087296   0.9266142  50.3569717
  39.6979103   0.2855500  50.3544579  40.9087639   0.7266945  51.1483192
   3.2482045  60.1157875  26.2758121   3.9305694  59.8129158  25.6767483
   3.4258993  61.0495338  26.3888378  22.3844967   1.3557069  55.5042305
  22.2134476   2.2676239  55.2688980  21.8690453   0.8462517  54.8789330
  80.2236481  41.2798920  12.6137533  79.8484344  40.7571411  13.3223991
  79.8521271  42.1532860  12.7377996  45.7642975   5.9230642  32.3122559
  46.1465263   5.5527329  31.5166512  44.9700356   5.4091330  32.4580498
  76.4896011  48.8450089  10.8613710  76.3492508  48.7901268  11.8066339
  75.7327805  49.3315773  10.5347137  59.0031509  28.3674221  24.2121429
  59.6378098  27.7827625  24.6264038  58.6948891  28.9289131  24.9234333
  31.0896702  28.7051067  77.2360306  30.1831512  28.9480190  77.0477448
  31.5574760  29.5391788  77.2774124   0.5405888  32.4049568  50.8000145
   1.2554183  32.4341316  50.1640930   0.2566265  33.3152809  50.8831024
  58.6563911  13.9760532  49.8613930  59.4616737  14.3800220  50.1847572
  58.5184860  14.3721628  49.0009804   9.1171331  58.9199753  31.3589916
   8.5850353  58.9191170  30.5633125   9.3988209  58.0107269  31.4597282
  10.6067753  69.9521637  69.3274689  11.4625168  69.8202591  69.7355652
  10.5113602  69.2129974  68.7268372  43.9897804  43.5853539  87.9831085
  43.0738716  43.7076683  88.2328644  44.0428886  43.9293633  87.0914383
  43.0298119  48.8248863  20.5697994  42.4443817  48.2161713  21.0203209
  43.7686539  48.2842102  20.2904797  48.9348373  35.2475815  24.4530964
  49.4678535  34.4527855  24.4735527  48.4047241  35.2010002  25.2487373
  77.8488693   0.6646723  15.1046801  78.6552582   0.1492994  15.1237917
  77.4184723   0.4669354  15.9364786  51.5708427  62.7149429  33.7949257
  51.3909874  63.5392303  33.3427849  51.7718735  62.9739571  34.6942177
  77.2024841  47.3810310  22.4995327  78.0725403  47.3039970  22.1079903
  77.3156433  48.0090904  23.2129517  23.4762630  65.0464325  53.1709785
  23.2106552  64.5168381  52.4191742  23.0520477  65.8927689  53.0296097
  63.0396500   0.8588908   7.8702459  63.1362419   0.2926595   8.6359377
  63.7058640   0.5483141   7.2571130  46.9372826  18.6581192  68.4494705
  47.2732048  19.5544376  68.4480286  45.9903297  18.7570782  68.3508835
  58.4621964   9.9497662  17.6875362  58.9539185   9.9422655  16.8663273
  57.5919380   9.6307669  17.4485321  52.9373779  32.4692535  16.2646790
  53.5620689  33.1218071  15.9481840  52.7402153  31.9338913  15.4960804
  11.7649717  48.4042358  15.0878067  11.1537905  48.7364349  14.4302864
  11.6426888  47.4550362  15.0705805  24.1102676  33.6863251  74.1368332
  23.6834049  33.6224289  73.2824707  23.9918823  32.8212204  74.5290146
  59.8913345  63.9271431   8.5414982  59.6627693  64.8346100   8.7427254
  60.7604027  63.9815407   8.1440115  20.8052578   0.8545268  31.4031792
  20.6917191   1.6024700  31.9896278  21.2145195   0.1826231  31.9484158
  21.8829441  50.9235573   9.9474039  22.3283005  50.4182281  10.6275043
  21.3170891  51.5268707  10.4291220  74.8331223  23.4457550  -0.0183157
  74.8950577  23.8946571   0.8248230  74.1937256  23.9562855  -0.5150730
  27.6772785  56.0467529  56.7690086  27.2083988  56.8762970  56.6782455
  27.9407196  55.8216591  55.8767281  75.5531921  23.0421200  43.4264145
  74.8089676  22.5666103  43.7955513  76.1275711  22.3581161  43.0822487
   1.6960638  50.6626358   1.2353086   1.1661782  49.9645348   1.6201587
   2.5958290  50.4395943   1.4738592   6.9956737  50.0542145   7.3293991
   6.6676908  50.8109131   6.8435292   7.9342060  50.0377121   7.1420035
  13.1273155  22.7831688   8.4075079  13.2174940  23.0144958   9.3319464
  12.3422422  23.2489605   8.1195335  76.9357300  16.2811279  80.4556961
  76.6105652  16.6160583  81.2913513  76.4728012  15.4522886  80.3334122
  31.6316261  68.5663300  30.5113449  32.5885925  68.5868835  30.5164089
  31.3745251  69.2231064  31.1584759   6.1524434   1.6600201  41.0145149
   6.4088387   1.6558405  41.9367256   6.4413772   0.8103101  40.6817360
  49.5348854  14.3649759  37.3828430  48.8638535  13.7179213  37.6002579
  50.3546753  13.8708572  37.3880005  67.9496841  13.0427084  69.2449875
  67.9760895  13.6090126  70.0162354  68.5315933  13.4682951  68.6153107
  44.9328651  68.1509552  59.2600403  45.5096779  67.5991058  59.7882233
  45.1207695  69.0427780  59.5525627  84.9144135  48.9812050  82.1399002
  85.3431702  49.8330116  82.2225189  84.4380493  49.0322189  81.3112183
  35.2093086  25.0412922   1.0316966  36.0012169  24.9144630   0.5091757
  35.5119972  25.4927197   1.8196213  52.6847420  16.4152966  35.7051926
  51.7827911  16.6860714  35.5337448  53.0363579  17.1000690  36.2741241
  59.4604263  48.0319595  56.7642403  59.1084328  48.3851433  55.9471741
  60.3925323  47.9040871  56.5880013  54.6763611  13.5545292  45.4105721
  54.0890465  14.3077269  45.4737015  54.8818703  13.3342438  46.3191261
   3.8122849  11.3226061  75.7879562   4.7072248  11.5695381  75.5548553
   3.8994942  10.4589911  76.1914368  29.5895176  56.7160416  23.6576824
  29.8369083  55.7977486  23.7661610  28.6577435  56.6889877  23.4402008
  55.6290169  23.4772224  23.0389843  56.1161995  22.6866589  22.8068428
  55.7295876  24.0520039  22.2802048  25.0788498  48.7394753  51.5740280
  24.3436279  48.3517952  51.0992775  24.6693974  49.2907486  52.2408676
  65.4458237  18.4284992  53.6305504  65.2086792  18.7503128  54.5002823
  66.2049942  17.8655739  53.7822418  41.9908104  43.7977943   4.1336384
  41.7953186  44.6993103   3.8781211  42.3904686  43.8756866   4.9999170
  45.3586884   4.0528998  74.8929138  46.2789574   4.2582998  75.0576782
  45.2174797   3.2153530  75.3342819  49.9559746  45.3657722  72.7105179
  50.4622231  44.8905869  73.3694077  49.3661232  45.9233437  73.2178879
  75.2979431  70.4665909   8.1091833  74.8928223  70.9659653   7.4001446
  75.0582581  69.5575256   7.9292283  73.3012161  44.7610893  51.5646782
  72.7609024  45.5172615  51.3355484  73.2839813  44.7354889  52.5213814
  57.6598740  31.9393768  72.1193466  57.9185257  31.0392647  71.9215469
  58.4817505  32.4300385  72.1203156   1.9400867  69.7783890  13.7422752
   2.4648144  70.4993744  14.0902233   2.2855959  68.9989548  14.1774082
  28.9616508  52.9377785   2.1764812  29.5095196  53.5874557   2.6169248
  28.6971283  52.3361626   2.8724120  28.8574867  10.2054796  10.5053539
  29.4369278  10.0042448  11.2401905  29.1172085   9.5898285   9.8199711
  34.7033539  34.9115829  71.2521744  34.4021988  34.2466774  70.6329498
  34.0069618  35.5682831  71.2559509  84.5339355  42.5045700  38.2144547
  85.3159027  42.2946892  38.7250557  84.7852554  42.3277969  37.3079109
  37.1342239  47.3367729  62.7304420  37.6651230  46.8495598  62.1003609
  36.9498863  48.1691856  62.2953110  22.9992943  68.7294693  45.4685822
  23.6033840  69.2433777  44.9326706  22.4675903  68.2476807  44.8350182
  49.2409668  12.6412926  28.5347176  48.4214020  12.5409203  28.0505009
  49.0596199  13.3321838  29.1719112  34.5640259  49.4457626  71.6866226
  33.9500771  49.3649788  72.4165344  34.5349655  48.5925751  71.2536545
  41.6173477   6.5535879  80.2446442  41.9745026   5.7969437  80.7095795
  42.0527916   6.5384226  79.3923569  78.4045410  23.7107449  88.3078613
  78.0781326  22.8947906  87.9285049  78.0840912  23.7005939  89.2097626
  17.8514175  25.5749187   4.4527321  18.3152599  26.3767014   4.2114305
  18.1765919  24.9161816   3.8390880   8.7462301  47.8622932  15.5400972
   9.0552406  46.9584427  15.4784269   8.7158794  48.0414429  16.4798927
  63.7038345  60.7835274  38.6991844  62.9766197  60.6589432  38.0893707
  63.2911072  61.1004639  39.5025749  36.5488968  47.4441299  58.2470093
  35.7340546  47.5997581  57.7694664  37.0901794  46.9402390  57.6392746
  66.9213104   9.0933685  25.5948524  67.2332993   9.9967690  25.5422974
  67.3885651   8.6374989  24.8947926  84.0991364  22.3324356  52.9182892
  84.2596893  21.5015926  52.4709015  83.4088669  22.1342258  53.5511131
   1.8640668  18.5509796  51.7962952   1.1568472  18.0370979  51.4064293
   2.2314181  19.0467377  51.0645103  61.2418060  41.6346321  84.4779053
  61.3412170  41.3148232  83.5812073  60.3329430  41.9308929  84.5271606
  75.1202087  37.0119057  64.9346161  74.9021759  37.0484772  64.0032959
  74.6972504  36.2126122  65.2484207  25.9475746  57.1100464  41.9696312
  25.9379787  57.7791023  42.6541061  26.8544025  57.0934143  41.6636581
  47.7446976  63.3238258  30.0677948  47.9377785  64.2266464  30.3205147
  48.2062263  63.2034912  29.2378883  40.7868118  34.8630562  85.0169754
  40.0156898  34.7535057  85.5733948  40.6514473  35.7055283  84.5832214
  81.8614655  41.9741974  88.6857452  82.6496124  41.4496880  88.8269577
  82.1180878  42.8630409  88.9313660  58.0981102  -0.2036130  50.3279343
  57.9818954   0.4947898  50.9721069  58.8724403   0.0569834  49.8291969
  62.9481812  -0.1403694  10.5028257  62.6089325   0.7541140  10.4705772
  62.4133759  -0.5755731  11.1667633  77.0412903  31.2459545  31.0606728
  76.7495346  31.9535236  30.4858170  77.9311295  31.0503616  30.7671223
  14.0936184  67.9179688  50.1854401  13.2529078  67.5097275  50.3922615
  14.1097898  67.9618988  49.2293854  22.1393528   3.7476211  10.3809013
  22.8199043   3.8862960  11.0395746  21.3206959   3.9395688  10.8382730
  82.4886703  32.7791748  87.8749771  81.7900009  32.1480179  87.7025299
  82.6021957  33.2433548  87.0455856  79.4097366  13.1326885  14.3786516
  79.0766830  13.6720238  13.6614189  79.9183807  12.4467115  13.9462729
  40.4674225  63.6277962  82.9638062  41.0117226  63.9021683  82.2257767
  40.5685730  64.3274612  83.6091537  16.8477478  57.1650505   5.8118563
  16.7662144  57.6706200   6.6205482  16.1963730  56.4689560   5.8978648
   2.3915217   8.2567186  71.2359161   1.9041470   8.7082672  70.5468597
   2.3761618   7.3356385  70.9758987  73.7779388  71.6208801   1.2438953
  74.3791656  70.9180832   0.9972343  73.1267853  71.6362228   0.5424719
   5.3643627  11.3643637  10.8362894   6.2834840  11.4029169  11.1007919
   5.2169852  12.1828337  10.3623505   0.0324172  33.8602142   0.6756073
   0.9638703  33.7126007   0.5117874  -0.2019246  34.5820198   0.0922453
  13.3858194  46.0285568   3.5546858  14.2021561  46.5261078   3.5070558
  12.7498922  46.6457825   3.9164348  70.3842697  64.6427917  18.5109940
  70.1990280  63.7173080  18.6703663  70.1418762  65.0796280  19.3274765
  38.6831589  59.8719482   6.8544812  39.0862274  59.0109062   6.9657321
  39.3908272  60.4921494   7.0299420  11.0078688  48.4426918  69.9090881
  11.9150085  48.7249870  70.0258713  10.7488298  48.8121910  69.0649338
  55.3230133   1.4733053   0.7603767  55.6996193   2.1583526   1.3127463
  55.5450668   1.7366678  -0.1326882   0.1129859  31.8560410  53.5304489
   0.5781459  32.6220703  53.8666916   0.2693943  31.8761959  52.5863266
  73.7009048  33.6109314  37.9905624  73.1456146  32.9153099  37.6384239
  74.5908585  33.3500633  37.7535744  75.0935364   1.1800386  68.5039062
  74.3117142   1.4587770  68.0271530  74.9741669   1.5316944  69.3861313
  64.0894928   8.9804287  73.0283890  63.3621941   8.8654079  73.6399841
  64.0630112   9.9087706  72.7966309  76.7274017  43.9080048  42.1831741
  76.1278076  43.1701050  42.2937279  77.3704834  43.8011589  42.8840752
  68.8770905  48.4503632  48.8275337  69.7503662  48.8052063  48.9939575
  68.2794571  49.1094513  49.1806259  85.3336716  38.8049507  33.7220345
  84.8976135  37.9532700  33.6950645  86.2677002  38.5965347  33.7024918
  55.8103676  17.8046513  76.5639877  55.9922028  17.2038689  77.2866440
  56.2527046  17.4137669  75.8104782  71.8274078  52.2761879  86.4159241
  71.6624680  51.8832817  85.5588074  72.6487808  52.7551994  86.3057556
  26.2384949  48.9574356  26.1392574  26.3003635  48.3057594  26.8376293
  26.5779724  49.7618599  26.5315437  68.1893158  24.9857883  34.8226166
  67.9640808  25.3671284  33.9740410  68.6596375  25.6822033  35.2809105
  32.2405205  24.7734756  79.6193390  32.7404938  25.3277378  79.0201340
  32.0680809  25.3335838  80.3761597  37.4203949  22.9780178  21.6547623
  36.7174377  23.3797264  22.1653576  37.3348427  23.3650436  20.7834835
  38.7551308  55.7505646  25.5518246  38.5394096  56.2338371  26.3494091
  37.9337158  55.3305244  25.2967243  59.3969078  68.5895691   2.9742954
  59.8525009  69.4259491   2.8787324  59.3800087  68.4325256   3.9183745
  73.1694336   0.1069249  74.8989334  72.5894699  -0.5522864  74.5177307
  72.5777130   0.7736173  75.2476807  13.4274988  61.9685364  64.6247635
  13.1133308  61.9618378  63.7206154  12.7311182  62.4031677  65.1170883
  35.7848701  44.8958511  29.7281609  36.6132011  44.4647255  29.9384747
  35.2505150  44.2076263  29.3318710  14.1858521  33.7534447  17.9813786
  13.7709904  33.9046707  17.1321125  13.5234756  33.2878685  18.4919930
  18.6104889  66.8303757   2.4426737  18.3961506  66.7736893   1.5115035
  19.4445419  67.2993393   2.4683492  60.8335724  24.3535480  76.2398224
  60.4883499  24.3660183  77.1325150  60.4653320  23.5598373  75.8516846
  39.2688942  15.9100780  72.1881332  38.7575531  15.2046995  72.5846252
  39.3274918  16.5771027  72.8721466  78.8337708  57.9428444   2.4828627
  79.4234161  57.2267227   2.7189279  78.3047180  58.0860634   3.2676075
  30.7651501  34.3492241  18.5448627  30.1441402  35.0077286  18.2334957
  31.5561790  34.5027657  18.0282116  77.1690445  41.8601151  54.3535500
  77.7178650  42.2662201  55.0244484  77.0722351  42.5354996  53.6822014
  46.0822220  44.2407913  51.7269249  46.5476761  44.3883057  52.5502243
  45.3955383  43.6121101  51.9493256  71.5891571  34.3144722  35.9392433
  71.6290436  33.3811455  36.1479073  72.3664856  34.6864815  36.3558922
  77.1588211  23.7651043  48.0125847  77.5695496  23.4044914  48.7983932
  76.9893417  23.0025043  47.4594574  75.4410934  70.6048431  66.9164429
  75.3519516  71.4649200  67.3269882  74.7679214  70.5932846  66.2360458
  10.0881710  51.1158447  28.5267353   9.6846085  50.9902725  29.3855705
   9.6329107  50.4973106  27.9554310  45.0260773  56.4239311  59.4579010
  45.9683380  56.3408394  59.6044273  44.7898293  57.2495613  59.8806953
  10.7467899   5.1801376  55.3582344   9.8018961   5.3112879  55.4370155
  10.8467112   4.6098285  54.5960045  23.7175121  55.2001114  62.6286316
  22.8053093  55.3768578  62.3986740  23.6917419  54.3558159  63.0788879
  78.4056396  21.5097809  46.9298897  78.6878891  21.2410698  47.8041649
  79.1823196  21.9113350  46.5403366  75.0113525  68.1298676  76.5195923
  75.2914429  68.4892502  77.3613968  75.4070740  67.2588959  76.4874191
  74.4046326  36.2449341  28.8748531  73.5953979  36.0756798  29.3572731
  74.4754257  35.5133324  28.2616844  29.7352448  55.6358604  81.1201782
  28.7950954  55.7566147  80.9868774  30.0061741  56.4031258  81.6242905
  14.5941153   9.3618298  65.3665771  13.9476013   9.3620138  64.6607056
  14.9355574   8.4676771  65.3784027  38.1616249  52.5076180  25.0791721
  38.3678894  51.5972786  24.8671131  38.8564072  52.7769279  25.6799889
  86.4388046  15.8950968  82.1308365  85.9699554  16.5164032  81.5737076
  86.9477386  15.3622694  81.5198441  20.8894482  14.4145269   6.1180973
  20.0929260  13.9230146   5.9175963  21.3769493  13.8472786   6.7154279
  17.2858200  29.9808941  87.2616653  17.8038235  29.2928905  86.8438644
  16.9138546  30.4769192  86.5323944  72.1122589  46.2036400   8.6229191
  71.5922775  45.4157486   8.4645624  73.0141830  45.8880615   8.6792669
  61.6903610  21.8651676  15.5236435  61.5275459  21.7765064  14.5845690
  61.1555405  22.6130352  15.7898979  49.1384697  13.6473846   8.0434685
  48.5785484  13.5251493   8.8101368  49.1610641  14.5952520   7.9120617
  78.3450623  48.5045013  52.6277199  77.8054581  49.2879982  52.5219116
  79.0880966  48.6443481  52.0407104  30.5039768  60.0180054   0.4208025
  31.2875347  59.4773293   0.3211186  30.6263828  60.4650154   1.2583165
  22.8760929  47.6389389  76.5110397  23.4822311  47.1751099  75.9333801
  22.0074444  47.4080353  76.1818466  37.9212303  31.2045116   0.9051203
  38.2664948  30.6968498   0.1707477  38.5280342  31.9393654   0.9945996
   9.2068081  23.8607330   1.4541955   8.5944862  23.6728630   2.1655312
   8.7952032  23.4818172   0.6775126  20.1415024   0.4650965  35.9500542
  19.6554642   1.1005859  35.4245529  19.4985123  -0.2111931  36.1631889
  45.6310616   9.3561563  83.5104752  45.2222939   8.4906521  83.5038681
  46.5695915   9.1773396  83.5689087  71.0526047  18.8504429  22.6852417
  71.8700485  18.5637760  23.0924797  70.4286804  18.1519890  22.8830109
  54.2091064  67.2847519  76.5990982  54.7092285  67.2951508  75.7830124
  54.8182831  66.9341507  77.2488785  22.5582275   2.0185900  14.9546051
  23.4670277   1.8348699  14.7167797  22.0823269   1.9866580  14.1247072
  24.4050598  69.4410553  36.9387703  24.5132046  68.5447235  37.2567558
  24.8058987  69.9855652  37.6163177  10.0804529  65.3125610  81.5949631
   9.2583456  65.3462524  81.1058426  10.1058588  66.1386261  82.0778809
  17.1624374  55.6583557  43.5617943  17.4918442  55.1441727  44.2989082
  16.3919296  56.1079903  43.9087486  66.4168396  26.8295174  79.7567902
  66.7129822  26.8707333  78.8474884  66.1904068  27.7333126  79.9761429
  39.2242775  57.8931046  83.8043900  39.7086105  57.0801544  83.6602859
  38.3344002  57.6968880  83.5113907  78.1671524  44.7770309   5.3884792
  78.5326691  45.1428146   6.1939802  77.6676407  45.4971199   5.0035267
  25.2901630  60.4081917  68.2062988  24.7590256  59.6520653  67.9565125
  26.1886177  60.0780945  68.2129211  59.7965050  36.0664597  73.3839111
  59.3122368  36.6104889  72.7628326  60.3400383  36.6854401  73.8714294
  47.1686935  53.5346527  73.7194519  47.8755531  53.3003502  73.1180496
  47.2593155  54.4800415  73.8388672  72.9175568   9.3251390  21.2510223
  73.2879028   9.7027245  22.0488358  72.4013596  10.0342360  20.8676815
  42.6777115  60.5473328  81.3453369  41.9873466  60.1476822  80.8162766
  42.2197495  60.9053574  82.1058121  25.0934753  19.4314022  38.4572906
  24.4614143  19.0186920  37.8687325  25.5282478  18.6987476  38.8936653
  33.6530151  53.3145599  78.7201462  34.4349556  52.7635307  78.7544174
  33.0366669  52.8222656  78.1779327  10.9634237  39.6803589  38.6665077
  10.5836859  38.8050385  38.5900650  11.6260099  39.5949631  39.3520164
  12.1871786  15.8106098  22.2726192  12.4824553  16.5028782  21.6811733
  11.9688272  16.2668610  23.0852623  80.5619659  41.7307816  73.9806671
  81.1616135  42.2104988  74.5520859  80.4113235  40.9012680  74.4339371
  74.6800232  10.5968552  23.1688938  75.2259216  10.0642595  23.7473106
  75.2367783  11.3376694  22.9292068  46.4274330   1.3142662  57.3713722
  45.6097488   1.6560166  57.7330780  47.0595703   1.4006760  58.0849342
  71.2362823  69.3109283  14.2713375  72.0040588  69.0280685  14.7680721
  71.5328751  70.0844803  13.7918749  60.6399574  58.1094894  81.2633896
  60.8222618  58.9330673  80.8109360  59.9305611  58.3214455  81.8700714
   2.2501593  51.6585693  36.3566017   1.6625493  51.9338188  37.0602951
   2.2218571  52.3779488  35.7257881  49.4594154   8.1672316  50.0133400
  49.8190727   7.3741326  49.6160049  50.2193756   8.6142120  50.3860359
  15.3344984  16.1247520  27.1947556  14.5760374  16.4575329  27.6745739
  15.7379684  16.9046936  26.8137894  24.8641148   7.5175562  29.2103481
  23.9559002   7.3069587  29.4272099  25.2009048   7.9575109  29.9908886
  57.5696335  60.5814362  88.8746643  57.4814911  59.6436386  89.0449677
  58.3039780  60.8565598  89.4235535  28.3485336   7.9002199   4.7071590
  27.9796848   8.5206671   4.0784874  27.6591892   7.7833004   5.3608904
  70.5368652  39.7390518  84.8427963  71.4656525  39.7118797  85.0726776
  70.1940002  40.4946365  85.3200531  28.7249718  15.5560274  22.0992527
  27.8054123  15.5201597  21.8358955  28.7821388  14.9657068  22.8505745
  10.8160200  54.2815323  73.5973358  10.1966915  55.0037117  73.4918823
  10.4390993  53.7423592  74.2926483  62.3879204  29.9543629  59.1220856
  61.5348740  29.5335178  59.0151596  62.6734352  29.6976204  59.9988976
  54.2060242   3.2076826  15.1226788  54.3624077   4.0503855  14.6964998
  53.8010101   2.6675994  14.4440737   6.7811451  13.0959148  68.5949097
   7.4066339  13.8159037  68.6762238   6.0872860  13.4435596  68.0346146
   0.4761194   5.8063235  22.2983475  -0.0143825   6.2142181  23.0119724
   0.6612288   4.9206138  22.6105728  17.6561546  63.3877754  32.4572945
  18.5417137  63.3435059  32.8179283  17.5854969  62.6127815  31.8999557
  19.5662613  18.9142609  26.6435966  19.9268856  19.0994549  27.5107098
  19.3442669  17.9835415  26.6703053  37.3463173  59.2888603  53.6045647
  38.2504196  59.1897469  53.3062248  37.1694641  60.2262650  53.5256538
  50.7317352   7.0223970  40.4308662  50.1835136   7.6756830  40.8654938
  51.2068901   7.5152707  39.7618866  14.0646648  32.2578392  86.9470673
  14.5667114  31.6746998  87.5163879  13.4990292  31.6724014  86.4435272
  53.8269234   9.4366789  58.9981842  53.1710167   8.7417984  59.0543900
  53.6269379  10.0149174  59.7343063  49.2853584  49.1612625   5.3137650
  49.2879753  48.5051270   4.6168323  48.9574356  48.6935349   6.0818343
  62.6920471  19.0937119  72.3047409  63.1686630  18.2819424  72.4782257
  62.4698982  19.4311600  73.1725006  10.0100393  34.5873871  32.3414536
  10.5526228  34.2787170  31.6158085   9.6258802  33.7913208  32.7087784
  48.5852280  60.3802071  25.8054028  47.7851524  60.5584106  26.2997227
  48.3224030  59.7353058  25.1487026  13.4280920  50.1223526  48.0833244
  12.6328583  50.5885849  48.3411331  13.6607456  49.6021729  48.8524246
  64.9188995  67.3657455  11.6790676  65.0194321  68.1009369  11.0743990
  64.0552444  67.0058594  11.4770622  59.6566734  34.9721222   0.7291898
  59.5718918  35.3049965  -0.1642520  60.5898972  34.7828827   0.8267317
  84.7884216  54.7843971  39.1802330  84.4166565  55.5142059  39.6756058
  84.3154755  54.0146484  39.4965210  66.4994202  67.9861603  55.8517342
  67.2693176  68.4723892  55.5566521  65.7627563  68.4195709  55.4208069
  69.8577881  38.1619568  17.3437786  69.2985458  38.2804832  16.5760345
  69.8237305  39.0042458  17.7972355  37.8827019  67.1890182  15.2473030
  38.3410645  66.4616928  14.8264275  38.4362373  67.4216995  15.9927473
  28.5870323  52.4950943  55.2066765  28.9070091  51.5938377  55.2464180
  28.0341358  52.5187378  54.4256630  43.2313271  23.0527153  13.7145119
  42.4146118  23.2721386  14.1629066  43.9134026  23.4678040  14.2424412
  59.4293747  20.8302937  59.3983879  58.4813461  20.9536686  59.4458160
  59.7659302  21.2548218  60.1875267  35.1190987  16.0727158  74.6411667
  34.4158783  16.1098194  75.2895050  35.4576530  15.1797304  74.7058792
  26.1807919  23.7710190  75.6061478  26.9138889  23.1717377  75.4659195
  25.9106598  24.0293255  74.7249298  45.0792770  30.5183411  28.7223225
  44.9160843  30.8848038  29.5914059  46.0331726  30.4740524  28.6563225
  43.4381294  59.9799118  25.7255669  42.6935501  60.5490990  25.5309944
  43.7060966  59.6363220  24.8732929  68.4115448  23.0567570  13.6661205
  68.9110870  22.5529881  14.3086977  67.7824936  23.5543976  14.1885042
  61.2243690  19.1426582  61.3992920  62.1479111  19.1030922  61.6477661
  61.0059013  20.0738335  61.4369087  73.6095200  56.9800606  76.5648575
  74.4614029  57.0264816  76.1308441  73.2982407  57.8851242  76.5789108
  61.9628601  41.3173866  21.5408134  62.0603905  40.6800308  22.2482700
  62.7598267  41.2204857  21.0195789  56.5933189  54.6181564   1.1395967
  57.3400497  54.4913063   0.5543289  56.2487335  53.7366753   1.2827170
  56.8239136  27.1344528  10.2673941  57.2330170  26.7852077   9.4756289
  57.1556244  26.5794067  10.9731731  53.8359489   3.3975353  28.7753143
  53.9340973   2.9512165  29.6163826  53.3245430   4.1808491  28.9780807
  66.2613602   7.9385824  57.2464828  66.4757919   8.8714476  57.2431145
  67.1108246   7.4975200  57.2365532  22.7841816  62.4210320  10.5530090
  22.8836746  63.2286072  10.0488739  22.2983265  61.8348465   9.9728689
  22.7684345  66.2799301   2.7932534  22.4811382  67.1927948   2.8124647
  23.0126076  66.1248398   1.8808079  10.2465868  21.4240665  27.5871487
   9.8856039  21.1875057  28.4415264  11.1276407  21.7447510  27.7798576
  72.2658234  40.5425148  33.0063744  71.9190445  41.2416687  32.4521561
  72.1993332  39.7543259  32.4673271  39.1790047  46.5770569  30.5076675
  38.9330978  45.9824028  31.2162914  39.9162827  46.1444550  30.0769596
  15.5753651  50.7570038  50.9173355  15.6113300  51.3873215  50.1978645
  14.9888468  51.1585236  51.5584335  66.3938904  52.5716133  10.9049997
  65.8483353  51.8035393  10.7357063  65.7722015  53.2959175  10.9765253
  70.8501358  68.9922409  28.7310295  71.5470505  68.3921814  28.4655533
  70.1373367  68.4204102  29.0159092  29.2349148  29.8990345   4.6400409
  28.3905125  29.8233452   5.0844359  29.8820686  29.7334709   5.3256164
   0.0688892  35.6400719  35.6006012  -0.6194696  36.0118370  35.0490723
   0.8534861  36.1390915  35.3734055  25.2021980  54.9664345  19.7533264
  25.8358955  55.6802940  19.8245068  25.6940746  54.1838379  20.0019836
  58.5920105  13.2311230  38.5148773  58.7739868  13.4039869  39.4385834
  57.8439407  12.6340446  38.5257912  71.7048874  47.3371315  45.5430222
  71.7657928  46.5152206  45.0562172  71.9199066  47.0980186  46.4445915
  83.2317505  34.5729408  60.3557396  83.3700180  35.5193291  60.3940048
  83.6990204  34.2942696  59.5681877  50.6021805  67.1774521  50.1729012
  51.5255775  67.4103699  50.2694168  50.3886147  66.7061310  50.9781837
  26.5949192  16.0951366  12.4171028  26.7794437  16.9919739  12.6961508
  26.8124332  16.0847721  11.4850016  69.7513351  33.2973442  68.7528763
  68.8744659  33.0917473  68.4287415  69.8699112  32.7189293  69.5062714
  10.8977222  63.1532478  71.2313843  11.8248987  62.9247704  71.2975159
  10.4954491  62.7463531  71.9987411  35.6637688  32.9776230  63.5836220
  36.5441513  33.0259666  63.9562035  35.4971008  33.8583603  63.2478294
  79.5503235   7.5369658  18.7797298  78.6063232   7.5256586  18.6217251
  79.9282227   7.1257100  18.0023670  44.1114655  67.8992081  82.5036087
  44.3264389  68.6337509  81.9287567  43.1675110  67.9732056  82.6439743
  59.8385391  12.9984322  75.2973862  60.4440804  13.7296553  75.4193039
  59.1642723  13.3410931  74.7107162  25.9140873  68.2510300  10.2521544
  26.0044537  67.3411102  10.5352068  26.2032375  68.7660217  11.0054150
  14.4779396  51.1404343  85.1070404  13.6251221  51.0171776  85.5238647
  14.2706347  51.4282188  84.2179718  15.3047638   8.6270971  17.3014946
  16.2466755   8.5898018  17.4677601  14.9188910   8.8289557  18.1538944
  67.0349045  15.2382317  67.4049301  66.2685471  15.7831516  67.2260742
  67.4837189  15.1720505  66.5620651  14.7050629  64.4577866   4.1376047
  14.8005257  65.4038239   4.0274477  14.2425880  64.3590240   4.9698272
  57.5690804  13.7386665  52.3515167  58.4546394  13.9130821  52.6702576
  57.6905937  13.4731283  51.4399490   1.6280919  53.3441238   6.1887841
   2.1835508  53.5892487   6.9287910   1.5543879  54.1446037   5.6691403
  82.3413620  13.9232635  53.6673622  82.1021805  13.4713354  54.4765511
  81.7030411  13.6158915  53.0237007  33.0081062  15.1994572   0.9652583
  32.7286797  14.7388659   0.1740517  33.0639687  16.1176891   0.7007539
  63.4702034  26.3683586  56.5568275  63.5877151  27.2777100  56.2820473
  62.8834190  26.4200535  57.3113098  57.8513527  66.0740051  76.0940399
  57.2165337  65.7391281  75.4607162  58.1884613  66.8757095  75.6942139
   6.1295633  59.5264626  65.5053101   6.3309050  58.8436775  66.1452332
   6.3569064  60.3441429  65.9479675  15.1882849   8.1676321  62.0425606
  16.1066551   8.4358969  62.0132027  15.2123680   7.2654967  62.3616295
  65.8007965  55.8884163  41.5891800  65.4941483  56.4435692  40.8722382
  66.7500229  55.8489532  41.4723930  17.8176327  40.7642288  51.4938431
  17.4165649  41.6332054  51.5098419  18.7492371  40.9329720  51.3528709
  29.1345673  58.4209175  37.2860756  28.5018139  58.8044014  37.8933601
  29.9854374  58.7214851  37.6053123  67.1515427  32.3571396  83.5615692
  67.3587036  31.8376904  84.3384094  66.2241974  32.1848335  83.3985291
  47.0833359  25.7438679  67.9969254  46.1793365  25.4450912  67.8981857
  47.0650063  26.3121567  68.7669601  11.3311014  30.8336926  83.3705750
  11.3212471  29.9699936  82.9580765  10.6010313  31.3012447  82.9648285
  35.5549965  51.6306610  79.5247955  34.6401329  51.3532524  79.4767914
  35.7625122  51.6110573  80.4590302  52.4272461  61.0240936  22.9987888
  52.9447937  61.1748314  22.2078037  52.1776962  61.9003296  23.2923355
  79.9338455  18.1399269  73.1103592  80.5155563  18.7273102  73.5928726
  79.0718689  18.2818851  73.5016022  80.8120728  16.1136265   9.1627855
  81.0688400  15.2824354   9.5620632  80.6561966  15.8994455   8.2429695
  36.2140961  59.0431061  79.3723373  36.7347374  58.2826576  79.6309509
  36.4781914  59.7325783  79.9815292  61.9250984   6.3621788  58.0089951
  62.2318726   6.7387075  57.1841621  62.7230568   6.0737166  58.4520378
  76.3437271  67.1928635  52.6096802  75.6799088  67.1633911  51.9206886
  76.6623154  66.2925262  52.6739807  62.7620049  41.6815720  53.3036079
  63.1807175  40.9825249  53.8058510  63.4837189  42.1135712  52.8467331
  26.8598404  31.1491890  13.0839510  27.7779808  31.2503796  12.8329334
  26.3776836  31.2132759  12.2595425  17.9226208  25.7664833   6.9634767
  18.7869949  26.1754932   7.0058975  17.7450581  25.6783314   6.0270295
  32.5656929   8.4155750  17.4341640  32.8439865   7.5616369  17.1031437
  33.3804665   8.9039745  17.5518131  32.5163994  53.4776077  15.9746943
  32.4253235  52.9086075  15.2103834  33.0971985  54.1801071  15.6824589
  17.0295944  63.5990486  54.8467865  17.6852131  63.2835312  54.2248192
  17.4917431  64.2535248  55.3705330  82.0101776  43.9011383  39.1886902
  81.6081314  43.2792664  39.7952080  82.7431946  43.4206429  38.8039284
  44.7750664  14.1268654  85.9890366  44.4562874  13.3121767  86.3774796
  44.0887070  14.3831215  85.3730164  42.0184402  35.2889786  80.6992111
  41.4193535  34.5657349  80.5141449  41.5520515  35.8290443  81.3372040
  25.4760017  69.0273438   5.5780740  25.3818321  68.1028366   5.8075261
  26.2266445  69.0515747   4.9846258  64.2668152  59.2088928  61.3449707
  65.0722961  59.5509338  61.7328415  64.1489334  58.3518028  61.7545166
  53.8676758  -0.0566291   2.3719723  54.4280128   0.4132566   1.7543473
  53.2350540   0.5981610   2.6673841   5.7532139  51.8307152   5.7284331
   5.1109772  51.7965660   5.0194921   6.3966365  52.4770699   5.4377999
  86.4435043  15.5883503  15.9117374  87.1383896  15.4324884  15.2721462
  86.7704010  16.3095207  16.4495926  16.0481625  53.0868187   9.2103968
  15.1390858  52.7952843   9.2798252  16.0309772  53.9971428   9.5057659
  51.6058998  15.7632790  76.9181595  50.7607384  16.1946411  77.0440903
  52.0722656  15.9050570  77.7419510  51.6972656   1.4780167  85.8723907
  51.5560760   0.9360303  85.0961533  52.4764786   1.1061620  86.2856522
  20.9255924  51.6700516  86.6946487  20.5671120  50.7889252  86.8011322
  21.8740864  51.5423355  86.6779404  41.1969910  52.7352257   3.3915179
  42.0010490  52.4662170   3.8357611  40.6143875  53.0132408   4.0982819
  53.9813766  27.5759258  36.9927063  54.5497169  26.8966465  36.6296616
  53.1056900  27.3473473  36.6810074  15.3036413  63.9362602  24.2843533
  15.6229897  64.2531586  25.1292343  16.0762844  63.9405632  23.7193413
  66.5921478  50.9552498  71.5072479  66.3707352  50.0245934  71.5401382
  66.0889053  51.2951660  70.7673569  46.1188698  66.7688599  51.0123291
  46.2452774  66.0603638  51.6434288  45.1695824  66.8264694  50.9038696
   4.7556028  34.3539886   8.6974144   5.4277816  33.8445778   8.2447424
   4.1321583  33.7002068   9.0138340  70.7133636  64.0347443  66.6842499
  71.1027679  64.7783279  66.2241592  71.2782745  63.2941513  66.4637299
  35.9432487  35.5870819  14.9740448  36.0626259  35.3289452  14.0600719
  35.8538704  34.7596512  15.4469070  15.6784410  53.9842758  35.7650070
  15.3290739  53.1935196  35.3540649  16.1843510  54.4102821  35.0730515
  65.0606918  17.6035748  73.1550369  64.9955215  16.8936253  73.7937546
  65.8682709  18.0617218  73.3877335  18.4402924  48.7468300  32.3438873
  17.5598850  48.4276657  32.5419960  18.3953247  49.6892776  32.5051460
  61.8937225  61.0024757  21.2995720  61.4755630  61.6852188  21.8241959
  61.7382660  61.2679596  20.3931599  15.0950289  32.6780663  62.6856956
  15.2382097  33.4566078  63.2238426  14.8193760  33.0216904  61.8358917
  83.7417374  19.3791199  21.0740051  83.6183395  20.2790489  20.7721233
  82.9744949  19.2016926  21.6181469  68.3182373   3.6375515  58.5826111
  68.0055237   2.8720207  58.1005287  68.6139145   4.2438941  57.9035263
  25.4943542  51.4264870   3.6219404  25.4947586  52.3759727   3.7432244
  24.8351688  51.1066284   4.2378936  85.1299896   6.4968605  50.7179298
  85.2820435   7.2774191  51.2506943  85.3649063   5.7666121  51.2904510
  32.8624039  35.5051079  17.1758442  33.6653595  35.1174393  16.8276920
  32.7850227  36.3441200  16.7216377  51.5276871  -0.2028028   4.7556615
  51.4164963   0.6548665   5.1658716  50.9678001  -0.1716624   3.9799104
  76.8036423  30.9825287  64.9802856  77.1415176  30.4153576  64.2871857
  77.4529343  31.6818275  65.0553436  28.4441395  55.9101257  75.3108063
  28.6810417  55.2869034  74.6240005  27.7374287  56.4304771  74.9286652
  37.2368050  15.1830635  10.4745159  37.2987556  15.8635836  11.1448040
  37.7425423  15.5258913   9.7376785  27.1625805  20.9292088  21.6930676
  28.0021629  21.3585587  21.5287838  26.5500717  21.3667240  21.1017590
  31.1621342  64.9757233  25.1162472  31.4660988  64.4246979  24.3949909
  30.3477726  64.5640869  25.4053898  30.8400955  67.9461212  80.0711136
  30.9227657  68.6138306  80.7519760  31.3010998  67.1853256  80.4245148
   1.9314184  68.3524399  43.0186501   2.2333758  68.1943054  42.1241989
   1.5162989  69.2141800  42.9824753  60.6306534  37.2462463   8.6713076
  61.0037575  37.1136475   7.7998476  61.3296356  37.6703300   9.1691160
  68.9213867   9.0196152  64.9336624  68.6329880   9.8096313  65.3907547
  69.4771729   8.5657587  65.5671844  56.7282753   0.4760349  75.9862823
  56.9171944  -0.1619779  76.6743774  56.4510498  -0.0532471  75.2384567
  81.3849182  53.0675430  53.7135201  80.5052261  52.7203064  53.5658684
  81.3130417  53.5629463  54.5293922  19.1205025  36.5847511  78.7627640
  19.3550320  36.4958839  77.8390045  18.1914520  36.8149643  78.7529221
  59.4558792  59.7142410  73.9424286  60.3505516  59.3777390  73.8918152
  59.4809265  60.3552895  74.6528244  23.4461403  48.0056877  14.9035854
  23.1958351  47.4532700  15.6441383  22.6945362  48.5833664  14.7708855
  54.4251175  65.1705322  40.4190407  54.6594620  65.0295181  39.5017471
  53.4867210  65.3584061  40.4003601  52.2117691   4.3394909  17.7417183
  51.8074760   4.0975494  18.5749321  51.6280899   3.9736314  17.0771160
  27.5249176  19.8962250   5.8341846  26.7476063  20.3245678   6.1927094
  27.7055016  20.3688259   5.0216146  84.9516449  52.1165123  15.9840956
  85.2186890  52.4461479  16.8421516  84.0322800  51.8746796  16.0959415
  25.2983685  57.1171875  50.7113647  25.0300350  57.8797607  51.2239189
  24.6968632  57.1052933  49.9668655  56.4700546  43.4470215  32.2900352
  57.2042923  43.9978828  32.0186081  56.7046471  43.1516228  33.1697731
  30.3841515  61.6195831  83.7816925  30.5831509  60.9830208  84.4682846
  30.7338943  62.4466362  84.1131973  59.4071426  29.4161491  54.2530518
  58.5736923  29.5667534  53.8070564  59.4142532  28.4767342  54.4365807
   5.5615935   0.3048034   6.3795686   4.8424692   0.6681750   5.8627968
   5.5102773   0.7642852   7.2177062  30.5370464  60.6830101   3.3290792
  30.4976177  60.2155800   4.1634579  29.9181519  61.4061813   3.4301941
   4.2449784  44.0235863  77.4157333   3.6923575  43.5868607  76.7675705
   5.0350852  44.2656898  76.9326706  60.3785019   2.8422296  17.5431995
  60.0185509   2.6915638  18.4172516  59.6617432   2.6228530  16.9479160
  47.4586296  30.4329491  27.4956017  47.4458580  29.4817696  27.3891735
  46.8626976  30.7575150  26.8205090  28.5459061  48.2595329  85.5238953
  28.9461040  49.0753441  85.2230225  28.6612148  48.2723656  86.4740372
  70.1308975  27.3131161  47.2598076  70.5195084  28.1499577  47.5145874
  70.8125229  26.6666908  47.4435501  75.3543091  53.4010124  53.5603142
  75.0059738  53.1235542  52.7130127  75.5755615  52.5840950  54.0074425
  50.9935188  46.6659126  11.4157639  51.3253326  45.7840767  11.5845652
  51.6995163  47.2460899  11.7007084   4.7339826  33.3822441  86.4968796
   4.7913728  32.4530029  86.7192612   3.9685290  33.4449692  85.9255905
  53.0045662  15.5422173  64.9371796  52.3391571  15.3277187  65.5909805
  53.8372154  15.4058409  65.3892059  68.0750656  50.3124886  11.2745972
  68.2431488  51.2539406  11.2339411  68.7721786  49.9686356  11.8331985
  74.6519852  44.9893608   8.9258852  75.2865219  45.6332474   8.6112356
  75.1867523  44.2642937   9.2491999  79.3266449   1.5256711  43.5433350
  78.3944244   1.3167397  43.6028214  79.3953018   2.4152870  43.8898888
  27.1558914  45.3750343  59.8603897  26.7640781  45.0394669  59.0540962
  26.4102554  45.6614227  60.3878746  48.9999046  18.6138687   7.0721898
  49.7977371  19.1426983   7.0663900  48.4885254  18.9598732   7.8036308
  76.8241959   4.0890689  71.4971848  76.4674683   4.9426332  71.2514038
  76.8272934   4.0973806  72.4543457  73.2114487  67.6568451  33.4022598
  72.4512558  67.8233185  33.9596024  73.7300262  68.4594345  33.4584999
  78.4344025  34.4970665  62.3094788  78.2718124  35.3873787  62.6211472
  79.3126144  34.2884407  62.6279907  72.7271194  20.9245148  55.6227188
  73.1898880  20.3400536  55.0223160  73.2622528  20.9252033  56.4163589
  49.9553528   0.0761381  67.9367599  50.3218536   0.8932955  68.2746429
  49.2529373   0.3537551  67.3487396  55.1571312  48.5911827  28.1641693
  54.6463470  48.5354614  28.9717751  54.6746368  48.0515366  27.5378990
  47.4027481  59.7467270   8.3541765  47.4168167  60.6138763   7.9491019
  48.1847305  59.7273636   8.9058657  45.9612961  14.5677137  81.4883728
  45.5661888  13.7429991  81.7711563  46.3446121  14.9351444  82.2847977
  27.7429905  56.1472130  36.7696686  28.4227104  55.4880447  36.9100647
  28.1696224  56.9788780  36.9759369  72.0590591  31.9232330  15.5620689
  72.3903961  32.7496872  15.9133835  72.2345734  31.2825203  16.2512093
  42.0136604  42.8352776  57.4720612  41.3998795  42.2147293  57.8650360
  42.5923615  42.2929459  56.9361382  63.7186317  46.0905533  63.7361794
  63.6338692  46.1110458  64.6893997  63.2944298  45.2730293  63.4755249
  76.9834900  68.5392609   2.6523390  77.8583679  68.1977997   2.4673374
  76.6382828  67.9587097   3.3305967  49.7165642  51.3301926  60.4239426
  49.1998940  50.5910568  60.7448158  49.6361084  51.9939613  61.1089058
  24.5437717   0.5246239  41.9367485  25.4779320   0.3221358  41.9874992
  24.4183159   0.8551188  41.0472183  40.8399734  44.2812386  18.3459549
  40.7778397  44.5960846  19.2477551  41.5039520  44.8402061  17.9423256
  71.5914612   0.1104298  12.6951990  72.5417328   0.2057921  12.7594795
  71.2488937   0.9796658  12.9033051  61.2090378  38.3534698  48.5049553
  60.7402916  39.1545143  48.7391357  62.0889931  38.6500778  48.2727318
  85.6490173   0.8871858  27.1697636  86.4768982   1.3636180  27.2319355
  85.7972336   0.2381945  26.4819584  66.5707703  47.0248795  41.2193527
  67.3528061  47.5451775  41.0351257  66.0133057  47.1502228  40.4514008
  79.2234802  24.6229115  26.5053558  80.0085068  25.0528679  26.8446274
  78.4967804  25.1126957  26.8903904  25.1533566   9.3275375  15.0671473
  24.8309231   8.4305344  15.1546297  25.9443398   9.2468204  14.5341721
  60.6194458  16.5769730  48.4226646  61.2818794  16.3276024  47.7782822
  59.7926407  16.5432377  47.9415359   5.3130689  62.7459831  14.2472506
   4.3987637  62.9680977  14.0713463   5.6968341  62.6077461  13.3813133
  37.0181046  62.7766800  58.1128426  36.1151810  63.0497169  58.2753487
  36.9370728  61.9899292  57.5736885  33.5826759  48.1095810  17.6568375
  33.0325165  48.5790443  18.2838612  34.0752678  47.4859276  18.1903534
  61.8609886   7.8479400  11.4524841  62.3694344   8.1295452  12.2130203
  62.0638199   6.9170480  11.3601217  61.6946373  48.7533760   0.5255483
  60.8938789  48.2647972   0.7161074  61.5569916  49.6077538   0.9346048
  29.5951080  54.8386116  25.7117844  29.2233849  54.0435677  25.3297405
  30.5317612  54.7794724  25.5235920  70.6293945  66.3928070  48.3095894
  71.0574951  65.5602341  48.1101456  71.2913742  67.0556488  48.1129951
  67.4347305   2.7566092  46.3657417  67.4085083   3.7064273  46.4814568
  66.6492157   2.5555284  45.8570442  76.9101562  67.9124298   9.8061581
  76.6463699  68.7652588   9.4607191  76.0863571  67.4796066  10.0303383
  26.9749470   6.7977238  32.2419930  26.5966263   7.5675359  32.6668396
  27.7046146   6.5460720  32.8081093  43.1402626  11.1121674  77.8681870
  43.3837700  10.6157656  78.6495514  43.5523949  11.9675074  77.9897461
  59.9669456  14.1947680  56.3797340  59.1558914  13.6887064  56.4279442
  60.5217133  13.7011423  55.7757492   0.0477211   1.9740150   8.0156116
  -0.0860055   1.8061740   8.9484453   0.2768534   1.1199958   7.6490307
  10.7686644   9.1137629  35.5396309  11.2376881   8.9438171  36.3565559
  10.8061914   8.2835264  35.0647316  34.1157532   1.5108202  72.9462128
  33.4943390   2.0068417  73.4791718  34.8273087   1.2931240  73.5483170
   5.0468845  63.6119995  87.1095123   4.2206922  63.1287804  87.1212692
   5.6038194  63.1195488  86.5065689  58.0670471  64.3686523  81.0986633
  57.4364281  64.9942551  80.7420502  58.0251961  64.4999542  82.0458908
  78.0184555   1.9781270  26.4110298  77.0613174   1.9887427  26.4112968
  78.2478485   1.0686952  26.2198563  59.4850693  40.8405342  63.9095879
  59.0309296  41.4230003  63.3007164  60.3667107  40.7550697  63.5467720
  47.8949738  41.2118950  61.8446350  46.9823532  40.9615593  61.9884720
  48.4026070  40.5288734  62.2828369   6.0199280  39.7673531  23.4704304
   6.0904145  40.7170067  23.3733711   5.9518151  39.6275253  24.4149094
  55.3329353  65.0498886  35.6493034  54.4449081  65.2704315  35.9303703
  55.9007950  65.4977417  36.2763557  15.0815058   3.6878369  53.5869865
  14.2715607   3.2233040  53.7977715  14.9253502   4.5860176  53.8787346
  80.5994949  68.5710373  52.3313904  80.7077942  68.7472610  51.3968086
  79.7197723  68.8888397  52.5346832  10.6948833  43.7184410   0.4608834
  10.2961159  42.9458542   0.0604771  11.6259537  43.5042076   0.5195603
  71.6544266  70.4285812  72.9621048  70.9300003  69.8080673  72.8821259
  72.0550690  70.4423447  72.0928955  17.2590904  49.6626892  58.8394432
  17.6291885  50.0772858  59.6187820  16.5451374  50.2430916  58.5755539
   2.6907876  45.2347984  50.7993011   3.1917567  44.4535599  51.0336685
   1.8526663  45.1255951  51.2485886  71.0226898  32.3747635  56.3406601
  71.1510544  32.4654884  55.3964577  70.5220337  31.5647144  56.4375687
  25.1738033  41.7892570  26.9108505  24.3946056  42.1819839  27.3043575
  24.9934330  41.7895432  25.9707985  85.4925003  33.0523224  29.2897396
  86.1847687  32.6561317  28.7605610  84.7968750  33.2521973  28.6633263
   5.2848330   7.0874352  50.7766190   4.7551842   6.4752536  51.2874413
   5.0124702   6.9416089  49.8706474  14.3533249  57.7575493  60.1611443
  14.8298979  58.0296249  59.3768730  14.5089560  58.4605103  60.7919044
  79.9403458   0.3404083  72.7206726  80.4972687   0.7738049  72.0739594
  79.0721970   0.3257997  72.3177567  62.8652649  37.1985664  19.4827518
  62.8176003  36.3871574  18.9772072  62.7875481  37.8931580  18.8287392
  83.0547714  18.4844685  15.2872000  83.0079498  18.3328686  14.3432426
  82.4587936  19.2173386  15.4419365  48.8688469   3.7570763  84.5939102
  49.1882858   3.9749956  83.7182999  48.7680283   2.8052742  84.5820770
  40.9069290  41.4032593   0.3725442  40.0145111  41.1786766   0.6359524
  40.8320541  41.6362495  -0.5528423  26.4795876   3.8896635  11.0687943
  26.7218170   3.4206457  11.8672800  27.2264576   4.4612951  10.8908720
  12.0662098  58.8572350  50.2085419  11.4562397  58.1245308  50.2940636
  12.9250002  58.4445152  50.1170349  54.1198540  10.3818445  49.7496681
  53.9852486  10.2233953  48.8153229  54.6080742  11.2044086  49.7852135
  73.8534012   7.9173841  60.8294792  73.4724884   8.0259104  61.7008934
  74.4779358   7.1988392  60.9288750  56.2136116  32.7888565  21.5038261
  56.6111565  31.9752293  21.1936607  55.6842690  33.0930290  20.7665977
  56.6755981  49.4845085  52.0102463  56.2609711  48.6269836  51.9155273
  56.8229103  49.5766602  52.9515419  20.0317059  53.8694153  28.2546291
  19.5278339  53.4253540  27.5726089  19.5329170  54.6647415  28.4414463
  54.0284042  59.3866196  17.6959648  54.7654190  59.0255814  18.1886044
  54.4207306  60.0534286  17.1323338  43.4450912  11.3309631  46.1799660
  43.8431778  11.2720261  45.3114700  43.3554077  10.4214582  46.4645538
  53.3905716  61.1191216  67.5098419  52.8381271  61.6128311  66.9038010
  53.4622192  61.6815872  68.2810287  51.6663055  39.8268814  76.4431839
  51.8740540  40.3021889  75.6387177  50.7116508  39.8628807  76.5028992
  30.9577560  54.3678017  53.2154465  31.4474926  54.9416809  53.8045578
  31.1692619  53.4828072  53.5125694  49.6132889  24.8797016  20.8797302
  50.5518837  24.7381706  20.7562675  49.3709297  25.4955578  20.1882000
  22.3208065  70.2137756  22.8288136  22.1220512  70.7909012  23.5661430
  23.0268745  70.6586456  22.3599968  56.8753815   2.6065540  82.2725220
  57.2911491   2.6999547  81.4154129  56.0194283   3.0226009  82.1701355
  30.4306355  40.7380562  80.8983231  29.9970951  39.9811096  80.5042343
  31.0516987  41.0321388  80.2319717  69.3812027  17.3597565   5.9438744
  68.7625198  16.6880741   6.2307673  69.9305725  16.9183788   5.2961049
  67.1637421   8.7611399   9.6920090  67.7470703   9.5015459   9.8586321
  67.5592117   8.3074312   8.9477062  42.9065475  50.1118736  86.8459320
  43.5249557  50.8167686  86.6537704  43.3552780  49.3155212  86.5618515
  38.8226433  23.3485165  88.6925735  38.7854843  24.2785816  88.9158096
  38.4251175  22.9061241  89.4425735  86.8320007  38.4790688  23.7491779
  86.3987961  38.7158203  24.5692482  86.5782242  37.5685120  23.5984364
  80.5441513  31.4442940  17.9725857  81.3015289  31.3139210  18.5432072
  80.8182449  31.0909481  17.1262722  31.5175152  41.1827164  69.7748413
  30.9877110  40.9201164  70.5275574  31.2127628  42.0651817  69.5636215
  15.3687887  14.9428606  22.6483727  15.8586035  14.1210794  22.6798344
  14.8159628  14.9222412  23.4295197  84.7625580  22.6779346  88.5621109
  85.3023148  23.0745087  87.8782806  85.2482758  22.8349876  89.3718262
  51.9545212  64.6793518  66.7763062  52.4047356  64.1277618  66.1365509
  51.2304916  64.1383972  67.0915451  69.9717026  26.1660786  30.7572308
  70.0425491  25.6488228  31.5595150  69.9214478  25.5157852  30.0566444
  30.5845947   3.5145712  36.1168404  31.4072514   3.4995248  36.6059647
  30.0315723   4.1307263  36.5972023  15.5110512   3.5296850  60.6905899
  15.0879068   2.9211273  60.0849190  14.9210920   4.2826910  60.7246857
  51.6489563  49.2093239  88.4084549  51.3903198  49.1438828  87.4891815
  51.4031487  48.3652573  88.7870865  59.5894775  44.2874413  18.9718018
  59.2876816  44.4584999  18.0796757  58.9435654  43.6789284  19.3306103
  71.9576950  30.6659832  62.4003868  72.7912674  30.6580334  61.9299355
  71.4922028  29.8950806  62.0759506  40.0357094  19.0857010  23.8423424
  40.2293205  19.2810326  24.7591801  40.2279129  19.9004326  23.3781204
  15.4787693  59.7654381  23.8911438  15.6303005  60.3914566  24.5992184
  15.8421307  60.1901665  23.1140938  56.3603935  44.0366364  40.4618912
  55.9323387  43.1844711  40.3793259  57.2629013  43.8288841  40.7038574
  72.5170135  49.7282181  40.7530136  73.3872528  49.7426987  41.1513786
  71.9286499  49.4954567  41.4712639  11.5007830  17.2839851  85.1270828
  11.2942667  16.5708599  85.7312622  12.2441864  17.7320518  85.5305939
  27.9513969  35.2531166  13.1687870  27.4537315  34.4604759  13.3694935
  28.7359238  35.1876526  13.7132721  69.5189362  37.6228638  71.0230560
  69.8765869  38.3232422  71.5687561  69.3500290  38.0400085  70.1782532
  68.1026764  70.0063782   0.8424047  68.9256134  69.5935440   1.1042758
  67.8310471  69.5246582   0.0611246   6.4647670  35.2562180  43.3999367
   7.3469782  34.9161606  43.5492516   6.0944862  34.6772346  42.7336769
  55.7046623  47.0907631  68.7260132  55.3656158  47.9340858  68.4258728
  55.1644287  46.8719482  69.4852905  33.0278625  39.7943954  27.0976753
  32.2767601  39.2011147  27.1070423  33.6423225  39.3932037  26.4830894
  31.0179939  71.6453857  30.6177959  30.6770687  70.9984741  30.0001297
  30.7183819  71.3400803  31.4740982  35.8497620  58.9143295  58.5923958
  35.3920097  59.1527748  57.7862740  35.6822510  59.6447220  59.1879616
  52.7292404  49.5556068  16.4339695  52.1488380  48.8697624  16.1038399
  52.6270180  49.5186234  17.3849773   1.7045425   5.5756607  69.9363708
   1.9113837   5.2694955  69.0533524   1.8468937   4.8111167  70.4944382
  56.2054214  57.6766357  18.6227665  57.0930328  57.9874763  18.8009663
  56.2951965  57.1304245  17.8418522  84.5997391  57.2097282  32.2429695
  84.0923615  56.4919662  32.6219330  84.6633072  57.8556557  32.9465103
  80.6399384  35.9456673  58.6517525  80.9860916  36.0578651  59.5370903
  79.8972244  36.5478249  58.6068764  51.1684723  35.8204231  73.3376236
  50.8564148  35.9469376  74.2336349  51.8774261  35.1824303  73.4187469
  60.5712662   7.0796432  43.7517395  60.1182518   6.8762546  42.9334221
  59.8688774   7.2003822  44.3907280  79.8524246  15.6387787  36.6304245
  80.0675201  16.2309494  35.9098015  79.5834961  14.8266973  36.2009659
   7.3646789   2.1953685  74.4153595   6.5515695   1.7058369  74.5396347
   7.9902525   1.7742867  75.0049210  69.2526398  27.2604885  86.5278778
  68.5411377  26.6537571  86.7324982  69.8601379  26.7465305  85.9958725
   2.4251418  29.3229065  39.7661362   2.7955503  29.6509571  40.5855331
   1.4804541  29.4400711  39.8664818  12.5591869   1.8640474  57.2481689
  13.3735189   1.4815236  57.5749283  11.8947773   1.5884187  57.8796921
  75.2095490  48.7012978   3.4036307  75.0020370  47.8473511   3.0242350
  74.4145126  49.2191391   3.2772086  80.1211700   9.2595682  59.8124008
  80.7100754   9.8339777  59.3230438  80.6955948   8.5940189  60.1909599
  52.0856056  30.2023106  55.9589081  52.5631485  30.9364586  56.3451843
  52.7397308  29.5085011  55.8753586  85.5549088  60.8109436  69.6139221
  85.3959732  61.5199432  70.2370529  84.6808090  60.5215645  69.3523102
  48.5355949   7.3615208  42.3915520  48.5177002   6.4408154  42.1303749
  47.6137962   7.6019864  42.4848099  19.9281521  11.9504251   2.9340672
  20.0734768  11.6466398   2.0380611  19.4327602  12.7633228   2.8339806
  36.8692284  58.9592972   9.1067266  36.9048080  59.5725899   9.8407831
  37.1789970  59.4660072   8.3560448  24.0617542  35.5531540  88.9639664
  24.0886135  36.1369247  89.7220764  24.7397442  35.8899460  88.3781891
  21.5720654  66.1293335  10.3466091  20.7921867  65.7298431   9.9613457
  21.8870010  66.7352600   9.6758623  86.0673752  39.2211723  51.4938278
  86.2539139  38.9596596  50.5921364  86.6540070  39.9601440  51.6551247
  26.3401680  46.1021576  80.7398987  25.6360378  46.6517296  81.0840073
  25.9018517  45.2984352  80.4603653  79.8343430   4.7144685  71.2519608
  79.8152161   4.7028408  70.2950211  79.0341339   4.2587008  71.5130692
  25.1051598  43.4503250   0.6166735  25.6670227  43.0544853   1.2828981
  25.3790398  44.3670006   0.5862191  17.8066502  44.0417480  74.5260239
  18.3863373  44.7025642  74.1471939  16.9867191  44.1361542  74.0412216
  61.1974030  29.4387684  18.7236996  61.3365898  30.1404877  18.0877361
  61.7375488  29.6853466  19.4744816  78.7908478  42.8390465  76.7718811
  79.5622482  43.0779572  77.2857819  78.9999771  43.1202049  75.8811264
  44.6244850  36.4376144  17.5711327  44.8569412  35.8399620  16.8604946
  43.6871262  36.2974091  17.7050419  52.8088913  40.6552963   9.3561907
  52.3576469  39.8188591   9.4701366  52.1247101  41.3144264   9.4731340
  51.4550438  31.4286346  72.4677811  51.6141510  31.5238400  71.5287094
  50.5258942  31.6320744  72.5751114  16.6811352  13.4181824  15.6966696
  16.2130718  12.7749262  16.2289963  16.9271660  12.9401741  14.9047050
  31.7736092  39.4505119  77.1030045  32.0607681  40.1599312  77.6778870
  31.2304325  38.8945198  77.6616364  66.5345840  27.7733479   9.5859842
  67.4180374  27.4722633   9.3736258  66.5783310  28.7254601   9.4976702
  22.7732143  12.7781992   8.2329979  23.4857578  12.7885046   7.5939288
  23.1848946  12.4853964   9.0460281  44.5597458  13.2769718  78.5504456
  45.1156197  13.7024488  77.8975983  44.0157776  13.9833488  78.8988113
  70.1458359   3.7065597  40.8983727  70.2996292   4.2407956  41.6775856
  70.8024979   4.0057034  40.2694550  54.0222359  67.7285385  26.6572952
  53.8224792  66.8065796  26.8195324  53.4237061  68.2077255  27.2303352
  86.6701889  23.2346458  86.4321442  87.0723724  22.3661594  86.4176331
  85.9774933  23.1888599  85.7731171   6.4977531  31.9436512  77.9114151
   7.2335906  32.0116730  77.3030167   5.8365784  32.5369301  77.5549011
  79.8330002   7.8019443  13.9830885  80.5922241   7.6717639  14.5513010
  79.1198578   8.0212383  14.5827284  67.6758194  16.8773956  40.3792915
  67.5693588  17.4754238  41.1190643  68.4645996  17.1860256  39.9334068
  40.9873772  38.3766289  73.9189224  40.9150581  37.7178268  73.2282791
  40.2508965  38.9680519  73.7638397  32.4952316  21.9860897  89.0105515
  31.7935429  21.5202255  89.4653397  32.6808624  21.4476032  88.2412643
  86.8929721  71.6953393  89.2566073  90.0000000  90.0000000  90.0000000
