QMMM reactant CHA#2 frame 9900
 55680
  44.7261238  54.6010513  46.2250710  45.5650787  55.1302528  46.0347862
  44.4493675  54.0900383  45.3990135  43.9896393  55.2398491  46.4889450
  44.8870201  53.6211548  47.3093338  45.5716553  52.8133774  47.0507393
  45.6050262  54.3933525  48.4557419  46.5578995  54.6843643  48.0136642
  45.0031052  55.2452164  48.7721634  45.8463554  53.4718666  49.6987228
  46.0149460  54.1080284  50.5676193  44.9608574  52.9419823  50.0497475
  46.9559250  52.1191330  49.4167480  48.4622421  53.0535278  49.7449684
  48.5914879  53.8433304  49.0049667  48.4874268  53.5786362  50.6998100
  49.2346687  52.2847748  49.7669067  43.5389519  52.9659042  47.7710457
  42.8474884  53.4315338  48.6640587  43.0872154  51.9256706  47.0301018
  43.6400146  51.7666473  46.1999092  41.9862709  51.0619125  47.2960548
  41.2160912  51.5990486  47.8496017  41.4905930  50.4110413  46.0963326
  42.3113480  49.8101768  45.7046394  40.6530952  49.7536888  46.3299675
  40.8403740  51.4106178  45.1142197  40.5568542  50.8987961  44.1945686
  41.6239052  52.1423874  44.9175148  39.3164787  52.1558342  45.6425209
  38.6955528  53.0377541  44.1122780  37.7906647  53.5346222  44.4621506
  38.4794884  52.3057251  43.3341026  39.3431892  53.8337822  43.7448425
  42.3635826  49.8807678  48.1671562  43.4071999  49.2455864  47.9271584
  41.5317307  49.4841499  49.1663399  40.7738342  50.1328278  49.3241615
  41.5819244  48.1385307  49.7858887  42.6319923  47.8765984  49.9157219
  40.9396629  48.1614342  51.1945038  39.8736038  48.2126579  50.9731522
  41.1146317  46.8115463  51.8665047  42.1640472  46.7053871  52.1413727
  40.5544510  46.8159409  52.8015327  40.8961906  45.9387436  51.2512016
  41.5152206  49.2276459  52.0659409  42.3402596  48.8966904  52.6967201
  41.9430542  50.0789833  51.5365181  40.3870392  49.8666344  52.9855690
  39.5955048  49.1738663  53.2713051  40.9138718  50.2910004  53.8402405
  39.7444763  50.6006889  52.4993820  41.0047112  47.0792542  48.8595314
  39.9269714  47.1253281  48.3170547  41.8952599  46.0812798  48.5303345
  42.7452545  45.9249954  49.0530014  41.5744820  45.0205688  47.5237198
  40.5098228  45.0922203  47.3013115  42.3586502  45.1402779  46.1896820
  43.3172684  44.6217957  46.2077026  41.7766190  44.6244392  45.4259682
  42.6991043  46.5389786  45.5813980  42.9445763  47.3299637  46.2900467
  43.4883461  46.3748817  44.8477325  41.5341797  47.0644455  44.7362862
  41.7644234  48.1081047  44.5221100  41.4290314  46.6090927  43.7515526
  40.2884521  46.9246330  45.5116692  40.3706360  46.7629433  46.5052490
  39.0932121  47.0816956  45.0690117  38.8882103  47.1882248  43.7669067
  37.9725685  47.4030724  43.3987503  39.6763954  47.2901649  43.1436310
  38.0573769  47.0569534  45.8425255  38.0914536  46.8332405  46.8268471
  37.1455307  47.3019218  45.4838715  41.9066315  43.6023827  48.1143799
  42.6863670  43.5212097  49.0914764  41.3856125  42.5319977  47.5671539
  40.7371330  42.7898521  46.8370247  41.6985207  41.0907516  47.7420959
  42.1606941  41.1702728  48.7260551  40.8344917  40.4321404  47.8303261
  42.7725677  40.4153252  46.8084526  42.9232140  40.7797432  45.6108971
  43.4395523  39.4517899  47.4053955  43.2399292  39.3049316  48.3845177
  44.2922859  38.5375290  46.6270142  44.2349091  38.7549095  45.5604515
  45.7646713  38.8785591  47.0632248  45.9295044  38.8789749  48.1406898
  46.8102074  37.8753319  46.4372559  46.6281548  37.7777786  45.3670044
  47.8562431  38.0804214  46.6649513  46.6647911  36.8582039  46.8011246
  46.2250137  40.2833023  46.5336266  46.3170204  40.2980804  45.4476128
  45.3789864  40.9512405  46.6954765  47.4495468  40.8714447  47.2005844
  48.3049698  40.2890778  46.8582382  47.5944328  41.8922081  46.8468208
  47.2385406  40.9822502  48.2642136  44.0154991  37.0145798  46.8575974
  43.6195145  36.6496315  47.9859657  44.2642975  36.1395721  45.8439064
  44.7468758  36.5559578  45.0604248  44.0486908  34.6734581  45.9242630
  43.7767296  34.4031563  46.9445953  42.8727036  34.2522392  44.9452705
  43.0771179  34.4961929  43.9027748  42.6806450  33.1853065  45.0587349
  41.5416527  34.8393860  45.2787704  41.5536270  35.9000816  45.0280037
  40.8449135  34.3755417  44.5805588  41.0832253  34.6659393  46.7927856
  41.5126266  35.3968353  47.4779892  40.0130157  34.8706894  46.7639275
  41.3399506  33.2472801  47.2874794  42.0261116  33.1547966  48.0228195
  40.9968987  32.0813942  46.7114868  40.0689964  31.9872208  45.8125954
  39.3573456  32.6971741  45.9107361  39.8621597  31.0454788  45.5118599
  41.6667976  31.0479546  46.9715157  41.3312874  30.2626686  46.4321976
  42.4956436  31.0602779  47.5485420  45.3467522  34.0218277  45.6540070
  46.1314468  34.4687386  44.8329849  45.5897369  32.8706703  46.2578964
  45.0876961  32.6466980  47.1051826  46.5348663  31.9077663  45.8058853
  46.5010834  31.8526077  44.7178078  47.5391388  32.1154976  46.1751900
  46.2648659  30.4893303  46.4215851  45.4559975  30.3421574  47.3528557
  46.8604317  29.4360275  45.8490486  47.4021034  29.5503750  45.0042915
  46.7717400  28.1080799  46.4105148  46.6238403  28.2073231  47.4858627
  45.5171738  27.3947182  45.8777542  44.6884613  28.0060482  46.2349968
  45.4554214  27.4104233  44.7896156  45.4967499  26.3930035  46.3069954
  48.0095444  27.2918549  46.0784340  48.8836136  27.7116528  45.3250580
  48.0490608  26.1298466  46.7213440  47.3038521  25.9952774  47.3896675
  49.1794739  25.2152252  46.5002441  49.4527168  25.1781425  45.4457016
  50.4593544  25.7523251  47.1545715  50.5011063  26.8086376  46.8889389
  50.4688950  25.7095165  48.7139511  49.4306717  25.8462429  49.0164185
  50.9447289  24.7685299  48.9900475  51.1631660  26.4912796  49.0220604
  51.5410385  24.9998722  46.7239571  52.3069191  25.5720863  46.8111534
  48.8368034  23.7953110  47.0877075  47.8019409  23.6007557  47.8016930
  49.5580177  22.7908096  46.5781136  50.3525543  23.0593891  46.0153694
  49.3710213  21.3759537  47.0765610  48.6367798  21.3587532  47.8819809
  49.0302277  20.3379726  45.9796295  48.9945183  19.3256168  46.3820801
  47.6725426  20.5688534  45.3742332  47.4905891  19.7203941  44.7146034
  46.9313889  20.5442314  46.1731033  47.6244583  21.5361404  44.8740845
  49.8804207  20.2080421  44.9433937  50.5152283  19.5007668  45.0789680
  50.5878601  20.8758564  47.8262939  51.6817474  21.2249527  47.3866539
  50.4064140  19.9955120  48.8314362  49.4501724  19.7827950  49.0773163
  51.4976425  19.2103062  49.3955917  52.4403000  19.6219978  49.0350189
  51.4380074  19.1389923  50.9313126  51.9456787  18.2502594  51.3061752
  52.0636330  20.3872795  51.6334381  52.1760750  20.1868534  52.6989365
  53.0848160  20.5544930  51.2909088  51.5072212  21.2906494  51.3835907
  50.0072021  19.0698433  51.5363693  50.1002045  18.9510212  52.6158752
  49.4324265  19.9901848  51.4329300  49.3907814  18.2744446  51.1174927
  51.4021492  17.7438869  48.8959084  50.2818909  17.2274494  48.7071533
  52.5204239  16.9951134  48.9817009  53.4117355  17.4689903  49.0148773
  52.4663506  15.5276709  48.8570099  51.7602730  15.2289858  48.0821915
  53.8920174  15.1503448  48.3095627  54.2803879  15.8375950  47.5579224
  54.5988884  15.2090168  49.1372070  53.8784142  13.6812353  47.7395935
  54.9362030  13.4648142  47.5901260  53.4226074  13.0396929  48.4937592
  53.1603813  13.5747929  46.3931923  53.7902298  13.7884369  45.2813873
  52.0180473  13.0620708  46.4320717  51.9954300  14.6931105  50.1357231
  51.6142006  13.5282679  50.1031761  51.9683609  15.3286266  51.3214226
  52.2063217  16.3091259  51.3672256  52.0457153  14.5931158  52.6512451
  51.5637169  13.6247082  52.5172234  53.5451546  14.4347105  53.0492134
  53.9906387  15.4165735  53.2091827  53.6397705  13.9018517  53.9953728
  54.4570198  13.6773825  52.0378914  54.0803185  12.7211885  51.6747246
  54.6678238  14.3948717  51.2448769  55.7993622  13.3416872  52.7465858
  55.4279633  12.8390532  53.6396294  56.4190025  12.6656609  52.1574059
  56.5219650  14.5540018  53.1793709  56.5399895  15.3771238  52.5943565
  57.3610344  14.6196623  54.2150993  57.7128792  13.5921488  54.8424606
  58.3536034  13.7868471  55.5985489  57.3927574  12.6580992  54.6299133
  58.0197258  15.7398911  54.4419479  58.8974991  15.7329006  54.9415169
  57.8619919  16.5676003  53.8850670  51.3891182  15.4681616  53.8044434
  51.7632561  16.6364384  53.9962807  50.3891602  14.9328976  54.5292931
  50.2085686  13.9909487  54.2127190  49.7790680  15.4264879  55.7612724
  49.5015755  16.4625759  55.5673180  48.5988159  14.5419893  56.0439262
  48.0168571  14.4633198  55.1256447  48.9571152  13.5265827  56.2132492
  47.7563362  14.9646025  57.1908798  47.4792328  16.1603737  57.3602448
  47.2864418  14.0254011  57.8628235  50.8149452  15.3162069  56.9165497
  50.7924957  14.3945770  57.7133713  51.7305527  16.3118801  57.0147400
  51.8087082  17.0004368  56.2799721  52.7482567  16.4352455  58.0609703
  52.2659340  16.1378345  58.9921036  53.8182030  15.3469467  57.8373642
  53.3036499  14.3866549  57.8030968  54.7852592  15.6220522  56.7127304
  54.2903519  15.7159796  55.7461128  55.2666359  16.5482273  57.0266991
  55.4677773  14.7773638  56.6190910  54.6572304  15.2168779  58.9492798
  55.3452682  15.8722630  58.8126183  53.2703857  17.8903446  58.3245010
  53.1988831  18.7626381  57.4439850  53.6737938  18.2610912  59.5060577
  53.6822243  17.5970802  60.2670555  53.6914978  19.6924229  59.8839722
  52.7644196  20.2084885  59.6343575  53.9318390  19.8889236  61.4191399
  54.7024460  19.1866760  61.7371368  54.3433533  20.8884773  61.5593109
  52.6161003  19.5239716  62.1952934  52.4851952  20.2744942  62.9748306
  51.7361336  19.5834885  61.5548134  52.7797279  18.1586895  62.8822556
  53.1593666  17.2046814  62.1650658  52.5586357  18.0069695  64.0853882
  54.8106880  20.4904881  59.0884399  54.4959984  21.5263767  58.4618073
  55.9246445  19.7553844  58.8295746  56.1112022  18.8741379  59.2864113
  57.0777245  20.2200317  58.1389656  57.2945938  21.2839127  58.2350235
  58.3701591  19.4363918  58.5721817  59.1598625  19.9776897  58.0511627
  58.5694733  19.4737892  59.6431503  58.4569550  17.9654255  58.0289955
  58.1697159  17.9710445  56.9775391  59.5140686  17.7049026  57.9767036
  57.6357040  16.8773098  58.7486572  58.1407776  15.7686596  58.9526711
  56.4773293  17.1241455  59.1058807  56.9095535  20.2928352  56.5850677
  57.7432289  20.8352909  55.8898926  55.8549767  19.6668034  56.0695877
  55.2354965  19.2363453  56.7411919  55.4610825  19.8905315  54.6640244
  56.2829971  20.2546139  54.0475807  54.7834740  18.5197372  54.1770134
  55.2546654  17.6624584  54.6577988  53.7305260  18.5006294  54.4581413
  54.9249382  18.4156322  52.6232910  54.0630455  17.8275967  52.3079262
  54.8108253  19.4056187  52.1816940  56.2601814  17.7766380  52.3384552
  57.2793312  18.0396976  53.0122910  56.3482018  16.8935890  51.4426613
  54.3477974  20.9791813  54.5875092  54.5638847  22.0108871  53.8888474
  53.2459869  20.8535519  55.3265915  53.1662521  19.9454613  55.7614632
  52.1950378  21.7984085  55.3047218  51.7092972  21.8129482  54.3290443
  51.0786514  21.3511753  56.2464218  51.5265350  21.1216545  57.2132835
  49.9875183  22.4594765  56.2541313  49.4656258  22.5738087  55.3040504
  49.2225266  22.1748333  56.9765320  50.3760490  23.4077358  56.6255455
  50.4187698  19.9621944  55.9295921  49.6762848  20.0141430  55.1332779
  51.2089691  19.2210579  55.8095818  49.5637550  19.3744373  57.0676041
  48.6279716  19.9213505  57.1829224  49.2122803  18.3917465  56.7531395
  50.2195511  19.2910690  57.9342537  52.5711823  23.2711544  55.4911690
  52.3655357  24.1149654  54.5973701  53.1231804  23.5695419  56.6603355
  53.4133415  22.8364410  57.2915802  53.7203140  24.8692074  56.9237823
  52.9005241  25.5817833  57.0147705  54.4347916  24.8228378  58.3161163
  55.2933655  24.1530266  58.2681427  54.8470917  25.8081741  58.5334282
  53.5477982  24.3532867  59.4904022  53.2425804  23.3255215  59.2938309
  54.3695259  24.2676048  60.7954178  54.8971558  25.1890984  61.0414925
  53.8349800  23.9717655  61.6981010  55.0316162  23.4082260  60.6895523
  52.4280891  25.3237038  59.8420563  52.9066925  26.2937183  59.9766235
  51.6382103  25.3329601  59.0909843  51.9959526  24.8118858  60.7019386
  54.6006393  25.3333549  55.7229424  54.2915878  26.4115295  55.2230530
  55.6100807  24.5612965  55.2668266  55.7157021  23.7127876  55.8043938
  56.6026649  24.9676514  54.3351822  57.0029144  25.9283085  54.6592827
  57.8835144  24.1246853  54.5227394  58.1251488  24.0247421  55.5809097
  57.5744629  23.1064167  54.2866936  59.0074196  24.4277458  53.6005211
  58.7246819  25.2185707  52.9057159  59.7916985  24.8376198  54.2369270
  59.5970764  23.1560402  52.8774109  58.8994789  22.2352486  52.5070114
  60.9109383  22.9664173  52.8559303  61.5161438  23.7230759  53.1410599
  61.2052116  22.0006714  52.8269730  56.0509911  25.2871284  52.9502029
  56.3091621  26.3548164  52.3767471  55.1707191  24.4839859  52.3316231
  54.9595490  23.5857201  52.7422638  54.2554817  24.8459473  51.1909523
  54.9188843  25.0877533  50.3605766  53.3590851  23.6339188  50.8136749
  53.0925522  22.9821720  51.6457138  52.5976677  24.0243073  50.1384430
  53.9552155  22.7133904  49.6889420  53.2624359  21.9021072  49.4653893
  53.9930229  23.3531303  48.8072357  55.2795792  21.9843388  49.9605637
  56.0467377  22.7556286  50.0289726  55.2969856  21.2664833  50.7806129
  55.5846748  21.1969681  48.7422371  54.8930244  20.3681526  48.5913010
  55.4035034  21.8481350  47.8871040  57.0019798  20.6862583  48.7796326
  57.2121277  20.1651001  49.6188812  57.3873596  20.2016716  47.9816628
  57.6916428  21.3917885  48.9957085  53.4224396  26.1462383  51.3766365
  53.3705292  26.9786415  50.4698753  52.7970581  26.3068867  52.5694008
  52.8892517  25.4725113  53.1310234  51.9551239  27.4545021  52.9467621
  51.3051605  27.7643185  52.1284294  50.8871498  27.2185841  54.0926056
  51.3912048  27.2410889  55.0587921  49.7976532  28.3369312  54.2519913
  48.8557930  27.8717422  54.5428467  50.1043396  28.9525852  55.0975761
  49.6106300  29.0365295  53.4373207  50.2631340  25.9718914  53.9236069
  50.7825928  25.2806778  54.3407249  52.8641815  28.7103920  53.1003456
  52.4550438  29.7839203  52.6162834  54.0575867  28.5656185  53.7036896
  54.3409500  27.7052383  54.1504021  54.9922829  29.6522694  53.9281120
  54.4226494  30.4490757  54.4063644  56.0650177  29.2539406  55.0022736
  55.6039886  28.6937542  55.8157501  56.8393898  28.5939369  54.6113129
  56.8706703  30.4654503  55.5603905  57.3808403  31.0406361  54.7877388
  56.1713257  31.1121540  56.0902863  57.8775635  29.9010372  56.5561447
  57.4563141  29.5014858  57.4786453  58.4765205  29.1495361  56.0417595
  58.8779869  31.0617275  57.0358162  59.4293556  31.3917942  56.1553879
  58.3885536  31.9269123  57.4830322  59.7650719  30.5770473  58.1446342
  60.4868584  31.2711067  58.2765541  59.2908554  30.5425816  59.0357208
  60.2239227  29.6888409  58.0009689  55.6729965  30.1184731  52.6632500
  55.7956467  31.3751354  52.4672661  56.0884132  29.2618198  51.7777138
  55.9176712  28.2887783  51.9878006  56.7729454  29.5442486  50.4648933
  57.4757500  30.3310165  50.7390556  57.4368172  28.2555408  50.0169868
  56.7163200  27.4416904  49.9355469  57.7800903  28.2619400  48.9824677
  58.6782112  27.8790894  50.8545952  59.4726944  28.6101952  50.7049942
  58.4696770  27.9416790  51.9226303  59.3534927  26.5501518  50.3805733
  58.8486404  25.8746662  49.5063095  60.5009956  26.1741543  50.9328690
  60.8522186  25.2538033  50.7099457  60.8705521  26.6251316  51.7575798
  55.7235641  30.1044655  49.4722404  56.0447884  30.8194504  48.5115700
  54.4101982  29.8372784  49.6931801  54.2149506  29.1235676  50.3806343
  53.2854652  30.5107460  48.9689903  53.5442467  30.5592937  47.9112663
  52.0663414  29.5866985  49.2146111  52.1341858  28.6328983  48.6913872
  52.0430565  29.3275146  50.2730942  50.6987457  30.2393379  48.8261642
  50.5590706  31.2510128  49.2070885  50.5945358  30.2949371  47.2583542
  49.5616455  30.5966911  47.0845909  51.2894669  31.0673733  46.9289398
  50.6555328  29.3209438  46.7728500  49.5266037  29.4101048  49.3445358
  48.5976219  29.8514252  48.9835205  49.6915054  28.3910656  48.9945793
  49.4745369  29.2686615  50.4240646  53.1464691  31.9253941  49.5135803
  53.1483421  32.8606911  48.7519875  53.1450157  32.0925941  50.8443336
  53.3769150  31.3042049  51.4315033  52.9241180  33.2860603  51.6137047
  52.0132103  33.8106499  51.3253403  52.8323479  33.0880547  53.1786575
  53.5988770  32.3843155  53.5031395  52.9485397  34.0613289  53.6554527
  51.4290848  32.6171989  53.6578789  51.0705185  32.0286980  52.8133659
  51.4773369  31.8169365  54.9785767  50.5011902  31.5549908  55.3867683
  52.1016045  30.9312649  54.8603516  51.9202957  32.4880142  55.7144737
  50.5433884  33.8148308  53.9339523  49.5373497  33.5853043  54.2850952
  51.0634422  34.4626160  54.6396561  50.4361305  34.4170418  53.0317688
  54.0433998  34.2311745  51.1360321  53.7871513  35.2480888  50.5481606
  55.2831383  33.7999382  51.2990685  55.4757881  33.0518608  51.9497337
  56.4346886  34.6243286  50.7980576  56.4620438  35.5968590  51.2895317
  57.8125648  33.8601036  51.0840645  57.6001778  32.8111229  50.8775749
  58.5771446  34.1171227  50.3509483  58.3175049  33.9715118  52.5648537
  57.5033798  33.7503319  53.2550545  58.9709244  33.1020164  52.6363869
  59.0659332  35.2723808  52.8599510  58.7660561  36.0752373  53.7946968
  59.8926239  35.5672073  51.9597778  56.4012413  34.9289627  49.2593994
  56.9739799  35.9782600  48.9070396  55.7637405  34.1179237  48.3539238
  55.4875183  33.1876259  48.6338310  55.6681442  34.4662437  46.9172935
  56.5633240  35.0511055  46.7059059  55.5831299  33.2324677  46.0496483
  56.3401680  32.4899521  46.3019638  54.6157913  32.7372131  46.1338387
  55.7772064  33.5900650  44.6182060  55.5261574  32.7589798  43.9591331
  55.0257034  34.3108139  44.2959251  56.9881439  34.3324585  44.2448616
  56.8368416  34.5900230  43.1965904  57.0514336  35.3147812  44.7129822
  58.2002144  33.4649048  44.4981194  58.2958527  33.3221855  45.5744934
  57.9282265  32.4584389  44.1800652  59.4427185  33.9456978  43.8979340
  59.4210358  33.8101730  42.8973007  59.6633110  34.8964920  44.1576118
  60.2417831  33.3820114  44.1506271  54.4816818  35.3984756  46.5939827
  54.5663109  36.1799812  45.6657066  53.3986855  35.3028107  47.4014244
  53.4032631  34.6740379  48.1918182  52.3799210  36.3519745  47.3457718
  52.1227989  36.5448494  46.3042412  51.1095810  35.8860474  48.0567513
  51.4111404  35.5581741  49.0515671  50.1293640  36.9346848  48.4213943
  49.8825226  37.5209579  47.5362663  49.2241859  36.5168304  48.8620148
  50.4973068  37.5763168  49.2220345  50.4040108  34.7478409  47.3688812
  49.8170433  35.1938820  46.5660057  51.0971107  34.0421677  46.9109039
  49.4896278  33.9415207  48.2956352  50.1147537  33.4048004  49.0092506
  48.6973038  34.4503250  48.8446693  48.8911324  33.3125114  47.6366539
  52.8929520  37.7395706  47.8237114  52.5871468  38.7669563  47.1882362
  53.6103020  37.7045822  48.9184990  53.7803955  36.7890511  49.3096199
  54.1913605  38.8727951  49.5307503  53.3542328  39.5704422  49.5551720
  54.6699829  38.6159859  51.0063591  55.3882942  37.8034439  51.1154327
  55.4723015  39.8628426  51.4853363  54.9892235  40.7742233  51.1330223
  55.4475708  39.8669662  52.5750465  56.5164642  39.7860641  51.1821213
  53.4898415  38.3172989  52.0585670  53.0632629  39.2347031  52.4641457
  52.7408791  37.6577835  51.6201591  53.9831543  37.6649780  53.3445511
  53.0988197  37.5489845  53.9711227  54.2860107  36.6325417  53.1700249
  54.7330284  38.2603073  53.8654900  55.2214890  39.4565620  48.5850449
  55.0831566  40.6406288  48.3271599  56.1657372  38.6537056  48.0041466
  56.3368530  37.7002258  48.2899628  56.9873924  39.1142235  46.9080887
  57.5607643  39.9122276  47.3798180  58.0129242  38.0614281  46.3757973
  58.5773087  37.5987244  47.1854095  57.4558640  37.2727013  45.8701324
  59.0844803  38.7248917  45.4751511  58.5414314  39.1262093  44.6194954
  59.4850540  39.5724678  46.0312576  60.0893097  37.6111755  45.0800667
  59.6332970  36.4547539  44.6954384  61.3058815  37.8209267  45.1040688
  56.2674484  39.8031502  45.7362137  56.4890938  40.9844627  45.4284286
  55.3312263  39.0678177  45.1198616  55.0875092  38.1484337  45.4596138
  54.7507553  39.5112114  43.7740746  55.5551376  39.9296494  43.1691170
  54.1470070  38.2919693  42.9852448  53.6556168  37.6793861  43.7411385
  53.3496246  38.4848251  42.2675476  55.2035980  37.4110413  42.3771362
  56.0263786  37.3162804  43.0857582  54.7499962  36.4297485  42.2378006
  55.5563889  37.8517838  40.9487686  55.6557846  36.9837761  40.0352745
  55.7282372  39.0776100  40.7239990  53.7956505  40.7305336  43.8950996
  53.4022522  41.2946548  42.9164276  53.5688248  41.1417847  45.1637878
  53.9296646  40.5579758  45.9047737  52.5131683  42.1521492  45.4577446
  52.2718544  42.6725693  44.5309067  51.1734810  41.4895287  45.9231529
  51.1015472  40.9919434  46.8902817  50.4520111  42.3065109  45.9123421
  50.6142349  40.5810165  44.8756866  50.3001022  40.9669952  43.7852478
  50.4992409  39.3072929  45.1982040  50.0257301  38.7262802  44.5212135
  51.0119858  38.9532127  45.9930725  53.0660248  43.2789574  46.4112778
  52.2624969  44.0608292  46.9113159  54.3833923  43.4035797  46.7077789
  55.1073380  42.8370209  46.2894249  54.8810616  44.5339127  47.5477753
  55.9388771  44.2868118  47.6375961  54.8192406  45.8741379  46.7913132
  53.7834473  46.2131081  46.7732430  55.3892021  46.6235275  47.3405495
  55.3247299  45.8622551  45.4362526  56.6245308  46.1407051  44.9923325
  57.4156876  46.2912941  45.6018372  56.6219139  46.1249924  43.6754684
  57.4741631  46.4614983  43.1037712  55.3659630  45.7958374  43.1900864
  55.0468025  45.8219185  42.2321930  54.6214600  45.5370598  44.3174095
  53.5551529  45.3952179  44.2211342  54.2458191  44.6567192  48.9298859
  54.3180199  45.6818008  49.5609474  53.5878944  43.6004639  49.4143867
  53.5778809  42.6995773  48.9578743  52.7754097  43.5914764  50.6442833
  51.9986115  44.3475990  50.5303841  52.0020790  42.2777863  50.8383179
  52.6864700  41.5600395  51.2905846  50.6873817  42.2964172  51.6898079
  50.5903931  41.4335251  52.3486671  50.6934471  43.1805878  52.3272324
  49.8147125  42.3327599  51.0377121  51.7224159  41.6791611  49.6094627
  51.0091324  42.2427750  49.3009758  53.5666847  43.8216896  51.9670143
  54.3230743  42.9792557  52.3867188  53.3134995  44.8944626  52.7568855
  52.6010742  45.5428200  52.4532661  53.7590256  44.9047585  54.2077904
  54.6576653  44.2894096  54.1642380  54.1036034  46.2730560  54.7215919
  53.2311096  46.9111481  54.5812073  54.2203903  46.0296516  55.7776299
  55.3926239  46.8052788  54.2235069  56.1474533  46.0535393  54.4542084
  55.2923126  47.0042686  53.1565285  55.7102165  48.2583389  54.7927551
  54.9057617  48.8518219  54.3583183  55.7139587  48.2788734  55.8825569
  57.1376839  48.6505241  54.3629799  57.8569946  48.3879166  55.1386909
  57.2903175  48.0655251  53.4560165  57.1104889  50.1276360  54.1083221
  56.7568130  50.6253738  54.9128571  58.0122452  50.5036659  53.8523216
  56.4657936  50.3026390  53.3507996  52.6430740  44.2852364  55.0124550
  51.5046043  44.3892860  54.5717545  52.8784218  43.6664429  56.2285919
  54.2318916  43.3478012  56.6825027  54.9913750  44.0629463  56.3665047
  54.4446678  42.3421326  56.3199272  54.0572472  43.2326889  58.2210541
  54.0705910  44.2223396  58.6776848  54.7566528  42.5356369  58.6826248
  52.6353378  42.7105637  58.3441467  52.2452354  42.8195114  59.3560982
  52.7500420  41.6539536  58.1022301  51.8171196  43.3346672  57.2194595
  51.0778694  42.6238556  56.8501968  51.0342941  44.5469398  57.8005486
  49.7886848  44.4345741  57.9441910  51.5796432  45.7782936  57.8268890
  52.5791435  45.7475319  57.6849442  50.7841148  47.0158272  58.1790504
  50.4059868  46.8879166  59.1933327  51.9138641  48.0616798  58.3536301
  51.6317978  48.8924866  59.0003929  52.7890015  47.6164360  58.8269119
  52.3706169  48.5661507  57.0196877  52.7438583  47.7620888  56.3854370
  51.5490150  49.0419769  56.4842834  53.5777855  49.5523376  57.1626587
  54.6734962  49.1919365  57.6728935  53.4169083  50.7197456  56.6547394
  49.6088982  47.2691193  57.3181305  48.6664848  47.9550591  57.6809769
  49.7185860  46.8255424  56.0267448  50.5036545  46.2049484  55.8902512
  48.6178894  46.9521141  55.0549278  48.2882004  47.9852486  54.9452095
  49.1844978  46.6497688  53.6435013  49.4651680  45.6068420  53.4964638
  48.3771782  46.8858376  52.9502449  50.3776169  47.4905663  53.2220154
  50.4293022  48.7314835  53.6026497  51.1889954  46.8874435  52.4669418
  47.3534164  46.1258087  55.3245544  46.3035316  46.3148613  54.7232323
  47.5419388  45.0035629  56.0113640  48.4234581  44.9322853  56.4991531
  46.6099205  43.8875389  56.0252953  46.1916466  43.7845917  55.0240211
  47.2135162  42.5305786  56.2761459  47.8207092  42.5231895  57.1813316
  46.1379013  41.4069557  56.2558899  45.4359398  41.5009460  57.0844574
  45.5732269  41.3447876  55.3256302  46.5570030  40.4047699  56.3457947
  48.2109642  42.1399689  55.2200203  48.8795509  42.9788055  55.0265312
  48.7889099  41.3157272  55.6379967  47.7100525  41.8113518  54.3094177
  45.3621559  44.1704102  56.8195114  45.3481750  44.4197884  58.0461235
  44.2064934  43.9619789  56.2262878  44.2019157  43.5983124  55.2840424
  42.9535141  44.0480270  56.9524307  42.9439163  44.8062592  57.7354317
  41.7570992  44.0304108  55.9561920  41.8188057  43.2347603  55.2137375
  40.4175987  43.9675941  56.6688232  40.2230721  44.8546219  57.2716866
  39.5932617  44.0487747  55.9603195  40.3634987  43.1090355  57.3381920
  41.7798691  45.3263817  55.1634865  40.9823189  45.3455734  54.4207611
  41.5648232  46.1913185  55.7909698  42.7896156  45.4938087  54.7886810
  42.8751411  42.6977806  57.7538452  42.8360786  42.7260818  59.0103951
  42.8091660  41.5718498  57.0578041  42.8822289  41.5896072  56.0506058
  42.8834572  40.2002029  57.5933266  43.7567978  40.1499290  58.2435951
  41.5321579  39.9538765  58.2789841  41.6306801  39.0372581  58.8605423
  41.3204079  40.7452469  58.9980049  40.3542557  39.6947212  57.2998009
  40.5275497  40.2661476  56.3879128  40.3341713  38.6622086  56.9510612
  39.0129776  40.0921249  57.8324776  38.8201828  40.7778740  58.8734055
  38.0021553  39.3956642  57.3802643  37.1091347  39.6839409  57.7537804
  38.0595169  38.8247948  56.5490494  43.0738907  39.2014923  56.4375992
  42.8995628  39.7008171  55.3119545  43.3042679  37.9154510  56.7474098
  43.0878563  37.5724716  57.6724091  43.5734749  36.8146210  55.8428650
  43.3553009  37.1651382  54.8340836  45.0820274  36.5750847  55.8979111
  45.6439743  37.4989357  55.7607460  45.3704643  36.0091286  56.7836876
  45.5125465  35.6501770  54.7029152  45.2897224  34.6463737  55.0646057
  44.8580933  35.7863693  53.8419609  47.2928581  35.8639145  54.3133812
  47.9092674  35.8822365  55.9831314  47.9271393  36.8824272  56.4160233
  47.2618713  35.1640205  56.4862595  48.9186287  35.4738617  56.0334549
  42.9359016  35.4879227  56.3449173  42.7151756  35.3175240  57.5517502
  42.5524940  34.6333046  55.4455109  42.6030693  34.8656960  54.4639130
  41.8110428  33.4897003  55.6531410  41.7924118  33.1879845  56.7003860
  40.4095039  33.8992462  55.1459045  40.4298592  34.1267700  54.0801125
  39.8201599  32.9964294  55.3062248  39.7436523  35.1264915  55.9031143
  40.2733269  35.2347145  56.8495979  39.6928787  36.4231567  55.0451584
  40.6929054  36.7174454  54.7266655  39.0653992  36.4021034  54.1541328
  39.2986565  37.2678757  55.6100769  38.2741356  34.7453308  56.2077255
  37.8262787  34.3001518  55.3192711  38.2341232  33.9572411  56.9596634
  37.7454453  35.6591148  56.4790001  42.5071487  32.3017769  54.9242477
  42.9823990  32.5390778  53.7951088  42.6906891  31.0870724  55.5130043
  42.3797951  31.0761890  56.4739037  43.5257568  29.9908485  55.0537949
  43.7582626  30.1407757  53.9994850  44.8219566  29.7983513  55.8862190
  44.6815300  29.5037537  56.9262161  45.4269104  29.0402622  55.3887939
  45.6522179  31.1484451  55.8644333  45.4509048  31.6273003  54.9061699
  45.2644844  32.1134872  57.0017548  44.2439194  31.9967022  57.3663139
  45.8954124  31.9179821  57.8688202  45.4851913  33.1427956  56.7190514
  47.1632881  30.8277225  55.9003754  47.6799278  31.7440147  55.6147308
  47.6058807  30.3812103  56.7907944  47.2927437  30.1357517  55.0681992
  42.6989059  28.7551727  54.9688416  41.7356300  28.6401958  55.7496185
  42.9954338  27.7107925  54.2929688  43.8227577  27.7419662  53.7144661
  42.0813179  26.5356464  54.0056534  41.3109932  26.4517765  54.7722473
  41.2844925  26.8202991  52.7944679  40.6188164  27.6659336  52.9673233
  42.0033455  27.0097332  51.9973068  40.4078331  25.7274914  52.4769516
  40.8403702  25.0633392  51.9352722  42.9086380  25.2701397  53.7822227
  44.0258064  25.3776093  53.2937355  42.3353348  24.1111031  54.0351219
  41.4470444  24.1360512  54.5151443  42.8885384  22.8096924  53.7924156
  43.5949516  22.9325104  52.9714432  43.8163376  22.3905411  54.9646339
  44.4078636  21.5117722  54.7077866  44.5610504  23.1820107  55.0487823
  43.2242775  22.4684124  55.8764992  41.9102631  21.6673489  53.4330254
  40.9497566  21.5459995  54.1431999  42.1801071  20.8952141  52.3898849
  42.9349747  21.1272659  51.7602577  41.2829208  19.7614517  52.0732651
  40.2837982  20.1399364  51.8573799  41.7715683  19.1263580  50.7919731
  41.3321724  18.1308327  50.7290497  41.4974709  19.9752865  49.5487022
  42.0720215  19.5679951  48.7167740  40.4525986  19.9533195  49.2390862
  41.7741776  20.9971371  49.8082123  43.1415215  18.9609985  50.7658005
  43.2856331  18.0729790  51.1008453  41.1169434  18.6923828  53.2069778
  41.9482307  18.6259212  54.1049309  40.0076332  17.8851471  53.1677666
  38.7887459  18.1915359  52.4354477  38.9300117  17.8866596  51.3985291
  38.4941177  19.2228565  52.6295395  37.5978699  17.3166962  52.9189491
  37.0285759  16.9741707  52.0548401  37.0473938  17.9110088  53.6482430
  38.3491249  16.1060619  53.5637627  38.4856110  15.3461733  52.7943230
  37.7305374  15.7171650  54.3725967  39.6850090  16.7587128  54.0369263
  39.5850868  17.0995216  55.0674438  40.7487183  15.6579494  54.1599960
  40.5871544  14.7906303  55.0181580  41.9327583  15.7240944  53.5275269
  42.0853806  16.4903908  52.8875275  43.0496025  14.7222061  53.5695496
  42.8191872  13.7777176  54.0624504  43.4049683  14.2267551  52.1543045
  44.3558502  13.6954231  52.1141624  42.6541977  13.4975080  51.8499298
  43.4049683  15.3141394  51.0854454  43.5933762  16.5455284  51.4252014
  43.3424072  14.9836349  49.8850784  44.2126770  15.3888807  54.3178902
  45.3416367  14.8785391  54.3568993  44.0096245  16.5554104  54.8797035
  43.0870705  16.9641094  54.8354378  44.9587898  17.2584877  55.7368431
  45.8324356  16.6108742  55.8106079  45.4099770  18.5729866  54.9766426
  44.5728073  19.2691956  54.9262619  46.1249924  19.0501251  55.6468697
  46.1422691  18.4836311  53.6364021  45.4245186  18.1419373  52.8906288
  46.5898018  19.8704300  53.2130013  47.2895966  20.3608723  53.8896446
  47.1439552  19.7849293  52.2782784  45.6614037  20.4257851  53.0797348
  47.4104767  17.5798988  53.4950409  48.2982140  17.9256592  54.0246277
  47.2138329  16.5344219  53.7325478  47.8095055  17.5488415  52.4811783
  44.4326897  17.6052990  57.1237526  43.5537567  18.3886108  57.3112640
  45.0825806  17.0943718  58.1846924  45.8787346  16.5049438  57.9876862
  44.7239685  17.2072506  59.5745087  44.1289177  18.1084480  59.7223511
  43.9559441  15.9356833  60.0723877  44.4845810  14.9963226  59.9103622
  43.6999435  15.9258118  61.1318512  42.7388687  15.7555408  59.1961517
  41.7338219  16.7119541  59.1745605  41.7308044  17.6004333  59.6548691
  40.8663826  16.3862133  58.2441139  40.0377274  16.9042454  57.7843552
  41.2407265  15.2613792  57.7109108  40.8379021  14.8559694  56.8781586
  42.4515266  14.7794771  58.3312073  42.9161873  13.8315401  58.1033821
  45.9624405  17.4724770  60.5797119  45.7455673  17.8239040  61.7172546
  47.2382355  17.4902477  60.1423302  47.4040298  17.1493969  59.2061501
  48.3924866  17.4716988  61.0132065  48.2335968  16.6499004  61.7114182
  49.6343231  17.1510754  60.1906548  50.4372902  16.9123230  60.8880310
  49.3507957  16.3339176  59.5273552  49.9200516  18.0577412  59.6573410
  48.4996643  18.8065243  61.6932373  48.8420906  18.8840866  62.8733749
  48.4120979  19.9580288  60.9202461  48.1433716  19.8951530  59.9486809
  48.3101578  21.3160439  61.5053329  47.6888657  21.2380772  62.3975334
  49.7439079  21.8021812  61.8463058  50.2052269  21.0303974  62.4624481
  50.6731987  22.1019669  60.7264557  50.1717758  22.8743210  60.1432343
  51.6833496  22.2611809  61.1037407  50.7022095  21.3855324  59.9054871
  49.5967979  22.9910412  62.7844505  50.5520210  23.2526932  63.2396278
  49.4121933  23.8376656  62.1231995  48.8664780  22.7730541  63.5636826
  47.4949074  22.1888618  60.6305923  47.6536331  21.9954700  59.4327240
  46.9040909  23.2604885  61.2457962  46.8535576  23.2493820  62.2544746
  46.3722954  24.4137917  60.5955467  45.5341759  24.1733952  59.9414330
  45.9515610  25.5633736  61.5678673  46.7430763  26.2037601  61.9571114
  45.4145508  26.2244644  60.8876610  44.9180756  25.2673073  62.7375336
  43.5525055  25.0989952  62.4800224  43.2131500  25.3295593  61.4809837
  42.6616440  24.6572819  63.4654427  41.6059494  24.5819912  63.2504196
  43.0924034  24.3572865  64.7661896  42.4589958  24.0251102  65.5754166
  44.5050659  24.3763313  64.9193649  44.9974060  24.1456528  65.8525238
  45.4136086  24.8189335  63.9455986  46.4815254  24.7516251  64.0919571
  47.5131645  24.9684906  59.7301216  48.5927505  25.2434158  60.2612343
  47.2725601  25.2079411  58.4056587  46.3744698  24.5347271  57.5620346
  45.3923874  24.9777794  57.7273254  46.3126755  23.4689560  57.7820663
  46.9157410  24.7493267  56.1534958  46.0766373  24.5639896  55.4829330
  47.7074203  24.0276585  55.9521446  47.6253586  26.1283092  56.1820221
  46.9368286  26.9683571  56.0906219  48.5334282  26.1548786  55.5796928
  48.0647087  26.1413708  57.6104813  49.0964890  25.7899494  57.6049423
  48.1532478  27.6235027  58.1071777  49.0746384  28.3907185  57.7050858
  47.2227249  27.9999733  59.0476112  46.4860687  27.3157349  59.1438141
  47.1774635  29.3264427  59.6509514  47.0432587  30.1068897  58.9019585
  46.0207863  29.3595886  60.7135201  45.9392700  28.5649204  61.4551086
  46.1319084  30.3124409  61.2310410  45.0337181  29.3884182  60.2520332
  48.5654030  29.6640091  60.3557091  49.0507851  30.8145237  60.3007393
  49.1862755  28.6712894  61.0149765  48.6280823  27.8329659  61.0907211
  50.4060020  28.8493023  61.8197403  50.2172089  29.6265011  62.5602951
  50.7059326  27.5081825  62.5803337  49.9324913  27.3604374  63.3340302
  50.4831619  26.6815186  61.9057198  52.0946808  27.3550034  63.2296600
  52.8484955  27.2862282  62.4453583  52.2368927  28.1565437  63.9545135
  52.0764198  26.1108437  63.9652672  51.3115158  26.0944977  64.7416382
  51.8064270  25.2584209  63.3419037  53.4949455  25.9241428  64.5608368
  54.1717644  25.4317780  63.8625565  53.9522858  26.8736763  64.8389130
  53.4401093  25.1391163  65.8118134  52.8346977  25.6351681  66.4501801
  53.0166283  24.2570457  65.5613708  54.3056793  24.9990635  66.3130875
  51.6273117  29.3028278  60.9691544  52.5293579  29.9167633  61.5033493
  51.6657753  28.9704533  59.7004585  50.9109230  28.3866825  59.3695374
  52.7162971  29.3668003  58.7490616  53.6690979  29.0648136  59.1838837
  52.4015884  28.6895523  57.3997917  51.4210739  28.9498425  57.0011215
  53.1690331  28.9080105  56.6572266  52.5975838  27.6281643  57.5519333
  52.7677383  30.8771687  58.5851135  53.8084946  31.2978630  58.1660538
  51.7050819  31.6261940  58.9188309  50.8834038  31.1583748  59.2739220
  51.6898003  33.1735954  58.9753647  52.2392349  33.5201912  58.1000938
  50.3024559  33.8133202  58.8662758  49.7803688  33.4101639  59.7340279
  50.3530045  35.3353500  59.1096115  50.6771469  35.6198349  60.1106644
  51.0435143  35.8676605  58.4554367  49.3887100  35.8431358  59.0898170
  49.5501022  33.3250198  57.6117592  49.9885788  33.6928329  56.6840973
  49.4520149  32.2424431  57.5310936  48.5620461  33.7803383  57.6791039
  52.4899254  33.6014328  60.2225838  53.3898201  34.4382286  60.1019020
  52.3125038  32.8330040  61.3849831  51.4429054  32.3195724  61.4018745
  53.1345673  33.0510788  62.5343361  53.0222549  34.1221046  62.7028198
  52.5729790  32.3339119  63.6584167  51.4856110  32.3973923  63.6171532
  52.7791138  31.2721500  63.5232506  53.1335793  32.7216949  65.0327682
  54.1012726  32.2626076  65.2350235  53.1881104  33.8025780  65.1624756
  52.3031883  32.2545815  66.2125397  52.8551750  32.4318428  67.1355743
  51.3718948  32.8093681  66.3265762  51.8799934  30.8759384  66.1912384
  52.4422302  30.2165298  66.7100525  50.7385521  30.3858662  65.7002106
  49.8367920  31.1503944  65.1878815  48.9014511  30.8249702  64.9895401
  50.0423050  32.1291504  65.0468063  50.5311356  29.1016312  65.7314606
  49.6726418  28.6982098  65.3845596  51.1403465  28.4845715  66.2493362
  54.6186104  32.6985130  62.3132210  55.4565773  33.2763100  63.0106850
  54.9870338  31.7467022  61.4089775  54.2127571  31.1837463  61.0869827
  56.3089066  31.3330002  60.9512634  56.9138260  31.2452068  61.8537407
  56.3140144  29.9139919  60.2602005  55.6916389  29.8869343  59.3657608
  57.2937813  29.5009823  60.0202408  55.6863022  28.9077644  61.1450577
  54.6569099  29.1834583  61.3740616  55.7458458  27.9209805  60.6859131
  56.3981400  28.7590542  62.5105705  56.1173592  29.4780884  63.5104446
  57.3521996  27.9239330  62.5516472  57.0125656  32.3889656  60.0356369
  58.1323662  32.1414375  59.6410179  56.4021606  33.5324631  59.8012352
  55.4347420  33.6475983  60.0675964  56.9808846  34.6817436  59.0532837
  57.8450508  34.2870216  58.5189514  55.9352417  35.1471176  58.0545959
  55.0999908  35.4614525  58.6804123  56.2682724  36.0644417  57.5690956
  55.4448776  34.1978493  56.9486160  55.2557335  33.1629372  57.2337112
  54.1317329  34.6793594  56.3418770  53.4487686  34.8180122  57.1799850
  54.2221603  35.6364517  55.8281708  53.6823120  34.0495338  55.5741234
  56.3885498  33.9376984  55.8259201  57.2500343  33.3810043  56.1947556
  55.9672470  33.2496796  55.0929604  56.6463623  34.8665771  55.3171806
  57.4207077  35.8286705  60.0146675  56.7427902  36.1871872  60.9696083
  58.6647758  36.3588943  59.8686295  59.2236748  36.1748962  59.0477219
  59.1201477  37.4816284  60.7206650  58.9913216  37.2054024  61.7671852
  60.6562843  37.8204956  60.6388474  61.2463493  36.9544640  60.9387054
  60.7599792  38.1224518  59.5966530  60.9254417  38.8178406  61.6109123
  61.4952011  39.4281693  61.1371307  58.2515755  38.7251968  60.5220833
  57.9961052  39.1886215  59.4420013  57.6448441  39.1912155  61.6967392
  57.9190788  38.6326332  62.4922791  56.8052254  40.3973846  61.8845329
  56.7622566  40.5717316  62.9596405  57.3048096  41.1338387  61.2551270
  55.3435555  40.2401428  61.3850479  54.6211891  41.2264748  61.3692894
  54.8055077  39.0120201  61.3023491  55.3715096  38.1904221  61.4595604
  53.4307213  38.7757149  60.9420204  53.0038071  39.7408409  60.6693039
  53.4736290  37.8675003  59.7008553  54.2675552  37.1465721  59.8958931
  52.5227432  37.3406487  59.6212120  53.8113441  38.5006561  58.3754997
  55.0181770  38.8330841  57.9069901  55.9755440  38.7016563  58.3892479
  54.8738937  39.4646149  56.6916466  55.6276855  40.0620155  56.3834038
  53.5963135  39.5567703  56.2882385  53.0289688  40.1874924  55.1866684
  53.5362434  40.7992973  54.4553909  51.6554604  39.9624138  54.9638786
  51.1128616  40.4215622  54.1507454  50.9076157  39.2184601  55.8998260
  49.8590240  39.0079422  55.7496872  51.4814606  38.6727943  57.0078087
  50.7752419  38.1477890  57.6339302  52.8295975  38.8821297  57.2705956
  52.4286766  38.3270340  62.0652504  51.2500038  38.1099472  61.8112793
  52.9293365  38.1332436  63.2549706  53.8663368  38.4690628  63.4263191
  52.3049240  37.5604286  64.3821335  51.8509827  36.6569061  63.9750824
  53.4030151  37.0010338  65.3408279  52.9317093  36.1847229  65.8881912
  54.1827621  36.6884460  64.6462860  53.8979149  38.0250740  66.3774948
  53.1190376  38.7420197  66.6371918  54.1009483  37.4827690  67.3009567
  55.1019630  38.8484917  65.9253311  55.5246849  38.7506828  64.7814941
  55.8194771  39.4544983  66.8834763  56.7452583  39.7879601  66.6558151
  55.7012863  39.2582245  67.8671494  51.1786156  38.2892113  65.0832977
  50.4690170  37.7246971  65.8904190  50.9528465  39.5121231  64.6712341
  51.4868622  39.8243561  63.8728409  49.7640839  40.3153687  65.0455017
  49.2649612  39.8442268  65.8922577  50.2597351  41.7245903  65.4725037
  50.6404533  42.3206444  64.6431198  49.3637886  42.2521400  65.7997131
  51.2328568  41.7744980  66.6249695  50.7398758  41.9667740  67.9831467
  49.6805992  41.9857254  68.1928558  51.6489372  41.9579239  69.0720825
  51.4220924  42.0439034  70.1244888  53.0719299  41.9030075  68.8233871
  53.8939323  42.0449028  69.9140854  54.7621193  42.2530861  69.5612335
  53.5121651  41.7849770  67.5062332  54.5865631  41.7485008  67.4026108
  52.6442184  41.7134247  66.4216156  52.9788933  41.6496773  65.3967590
  48.7933159  40.4287720  63.8582077  47.7052231  41.0135727  63.9386253
  49.1570091  39.9774933  62.6514702  50.1140862  39.6549950  62.6615601
  48.2948685  39.9774132  61.4704247  47.8848877  40.9852943  61.4056320
  49.1013184  39.7150383  60.2181358  49.4277344  38.6887054  60.0502205
  48.2532387  39.9481697  58.8571091  48.8615227  39.9224892  57.9529877
  47.5755463  39.1006317  58.7546005  47.6696548  40.8664742  58.9222374
  50.2402077  40.7032890  60.0592499  49.9418030  41.7506447  60.1051178
  50.9023819  40.4906425  60.8985443  50.6697769  40.5005379  59.0782013
  47.1138496  39.0639458  61.6083107  47.2977715  37.9636612  62.0523643
  45.8393936  39.3955193  61.2028008  45.3556862  40.7559433  60.9761009
  45.2405205  40.9491463  59.9095612  45.9442978  41.5602684  61.4173508
  43.9559708  40.8253632  61.7094116  43.3353844  41.5289040  61.1544266
  44.1121979  41.0691719  62.7602425  43.4672279  39.3893814  61.4639320
  42.9853935  39.3476028  60.4871063  42.7892342  39.1778297  62.2907753
  44.6735001  38.5396080  61.4864006  44.7324791  38.1526375  62.5036888
  44.6136894  37.3147354  60.5689659  44.5784187  37.3811378  59.3304100
  44.3970032  36.1536331  61.2067833  44.4009628  36.2134018  62.2150040
  44.4322701  34.7987251  60.5320587  44.3056412  34.9795265  59.4646416
  45.7204018  34.1031647  60.8579979  45.5074692  33.0427017  60.7231712
  46.8552971  34.6022034  59.9571953  46.8665504  35.6903343  59.8943024
  47.7880058  34.1604424  60.3079147  46.4939537  34.3635674  58.9569054
  46.2064171  34.3318367  62.3375130  46.6937752  35.3064232  62.3651009
  45.3294373  34.3950806  62.9817276  46.8330154  33.4617538  62.5335579
  43.2306442  33.9265976  61.0382805  42.7506866  34.1567078  62.1297836
  42.6910591  33.0037117  60.2462349  42.9890594  33.1537552  59.2929268
  41.5336800  32.1168594  60.4746170  41.7009697  31.6489429  61.4447556
  40.1960983  32.8963127  60.5087128  40.0903015  33.2736473  59.4915962
  39.0672302  31.9875050  60.8770027  38.9530945  31.2237015  60.1077957
  39.3470764  31.4476414  61.7816200  38.1287766  32.5172157  61.0407677
  40.1024246  34.0313911  61.3424263  40.9282532  34.0624428  61.8309364
  41.5582733  30.9906712  59.3974953  41.8381042  31.2433300  58.2208977
  41.2236099  29.7107201  59.7727051  40.9270706  29.5384579  60.7226982
  41.3673477  28.4999104  58.8940887  41.8138733  28.8150539  57.9510117
  42.4679375  27.6366043  59.4915657  43.3161926  28.1444435  59.9505424
  42.1251869  27.0793056  60.3633690  43.0244484  26.4654045  58.2159233
  41.9644432  25.6594543  58.1076164  39.9889221  27.7839870  58.6033936
  39.5196304  26.8758049  59.2978287  39.4497185  28.1210442  57.4260178
  40.0921173  28.5718460  56.7902489  38.1452446  27.5891094  57.0269661
  37.5676956  27.5540829  57.9507141  37.6788635  28.5216904  55.8903160
  36.7018280  28.1318684  55.6047668  37.4456596  29.5097485  56.2871284
  38.6293793  28.6662369  54.6418648  39.6641502  28.7381935  54.9767838
  38.4772377  27.7799244  54.0259018  38.2484436  30.1412849  53.7540054
  39.6254158  30.3197403  52.5669136  39.7133789  29.4063187  51.9786682
  39.4547462  31.2607555  52.0439758  40.5558434  30.2892933  53.1339111
  38.1192245  26.1898098  56.4837608  38.9996605  25.7941322  55.7110634
  37.1069145  25.3280888  56.8257523  36.5045319  25.5783577  57.5968590
  36.9175720  24.0293541  56.2914467  37.8314323  23.4517174  56.4303741
  35.7604713  23.2291298  56.9613457  36.0200043  23.0903606  58.0108604
  34.8871346  23.8650703  56.8165550  35.4801865  21.8886890  56.3233986
  34.7241020  21.3080997  56.8519363  35.0828705  22.1311321  55.3377686
  36.6599312  20.9389725  56.1538696  37.3851891  20.6696682  57.0899277
  36.9472198  20.4093971  55.0265770  36.5357475  20.7436180  54.1668739
  37.7215691  19.7650719  55.0995522  36.7403030  24.1785889  54.7601051
  35.7645836  24.8114605  54.2392807  37.4025688  23.3463440  54.0685577
  38.2160759  22.9405632  54.5086136  37.2967148  23.3098965  52.6456528
  37.1935158  24.3169556  52.2415733  38.6080551  22.7610722  52.0932579
  39.4436722  23.3273697  52.5045433  38.7358208  21.7423267  52.4592285
  38.7310753  22.7177925  50.5824585  39.3043022  21.8122559  50.3836823
  37.7819366  22.4255161  50.1332207  39.1280823  24.0193825  49.9209862
  40.0258636  24.0595150  49.0405159  38.4018555  24.9944191  50.0872002
  35.9680557  22.5165291  52.2571564  35.7093773  21.5214005  52.8467255
  35.1224098  22.9570007  51.2918358  35.3064384  23.8921795  50.9576569
  34.0834122  22.1596088  50.7158356  33.6207695  21.6927395  51.5853767
  32.9629974  23.0239906  50.1840744  31.9990826  22.5228806  50.0954552
  32.8975563  23.8693886  50.8690033  33.1668930  23.5995827  48.8013611
  33.9139557  24.3737335  48.9765358  33.6042633  22.9198895  48.0700455
  31.7665882  24.3852158  47.8839912  30.7004871  22.9720249  47.4831543
  31.2414131  22.1324883  47.0464821  30.1810398  22.6135979  48.3718605
  29.9337864  23.1915588  46.7401352  34.6263123  21.1036777  49.7498169
  35.5251503  21.3476467  48.9382439  33.9830360  19.9187336  49.8028717
  33.2426567  19.7544899  50.4699249  34.3728523  18.7209225  49.0789566
  35.4189529  18.5979767  48.7984886  33.9673119  17.5354023  50.0076256
  34.4071274  17.7228413  50.9871826  32.8853683  17.5061417  50.1366272
  34.4377213  16.1289330  49.5498123  34.1057396  15.1627464  50.2947693
  35.2043076  16.0536499  48.5414467  33.5941429  18.6056175  47.7242813
  32.4024315  18.8208218  47.6972466  34.3464355  18.3011856  46.6583366
  35.3307114  18.4330769  46.8424873  33.7943153  18.4697952  45.3333549
  32.7067184  18.5322952  45.3698273  34.2392349  19.8115044  44.7381516
  35.3143539  19.9592381  44.8401222  33.9457664  19.9618301  43.2730560
  32.8819656  20.0028324  43.0390739  34.4327126  20.8227711  42.8150520
  34.2524071  19.0731754  42.7213631  33.5070496  20.9743195  45.5096474
  33.9628067  21.0949497  46.4924164  33.6730499  21.9229031  44.9990273
  32.4410706  20.7515945  45.4629097  34.3598862  17.3384743  44.4634018
  35.5890121  16.9980640  44.5213776  33.4803314  16.8476601  43.6208916
  32.5104904  17.0303288  43.8356895  33.7563286  15.8308439  42.5609283
  34.1290398  14.9280949  43.0449066  32.4411163  15.6137362  41.7182770
  32.2836380  16.5758533  41.2308044  32.7590485  14.6065350  40.6707001
  32.4442940  13.6479225  41.0831261  32.0679550  14.7819719  39.8462524
  33.7489319  14.6480751  40.2162819  31.5096283  15.1521397  42.6032829
  31.3110867  15.9149961  43.1512184  34.8985596  16.3821850  41.6463051
  34.7972374  17.4741821  41.1277504  36.0064507  15.6177206  41.5658035
  36.1040001  14.6906214  41.9544830  37.1967506  16.1463814  40.8591385
  37.8507462  15.2875814  40.7079735  36.9198647  16.5269623  39.8759842
  37.9939537  17.3190422  41.6062241  39.0409355  17.7537937  41.0829887
  37.5822716  17.8476562  42.7717361  36.9198914  17.3226032  43.3246078
  38.3668289  18.8713074  43.4823074  38.4664803  19.7141705  42.7983856
  37.8609543  19.2890606  44.3527527  39.7788811  18.4140358  43.9146233
  40.0505524  17.2125912  44.2707443  40.7391777  19.3360291  43.8102303
  40.4661636  20.2966747  43.6594887  42.0956993  18.9962788  43.9912643
  42.3663902  18.1975536  43.3007126  42.9440727  20.1454773  43.5384102
  42.6631927  20.4749451  42.5380821  42.7365875  20.9661942  44.2250481
  44.4347000  19.8409405  43.3555832  44.7893372  19.5600052  44.3472519
  44.8361511  18.6093426  42.4575653  45.9167328  18.4750538  42.4085617
  44.4891968  17.7225857  42.9880333  44.4754524  18.7338638  41.4365387
  44.9985809  21.1283588  42.7489700  44.5121536  21.5067844  41.8499260
  44.7781105  21.8971596  43.4895363  46.0765839  21.1618576  42.5912285
  42.3955765  18.5254192  45.4513283  42.0547409  19.2057972  46.4136238
  43.0299187  17.3790836  45.5656509  43.3633080  16.9215660  44.7292137
  43.4562950  16.7357578  46.8130379  42.6694374  16.8043060  47.5642052
  43.7385597  15.2385130  46.5397682  44.3672523  15.1364250  45.6552238
  44.2734375  14.8152838  47.3899994  42.4755249  14.4573889  46.2979965
  41.8915405  14.3448544  47.2114525  41.8063698  15.0999012  45.7257156
  42.6340027  13.0508366  45.6750069  43.2133598  13.2154894  44.7665291
  43.0900650  12.3938541  46.4156036  41.2678528  12.5130711  45.3361931
  40.7557373  12.2478523  46.2611237  40.7724342  13.3646450  44.8698425
  41.3615074  11.3061361  44.5293884  41.8250504  11.4621172  43.6457062
  41.8280945  10.5121059  44.9440117  40.4016075  11.0496540  44.3479729
  44.7170563  17.3315086  47.3988228  45.5243378  17.8783016  46.6329613
  44.8903351  17.2401028  48.7264175  44.2711258  16.7133083  49.3257256
  46.0408745  17.7994614  49.4538803  45.6303673  17.6540985  50.4531059
  47.2129593  16.8301792  49.2121658  47.3672943  16.8787918  48.1342430
  48.0978317  17.2754402  49.6669693  47.1984673  15.3613157  49.6779594
  47.2264786  15.3703928  50.7675591  46.2654228  14.9007921  49.3532104
  48.3849373  14.5132055  49.0630188  48.2288971  14.4168310  47.9885559
  49.3521729  14.9638519  49.2854576  48.3715248  13.0778065  49.6794701
  49.2062836  12.4483700  49.3711052  48.1837425  13.2647142  50.7367783
  47.2619896  12.2459717  49.2169800  47.4401169  11.9906769  48.2561493
  47.1806870  11.3996067  49.7621040  46.3954468  12.7632542  49.2572556
  46.2027016  19.3112144  49.2359657  47.3408623  19.7984066  49.2379837
  45.2068329  20.0542812  48.8885574  44.3223495  19.7142563  49.2380981
  45.2059212  21.4778614  48.4878578  46.1583710  21.6940022  48.0038872
  44.0536537  21.7184944  47.4305916  43.9980316  21.0381145  46.5808334
  43.1139526  21.6430836  47.9777527  44.0915756  23.3857536  46.7606087
  42.9565773  23.5651340  46.0790634  45.0360222  22.4087124  49.6812897
  44.1107674  22.2020092  50.5082436  45.7767258  23.5690632  49.7100334
  46.4118996  23.6545429  48.9294281  45.7773056  24.5850983  50.7419586
  44.9336433  24.4480572  51.4183807  47.0974960  24.5687199  51.5189133
  47.9534454  24.4783325  50.8501244  47.2213173  25.9360352  52.3071060
  47.1620140  26.8474178  51.7121582  46.4796104  26.0042973  53.1029129
  48.0574265  26.0608864  52.9951744  47.1761436  23.3672981  52.5007362
  46.8671722  23.5511055  53.5297394  46.4174500  22.6768131  52.1323395
  48.4927559  22.6752701  52.4542847  49.2751770  23.3944149  52.6966782
  48.5415077  21.8807850  53.1989441  48.6357498  22.3792515  51.4150429
  45.5307426  25.8986397  50.0382614  46.2236214  26.1855335  49.0177307
  44.5946121  26.6983204  50.4655342  44.0804367  26.4357929  51.2942696
  44.2207451  28.0484123  49.8201256  44.9376526  28.2526627  49.0248680
  42.8242416  28.0756512  49.1752586  42.1984406  28.1413498  50.0652924
  42.7302437  28.9158726  48.4872971  42.5505142  26.8173199  48.3265533
  43.2238960  26.7195911  47.4750252  42.6457558  25.8597717  48.8385468
  41.2069397  26.9718094  47.6660004  41.2118530  27.9352989  47.1563263
  41.1588631  26.0796471  47.0416336  40.1998367  26.9212112  48.7489014
  40.0546989  26.0370140  49.2149811  39.4854965  27.9579048  49.2294960
  39.5097542  29.1652298  48.8093147  38.8715248  29.7552643  49.3237305
  39.5385208  29.1428146  47.7999725  38.7867279  27.6538792  50.3057137
  37.8853645  28.1091347  50.3254547  38.7589149  26.6806412  50.5742912
  44.4072914  29.2307014  50.7721481  44.3303375  29.0478725  51.9423447
  44.6938820  30.3729725  50.1645164  44.8346176  30.3106899  49.1663094
  44.7723236  31.7172394  50.7839088  44.4184494  31.6246052  51.8106956
  46.1997185  32.3144836  50.8141670  46.5811615  32.1209335  49.8116035
  46.1136780  33.7855225  51.1321297  45.7272301  34.2917328  50.2475319
  45.5373230  34.0040779  52.0311012  47.0865250  34.2678185  51.2273102
  47.0595894  31.5546207  51.9044571  46.5524979  31.3175774  52.8397484
  47.4036751  30.6319218  51.4371986  47.9195213  32.1962051  52.0967712
  43.7133064  32.6632500  50.0873070  43.4832001  32.6522446  48.8882027
  43.0865059  33.5237732  50.9099007  43.1473083  33.2764091  51.8872490
  42.2820168  34.7334709  50.6441269  42.3677025  35.1494675  49.6402779
  40.8036194  34.4048691  50.7755280  40.5127068  33.8207245  49.9024620
  40.5819092  33.7521629  51.6198807  39.9618759  35.6922150  50.9350204
  38.9511642  35.3648529  51.1787338  40.4906311  36.1928520  51.7461281
  39.9262238  36.7491570  49.5375900  40.3783340  38.3195076  50.2679176
  40.9928818  38.3252373  51.1681366  40.9120293  38.8918991  49.5092125
  39.4190445  38.7875023  50.4889374  42.7531548  35.8719368  51.5786514
  42.5299416  35.7818527  52.7938728  43.5413399  36.8614922  51.0805626
  43.5397110  36.9034271  50.0714378  44.0740700  37.9920921  51.8041992
  43.8586044  37.8875999  52.8675690  45.5666885  38.0226135  51.5774193
  46.0068436  37.0275459  51.6422844  45.7294350  38.4029732  50.5689850
  46.2816467  39.0473022  52.5443764  45.9437637  40.0607986  52.3281517
  45.9947395  38.8101616  53.5688515  48.0485535  38.9062805  52.4563255
  48.2066879  39.6933556  50.8804207  49.1184502  40.2905388  50.8931656
  48.3619041  39.0217438  50.0360603  47.3594666  40.3717499  50.7799301
  43.4330482  39.3642159  51.4413643  43.3119659  39.7485199  50.2762184
  43.0696526  40.1028481  52.4624214  43.2446632  39.7839432  53.4046364
  42.4929047  41.3864670  52.2332001  42.2611580  41.4889145  51.1730576
  41.1284180  41.6001549  52.9850998  41.2507858  41.5760422  54.0679398
  40.4014320  42.8462982  52.3573990  40.1767464  42.6495972  51.3091011
  39.5248146  43.0837059  52.9601288  41.1288071  43.6555405  52.4218636
  40.2004166  40.5740128  52.7930527  39.3475952  40.9692345  52.5978508
  43.4605026  42.4572678  52.7046204  43.8833542  42.4839554  53.8788910
  43.8600998  43.3298531  51.8307877  43.4562416  43.2976303  50.9056053
  45.0170250  44.2887878  51.9229012  45.2342682  44.4666405  52.9761238
  46.2759895  43.5776253  51.3997917  46.2370949  42.5920792  51.8637810
  46.4511337  43.5666428  49.8598442  46.7191658  44.5221672  49.4090157
  47.2969933  42.8987579  49.6969147  45.5227470  43.1888924  49.4314728
  47.5058327  44.3631859  51.9106483  48.3580017  43.7972946  51.5342522
  47.5274467  45.3507881  51.4499130  47.5480919  44.4368248  52.9973335
  44.7388039  45.6553421  51.3444595  43.9586067  45.7108459  50.3965530
  45.2938499  46.6935616  51.8821144  45.7267799  46.4706345  52.7669754
  45.3563728  48.0544167  51.3646469  44.3759613  48.0302315  50.8889351
  45.4463539  49.0832977  52.5077248  44.6563721  48.9617653  53.2488441
  46.3681068  48.9532509  53.0747910  45.2966843  50.4985199  52.0626907
  46.2880363  50.8949471  51.8432236  44.7928619  50.4355927  51.0981674
  44.6235847  51.4403992  53.0006752  43.5932274  52.0022278  52.7272453
  45.2161865  51.5802231  54.1868706  44.6844139  52.0568428  54.9011192
  46.0761261  51.0918427  54.3920212  46.5268211  48.1795120  50.2570419
  47.6947708  47.8751450  50.5847282  46.2707291  48.6263962  49.0112762
  45.3480492  48.9093437  48.7134438  47.2683449  48.6643982  47.8786049
  48.2104187  48.9509430  48.3460464  47.4170570  47.2642899  47.2780342
  48.1103210  46.6753502  47.8785629  46.1339226  46.4338264  47.0883141
  45.5141144  46.5088577  47.9818001  45.5630302  46.5734787  46.1703377
  46.5494080  45.4261284  47.0840340  48.1057587  47.2412109  46.0525627
  48.6033821  46.4206467  46.0779419  46.9664116  49.7660065  46.9129257
  45.8041763  50.1492424  46.8075104  47.9791870  50.1842155  46.1352119
  48.9164124  49.8347588  46.2751732  47.9022598  51.1155396  45.0393028
  46.9958572  51.7161522  45.1154480  49.1121254  52.0871239  45.1672249
  48.8569183  52.8808212  44.4650764  49.0958710  52.4513588  46.1944466
  50.4705658  51.5625916  44.8549843  51.3889160  52.3580818  44.6264839
  50.6215515  50.3356895  44.8055305  47.8070145  50.4538422  43.6378441
  47.6553535  51.1054840  42.6573219  47.7593727  49.1500282  43.5925255
  47.8848686  48.5752563  44.4134941  47.7475357  48.3820381  42.2582932
  48.1771393  48.9658165  41.4442024  48.4718819  47.0000153  42.3666382
  47.8596039  46.4575615  43.0870247  48.5804024  46.2717896  41.0408859
  49.0699348  46.9720688  40.3640823  49.2040024  45.3841743  41.1474724
  47.6420021  45.8705330  40.6581268  49.9628563  47.2471504  42.8831635
  50.4217834  46.2697563  43.0321236  50.5171700  47.8883514  42.1978188
  49.9352989  47.7882118  43.8289986  46.2455368  48.2264214  41.8123589
  45.3368034  47.9777527  42.6299095  45.9952812  48.3388863  40.4761314
  46.8786469  48.8092308  39.4282036  47.6057701  48.0304642  39.1981659
  47.5196342  49.6337166  39.7403755  45.9859352  49.2986870  38.2332420
  46.4828796  49.2581253  37.2639618  45.7585869  50.3488197  38.4166260
  44.8133087  48.3762703  38.2805405  45.0781250  47.4369621  37.7950821
  43.9335899  48.7939987  37.7909470  44.7030487  48.1670151  39.8374557
  44.0434532  48.9347839  40.2418938  44.1736069  46.7328835  39.9812737
  44.9889832  45.8144150  39.9082642  42.8748589  46.5406990  40.3090172
  42.3139038  47.3282776  40.6008224  42.3833389  45.1941414  40.7130508
  42.8412437  45.0161324  41.6860542  40.8665428  45.3079872  40.9964790
  40.7832489  46.0673256  41.7740211  40.3424492  45.6479340  40.1032486
  40.0286942  44.1079483  41.5688629  40.1306572  43.2292824  40.9319534
  40.4320068  43.8343658  42.5438461  38.5933800  44.5600281  41.7039566
  38.2385368  45.6795731  41.3510284  37.6136894  43.7498741  42.1448441
  37.8479042  42.7681427  42.1829643  36.7040863  44.1319351  42.3610649
  42.7189178  43.9613876  39.7775192  42.8095436  42.8206100  40.2698135
  42.7521782  44.1898117  38.4814682  42.5940094  45.1409874  38.1808968
  43.0646133  43.2857742  37.3546600  42.5307388  42.3447990  37.4875145
  42.5455399  43.8894157  36.0488586  42.7731209  43.2057457  35.2309952
  41.4580345  43.8510666  35.9858894  43.0636368  45.2716942  35.6459961
  43.0699196  46.1561584  36.5218735  43.5264702  45.4373055  34.5416183
  44.5413589  42.9215927  37.2621078  44.9419899  41.8509636  36.8906288
  45.3713646  43.9079628  37.6900368  45.0129089  44.7552681  38.1067963
  46.8560753  43.8825798  37.7209396  47.2076263  43.3338928  36.8471718
  47.3918266  45.3318787  37.4758606  47.0634537  45.9067039  38.3418007
  48.4799805  45.3693352  37.4246674  46.7735138  45.9938660  36.2315483
  45.6882935  45.9825974  36.3328552  47.2445030  46.9527817  36.0153275
  47.2035942  45.2317581  34.9659843  48.2709465  44.8277550  34.6368408
  46.2480965  44.9504700  34.1102791  45.2927246  45.2574577  34.2248650
  46.4742432  44.3998260  33.2943459  47.4314003  43.3113823  39.0072136
  48.6822243  43.1887550  39.0985527  46.5406456  42.8956261  39.8921852
  45.5712013  43.1635780  39.8000717  46.7892532  42.0225143  41.0679474
  47.5724602  42.4787979  41.6733398  45.4644547  41.9567223  41.9324074
  44.6382637  41.5926628  41.3216972  45.5736465  40.9846611  43.0791969
  45.6643028  39.9620209  42.7130127  46.3022232  41.2814445  43.8336487
  44.6010628  40.8944168  43.5629616  45.1116028  43.3227425  42.4632339
  45.9335861  43.7958755  43.0004387  44.7846870  43.9340019  41.6220512
  43.9630165  43.2749710  43.4312820  44.2139816  42.8287888  44.3935890
  43.6293755  44.2850189  43.6691628  43.1913643  42.7129250  42.9052010
  47.2887955  40.6210289  40.6605988  46.5000114  39.8128929  40.0674629
  48.4860382  40.2291222  41.0758018  49.0343056  40.9582901  41.5091858
  49.0560570  38.9291382  40.9192009  48.6018791  38.4621162  40.0452957
  50.5875893  38.8633194  40.7778549  51.0913506  39.2800980  41.6499939
  50.9122696  37.8244171  40.7198448  51.0009232  39.6653709  39.5776672
  50.3509293  39.4619370  38.7266541  50.8678932  40.7093620  39.8613777
  52.4733200  39.3155403  39.3080254  53.1277466  39.7869263  40.0412521
  52.5124931  38.2304039  39.4031258  52.8167305  39.6501083  37.9199944
  52.0418663  40.0152931  37.3848953  53.9767647  39.5577621  37.2317924
  55.1498833  39.3537216  37.8054886  55.9440880  39.4850693  37.1954956
  55.1258125  39.5950737  38.7859306  54.0622368  39.7317810  35.9941444
  53.2308731  39.5932198  35.4376068  55.0021591  39.7234879  35.6245842
  48.5204430  37.9383850  41.9693642  48.9836311  37.8778114  43.1003227
  47.5665932  37.1440239  41.5789909  47.3083458  37.2808075  40.6121941
  47.1866951  35.9831390  42.3407936  47.1600761  36.1213951  43.4216614
  45.7740402  35.7039375  41.8696632  45.7540894  35.4856873  40.8019257
  45.3796158  34.8530884  42.4251671  44.8046684  36.8448486  42.0624046
  44.2802124  37.1628990  43.2386971  43.4269104  38.1506729  42.9034538
  42.6321869  38.4851990  43.5537758  43.5025597  38.5306282  41.6198730
  42.8729134  39.1443214  41.1228561  44.3250809  37.6421890  41.0042915
  44.5994873  37.6286278  39.9598198  48.1085091  34.8190308  41.9564934
  48.4382553  34.6658554  40.8182220  48.5382004  34.0349121  42.9731293
  48.2571678  34.2588158  43.9170494  49.7206993  33.1330109  42.8095856
  50.1240959  33.0658836  41.7992058  50.9000282  33.6100845  43.7336884
  50.5913696  33.4973717  44.7729797  52.0686188  32.5350571  43.5116501
  51.8124390  31.5370655  43.8672905  52.3716698  32.3955040  42.4739647
  52.9650688  32.8223763  44.0611267  51.4436913  34.9908447  43.2437401
  50.7154884  35.7881851  43.3923035  52.4116554  35.2420311  43.6773834
  51.6114349  34.8895988  42.1714935  49.3265114  31.7546310  43.2556610
  49.0169258  31.6035061  44.4347839  49.3713341  30.7220726  42.3711090
  49.5354729  30.9061642  41.3916855  48.9878197  29.3358440  42.5083885
  48.6293030  29.1671791  43.5238304  47.7752991  29.1346760  41.5217323
  48.0790634  29.6489010  40.6099205  47.6616249  28.0626888  41.3604088
  46.4100533  29.7236900  41.9193840  45.4089775  28.8534546  42.3233452
  45.5407104  27.7897968  42.4563141  44.0758705  29.2076302  42.6990013
  43.3356209  28.4504528  42.9114075  43.8165588  30.5868549  42.7807922
  42.5808601  31.0588551  43.1902580  42.2343369  30.3884640  43.7836342
  44.7564545  31.5624256  42.2806625  44.4613914  32.6013336  42.2793159
  46.0116196  31.0562592  41.8619232  46.6606140  31.8072758  41.4362717
  50.2089500  28.4505215  42.1618805  50.7983398  28.6070824  41.0968437
  50.6120834  27.6164970  43.0639572  50.1381340  27.6330814  43.9556961
  51.8696594  26.7739010  42.9575768  52.3044090  26.8305073  41.9596329
  52.8275833  27.2348461  44.0866394  52.4317207  26.8201370  45.0136833
  53.7825317  26.7111950  44.0423698  53.2553558  28.7357464  44.0810471
  52.3698311  29.3701973  44.0434036  53.9043655  29.1471443  45.4093094
  54.7988167  28.5849400  45.6775932  54.2566338  30.1770458  45.3517952
  53.2778473  29.0186424  46.2919540  54.1014214  29.2362614  42.9376030
  54.1811714  30.3216438  42.9983673  55.1271667  28.8727036  42.9989967
  53.6735764  29.0485058  41.9528198  51.5021706  25.2911301  43.0020981
  50.3892021  24.7913208  43.1955414  52.5407410  24.4847927  42.7468605
  53.4068451  24.9599781  42.5367126  52.6203041  22.9789333  42.7274055
  53.5000687  22.7717152  42.1181641  52.7203407  22.3226032  44.1023750
  51.7568398  22.4089050  44.6046906  52.9069405  21.2629814  43.9277763
  53.8218613  22.9566288  45.0874138  53.9155045  24.0282116  44.9112167
  53.5568504  22.9218483  46.1441383  55.1303596  22.1398411  44.8868904
  55.1553764  20.9254570  44.7021713  56.1781387  22.8220558  44.9809799
  51.4849358  22.4389076  41.7953033  51.3374329  22.9723778  40.7114487
  50.7712059  21.3838348  42.1492310  50.6663704  21.1257706  43.1200638
  49.6837463  20.8417606  41.2805824  50.0167542  20.6158314  40.2675858
  49.0476151  19.5503960  41.7658157  48.7049637  19.7332973  42.7842674
  48.1953354  19.2357197  41.1635704  49.9973450  18.3431835  41.8377762
  50.7545433  18.5204372  42.6015358  49.4135742  17.4764996  42.1478882
  50.6930389  17.9852066  40.5338020  51.1534004  18.8080959  39.9869728
  51.4020119  17.1782894  40.7191238  49.6135597  17.4262161  39.7041550
  49.3352394  16.3949146  39.9210777  48.7008362  18.0200768  39.7528267
  50.0664062  17.3734970  38.2864838  50.8402824  16.7269669  38.2297440
  49.3916168  17.0345325  37.6157608  50.4381065  18.2602596  37.9773102
  48.5518951  21.8419476  41.0981560  47.7667809  21.7295132  40.1083069
  48.3915939  22.8170853  41.9469795  49.0637398  22.8309212  42.7007217
  47.3731575  23.8709965  42.0341873  46.4159241  23.3590050  41.9358482
  47.3715973  24.5402260  43.4525833  47.9816666  25.4435062  43.4487762
  46.3511925  24.8522682  43.6750717  47.6983185  23.8755589  44.2523155
  47.4965515  24.8860378  40.9242897  46.4999428  25.5667572  40.6312828
  48.6690025  25.1098919  40.3321648  49.4890137  24.6707325  40.7256317
  48.9144058  25.9714298  39.1394653  48.7544289  26.9820404  39.5152092
  50.3767776  25.7347145  38.6547470  51.1027756  25.8941250  39.4520035
  50.6523018  24.3749466  37.9801521  50.1036301  24.2693520  37.0442505
  51.6922798  24.4149170  37.6561928  50.3977051  23.5470333  38.6418381
  50.8125916  26.8103542  37.6613770  50.5932693  27.7583466  38.1526070
  51.8549767  26.6587315  37.3811150  50.3065948  26.7775898  36.6964951
  47.9052582  25.9087582  37.9884224  47.5706291  26.9485607  37.3242264
  47.2608070  24.6900291  37.8075790  47.4609680  24.0448933  38.5584717
  46.0986824  24.4175014  36.9022598  46.4310837  24.7139740  35.9074173
  45.9170418  22.8631134  36.9270172  46.9030113  22.4024048  36.8660622
  45.1727219  22.3599491  38.2331734  44.1009941  22.5557022  38.1988068
  45.3639908  21.2878609  38.1868706  45.6579361  22.7581482  39.1243019
  44.9742432  22.5098152  35.6915283  44.7821350  21.4374905  35.7278595
  44.0680428  23.1127930  35.7491264  45.6036263  22.7856598  34.8454285
  44.7924881  25.2192879  37.1920547  44.0484695  25.4938507  36.2987099
  44.4558563  25.5808678  38.4235077  45.1426659  25.4414082  39.1507950
  43.3039665  26.3202000  38.9656296  42.3956413  25.8777027  38.5566826
  43.2764053  26.1834278  40.4716682  44.2301216  26.5689144  40.8321228
  42.3799438  26.6988850  40.8162880  43.0845604  24.7845898  41.0124512
  43.7648506  24.0639133  40.5586586  43.3177376  24.5505409  42.5298653
  44.3717232  24.3546791  42.7270088  43.0180817  25.4293728  43.1007919
  42.7908325  23.6188755  42.7359505  41.6831551  24.3368340  40.7149658
  41.6837082  23.2808456  40.9851074  40.8900948  24.7964001  41.3048363
  41.5245857  24.3479691  39.6366196  43.2396851  27.8084984  38.5339241
  42.6406097  28.6687202  39.1991081  43.8210449  28.1354599  37.3370323
  44.1178093  27.3596210  36.7624855  44.1500740  29.4466648  36.8440742
  44.6665039  29.8877106  37.6966476  45.1464157  29.4159641  35.6843796
  45.3443794  30.4527950  35.4125481  46.0819778  29.0886898  36.1379395
  44.8809853  28.4853630  34.5394630  44.7757835  27.4388466  34.8255310
  44.0552673  28.8837872  33.9499283  45.9849625  28.5150967  33.5095673
  45.5754204  27.8808479  32.7233696  46.2202873  29.4766560  33.0533562
  47.2864494  27.9435253  33.9680328  47.8186111  28.7302856  34.3114166
  47.7540092  26.7640839  33.7995338  47.2546234  25.7129841  33.2372284
  46.4390602  25.8303337  32.6531181  47.9159737  24.9632492  33.0936394
  48.9950104  26.6510887  34.1889725  49.4297295  27.4396496  34.6464615
  49.4860535  25.7890587  33.9995422  42.8806763  30.2762985  36.5403366
  42.1566658  29.8666725  35.6559448  42.6450500  31.4024506  37.2024689
  43.4949417  32.0377502  38.1577911  44.3758316  32.4637794  37.6775513
  43.7080498  31.3742371  38.9959030  42.6794548  33.1836700  38.8568993
  43.2967377  33.9636040  39.3027306  41.9612160  32.8511620  39.6063499
  41.8072281  33.6570396  37.6385498  42.5706635  34.2695808  37.1589012
  40.9441833  34.1862373  38.0425377  41.6127281  32.3865547  36.8728027
  40.7284241  31.8438129  37.2067833  41.4439697  32.6984863  35.3956757
  40.3443031  32.9856758  35.0449905  42.5237999  32.7226639  34.5691643
  43.3832893  32.4547424  35.0269775  42.6120911  32.8703194  33.0755310
  43.5921326  33.2274780  32.7592201  42.2834587  31.5850430  32.3255997
  42.8801041  30.8073101  32.8022995  41.2192497  31.3771152  32.4366074
  42.6723633  31.6866207  30.8507786  42.3974533  30.7716389  30.0269566
  43.4732361  32.5350800  30.4656010  41.6239281  33.9736557  32.6223679
  40.7147408  33.7160149  31.8721237  41.8356323  35.1772919  33.1598396
  42.6404724  35.2148666  33.7688713  41.0234718  36.3993301  33.0216751
  39.9942474  36.1559563  33.2854233  41.5861435  37.5038986  34.0126114
  42.5476570  37.8487892  33.6322899  40.9169273  38.3630905  34.0578003
  41.8644028  37.0004082  35.4242859  42.5712738  36.1721535  35.4735565
  42.4610138  38.0539360  36.3193970  41.7572250  38.8722496  36.4715042
  42.6797447  37.7475739  37.3423386  43.4077415  38.4354630  35.9369850
  40.4787292  36.5678101  36.0886993  39.7244873  37.3543587  36.1123543
  40.5910645  36.2855301  37.1355057  40.0291939  35.7149048  35.5801888
  41.0224838  36.8569221  31.5246468  41.6619911  37.9018288  31.1913509
  40.2755966  36.0922508  30.7410088  39.9919815  35.2342567  31.1921291
  40.0417023  36.4500618  29.3830032  40.8843193  36.9928741  28.9546890
  39.7998085  35.1912155  28.5915947  40.5757484  34.4974518  28.9151783
  38.8112144  34.7996597  28.8313103  39.9313850  35.3766785  27.1843872
  40.8849487  35.4833107  27.2151604  38.9040031  37.5112228  29.2983913
  38.0157166  37.4750252  30.1109219  39.0431862  38.4065285  28.3237190
  39.8040314  38.3428421  27.6625404  38.0970764  39.5613098  28.1235466
  37.9524612  39.9862251  29.1168423  38.7878113  40.4880104  27.1208019
  39.2195740  39.7939339  26.3997326  38.1035194  41.1803589  26.6303902
  39.8535728  41.2661438  27.8440208  40.4381447  40.6823158  28.5550213
  40.8038330  42.0365601  26.9268017  41.5234566  42.6609917  27.4562721
  40.1653824  42.7061996  26.3505497  41.2868690  41.3964882  26.1884956
  39.0647583  42.4176598  28.5933704  39.8286743  43.1001701  28.9658146
  38.4202881  42.9290543  27.8783665  38.5480957  42.0299072  29.4713268
  36.7503357  39.0374031  27.6691341  35.7472382  39.7352104  27.9124565
  36.6509972  37.7523994  27.1685162  37.4662819  37.1788483  27.0058975
  35.3792534  37.1846542  26.6721344  35.1539307  37.8238983  25.8184986
  35.5710564  35.8207550  26.0672073  34.6641960  35.5479202  25.5275173
  36.7127953  35.7740059  25.0313759  36.6557617  34.8246765  24.4988079
  36.6302338  36.5733604  24.2949562  37.6923370  35.8334808  25.5057869
  35.9347000  34.8953209  27.0600395  36.0482750  34.0025597  26.7258606
  34.2140541  37.1672516  27.6152458  32.9872208  37.2649689  27.2891693
  34.5242233  37.0386620  28.9226532  35.5024300  37.0780411  29.1709747
  33.5869293  37.1364288  30.0076504  32.7315598  36.5730667  29.6347332
  34.1952286  36.5148964  31.2529278  34.8204269  37.2728920  31.7248096
  33.3863106  36.3849335  31.9718609  34.7971420  35.1980972  31.0161610
  34.2137947  34.5821266  30.3317738  35.7797928  35.2835083  30.5522652
  34.9475403  34.4314041  32.3695488  35.4389534  35.1249237  33.0519257
  33.9567680  34.1878777  32.7531738  35.7505074  33.0802383  32.2411079
  36.7486382  33.2571144  31.8404140  35.9652214  32.7210045  33.2475586
  34.9656563  32.0404854  31.5341396  35.4122276  31.1384964  31.6183319
  34.0006638  32.0231133  31.8317795  34.9368324  32.2063217  30.5382633
  33.1086769  38.5688705  30.4293327  32.0900536  38.5813370  31.1098328
  33.7023659  39.6600571  29.9419308  34.5363960  39.5946846  29.3760548
  32.9692726  40.8895988  30.0199051  32.5997391  40.9283485  31.0446224
  34.0803337  41.9822960  29.7736435  34.5253487  41.7441368  28.8075466
  33.5257530  42.9181252  29.7045326  35.1975746  42.0500412  30.8074837
  35.1213722  41.3758049  31.8092079  36.3200302  42.8118935  30.7505493
  36.3909988  43.5556412  30.0709152  36.9034271  42.7998657  31.5749321
  31.8489723  41.0740051  28.9524803  31.3264198  42.1978264  28.8640194
  31.5314941  40.0376740  28.1407890  32.1217422  39.2182045  28.1540508
  30.4167175  40.1038361  27.2500153  30.3902493  41.0837059  26.7733059
  30.4939537  39.1470184  26.0171833  29.5620689  39.2366333  25.4589176
  31.7287064  39.4627113  25.1900940  31.6504498  40.4868698  24.8252964
  32.5209465  39.4029121  25.9363384  31.8505898  38.7079697  24.4131699
  30.6080055  37.8209610  26.5054550  31.5310764  37.7030334  26.7413235
  29.0854435  39.9709091  28.0482407  29.0461159  39.5348587  29.1868534
  27.9503613  40.3831635  27.4672241  27.9795303  40.9300842  26.6186199
  26.6378593  40.3852463  28.1843452  26.8942604  40.5956192  29.2226639
  25.7333145  41.5640526  27.8957348  25.3356819  41.5238686  26.8816471
  24.8316517  41.5592842  28.5081768  26.3771038  42.8854904  28.0376472
  27.2029057  42.8219681  27.3290443  25.8496456  43.7029991  27.5461502
  26.8999367  43.2744675  29.4273415  27.6957741  44.2114258  29.4881191
  26.3292618  42.7390862  30.4399242  25.8297920  39.0673599  28.0951805
  25.8820057  38.4673538  26.9944019  25.2172260  38.6438675  29.1894112
  25.2556858  39.2150879  30.0214748  24.3572483  37.4472275  29.3430405
  24.8323479  36.7056274  28.7008476  24.3599949  37.0920296  30.8469963
  24.0778275  37.9575691  31.4464378  23.5967770  36.3138313  30.8450890
  25.6529140  36.4296532  31.4200459  26.4676628  37.1535378  31.4365253
  25.2757587  36.0577927  32.8569565  24.8319397  36.9965744  33.1883583
  24.6048756  35.1989059  32.8390274  26.2060757  35.8942146  33.4008751
  26.1528225  35.2803345  30.5322971  25.2416439  34.8958511  30.0740032
  26.7844887  35.5609512  29.6894722  26.7639217  34.6886673  31.2139015
  22.9336033  37.6464233  28.7948761  22.4875126  36.9227295  27.8470249
  22.2081261  38.5096474  29.4202805  39.5803261  56.4004784  57.6548882
  39.8291512  57.3131180  58.0088387  40.2527580  56.1227989  56.9542885
  38.6517029  56.3884430  57.2578850  39.8032608  55.4996414  58.8012733
  40.7751350  55.6335945  59.2762680  38.6410103  55.6513405  59.8138351
  38.2989349  56.6862297  59.8233833  37.7946129  55.0284004  59.5245934
  39.1779442  55.1893578  61.1362801  39.8494186  54.3391418  61.0164719
  39.8401489  55.9282227  61.5875664  38.1686287  54.6306496  62.4794426
  36.9533501  55.9683113  62.7411156  36.1924248  55.9476509  61.9609451
  36.5791702  55.7631836  63.7441177  37.5211754  56.8909988  62.8607941
  39.8702850  54.0277367  58.3309097  38.8673630  53.4497604  57.8227158
  40.9995537  53.3446960  58.4339561  41.5669327  53.8560562  59.0947800
  41.4147835  52.0048523  58.0078506  41.2977600  52.0480194  56.9250107
  42.8401604  51.8084793  58.4850616  43.4598732  52.6245613  58.1134834
  42.7671204  51.8737907  59.5706482  43.4312553  50.4416618  58.1466637
  44.3921776  50.3303452  58.6490021  42.8563232  49.5749779  58.4728813
  43.5706444  50.0270615  56.3398857  44.2515678  48.3226585  56.4423485
  43.8597870  47.8980026  57.3666191  43.9676361  47.7402344  55.5658417
  45.3313751  48.3452301  56.5893364  40.4429054  50.8558464  58.5272141
  40.0322227  50.8170738  59.6825638  40.1303329  49.8520432  57.7164268
  40.6123810  49.7598114  56.8336906  39.4692459  48.6297455  58.1751213
  38.8985023  48.8525124  59.0766373  38.3626289  48.0741234  57.2085495
  38.0891533  47.0695152  57.5311584  37.1933441  49.0081596  57.2616959
  36.3989296  48.8084030  56.5425911  36.8059158  48.9371872  58.2780418
  37.4909554  50.0469475  57.1186943  38.9246101  47.8947601  55.8335915
  39.0086479  48.8941040  55.4065666  39.9728928  47.5966721  55.8523674
  38.0603027  47.0018997  54.9493179  38.1272697  46.0435486  55.4642677
  37.0369225  47.3685455  54.8695908  38.5351524  46.8751602  53.9764023
  40.4288788  47.5166512  58.6544418  41.4940453  47.2522964  58.1450882
  40.0623169  46.8430710  59.8008461  39.1734047  46.9693336  60.2634430
  41.0385437  45.8643036  60.3678970  41.6310654  45.2896042  59.6560402
  41.9040794  46.6690979  61.3818436  41.2764130  47.1927071  62.1029320
  42.4291878  45.9386101  61.9972687  42.8817406  47.6008224  60.6756935
  43.3931885  47.0951385  59.8566628  42.3561935  48.4869804  60.3198547
  44.1055489  48.0917397  61.5373993  43.8390846  48.7768631  62.3422012
  44.6896629  47.3482666  62.0797653  45.0344658  48.8162613  60.6978569
  45.0758820  49.7962799  60.9385796  45.9183197  48.3891945  59.8356934
  46.1415138  47.2000656  59.3601494  45.6922836  46.3487778  59.6660957
  46.7299690  47.1340904  58.5419388  46.8219490  49.2433395  59.2818413
  47.4070168  48.8372536  58.5656738  46.7767830  50.2475395  59.3800316
  40.2842293  44.7582321  61.0979080  39.0841942  44.8551521  61.3489723
  40.9270134  43.6118698  61.2885208  41.8996468  43.5676804  61.0199547
  40.2312088  42.4367142  61.7359695  39.1502724  42.5675621  61.6853867
  40.3795815  41.5961952  61.0580215  40.7283630  42.1116180  63.1606674
  41.8958168  42.3404274  63.5703354  39.7361832  41.6335030  63.9485054
  38.8478203  41.5556107  63.4743309  39.8445206  41.3231049  65.4100266
  40.8710175  41.5071144  65.7271118  38.9644585  42.2758560  66.2954712
  37.8989487  42.0852013  66.1672592  39.2479057  42.0464020  67.8214188
  39.1277428  41.0017128  68.1082458  40.2592125  42.3930817  68.0339661
  38.5172844  42.6690598  68.3377380  39.1689301  43.8718948  66.0550690
  40.1996994  44.0889397  66.3352585  39.1418457  43.9813499  64.9709167
  38.2423935  44.8638000  66.6677094  37.1935310  44.7094994  66.4143524
  38.3410950  44.8179474  67.7522659  38.5604172  45.8340034  66.2860489
  39.3484535  39.8664589  65.7459030  38.3343239  39.4244652  65.2533112
  40.2585182  39.1345901  66.4502487  41.1365089  39.5252457  66.7610779
  40.0702171  37.6249046  66.5267334  39.3692665  37.3612061  65.7347488
  41.3645325  36.8458138  66.1840668  42.2303047  37.3148880  66.6515198
  41.3097305  35.8425446  66.6066284  41.5793686  36.7132225  64.7041245
  41.6512184  37.7148094  64.2801361  42.5385895  36.2489815  64.4750443
  40.4132118  35.9114876  64.0413666  39.6059647  36.5302200  63.6494179
  40.8714714  35.4326706  63.1760178  39.8634300  34.7483788  64.8090363
  38.9155655  34.9332581  65.1047974  40.5164528  33.6786118  65.2541885
  41.7260475  33.4113083  64.9485474  42.0298080  32.5688171  65.4154892
  42.3322716  33.9531136  64.3493500  39.8650970  32.7414398  65.9276810
  40.3950729  31.9877853  66.3414764  38.9014282  32.8556862  66.2076645
  39.5154991  37.2542648  67.9303055  39.4359283  38.1207123  68.8340225
  39.1831131  35.9688568  68.1679611  39.1359825  35.3574867  67.3654022
  38.8688202  35.4715538  69.4665375  39.8414040  35.3555260  69.9447861
  38.2488365  36.1774025  70.0192642  38.2065353  34.1290970  69.4507370
  37.6899834  33.7597961  68.4127426  38.1870651  33.3087692  70.5343781
  38.7255516  33.7102890  71.2886429  37.7038040  31.9376717  70.6936417
  36.7238350  31.7890892  70.2401123  38.6980286  31.0131207  70.0566330
  38.1979561  30.0461636  70.0016861  38.9835167  31.3564625  69.0622940
  39.5927544  30.9963360  70.6789474  37.4711342  31.4774437  72.1593857
  38.0203400  32.0045891  73.1293716  36.6130028  30.4699707  72.3167496
  36.2189331  30.1135521  71.4578094  36.1218987  29.8592453  73.5418625
  36.9780045  29.9021530  74.2151794  34.9051781  30.6538086  74.1386108
  35.2487373  31.6773071  74.2886734  33.6833954  30.5147724  73.2111740
  33.1395569  29.6043053  73.4629364  33.0630150  31.3923512  73.3930511
  34.0219383  30.3891354  72.1827240  34.4719620  30.1493034  75.4324646
  33.8177719  30.7564106  75.7860947  35.7760925  28.3470306  73.3853989
  35.8932076  27.8581276  72.3003769  35.3447990  27.5923958  74.3864746
  35.5229187  27.9379368  75.3186646  35.0161972  26.1753712  74.3150101
  34.6571350  25.9426422  73.3125076  36.1646652  25.2699966  74.7820129
  35.6559715  24.3177319  74.6319427  37.4212456  25.2425938  73.9131851
  37.8534050  26.2300720  73.7512589  38.2147522  24.6284256  74.3389130
  37.0793610  24.8810215  72.9434052  36.5233727  25.6481876  76.1036453
  35.8478966  25.4084358  76.7422791  33.8105011  25.8125229  75.2452698
  33.5916290  26.4242306  76.2358704  33.0072136  24.8054161  74.8098373
  33.2963943  24.2665977  74.0060043  32.0756302  24.1719170  75.7293625
  31.9944553  24.6651554  76.6979828  30.6908760  24.2507191  75.0362091
  30.1110725  23.8478413  75.8666382  30.1143646  25.7003193  74.8537292
  30.7135963  26.2728043  74.1457214  29.0995655  25.6616192  74.4577713
  30.1301537  26.2643452  75.7863235  30.5574055  23.4627533  73.7375336
  29.7007160  23.8268299  73.1704025  31.3907795  23.7014923  73.0767822
  30.5373440  22.3787155  73.8496170  32.5169220  22.7142372  76.0138474
  33.2548332  22.0847092  75.2529602  32.0222054  22.1801319  77.1333313
  31.2526207  22.6858387  77.5481796  32.0054703  20.7974300  77.4135056
  32.8762970  20.3316803  76.9521637  32.1034889  20.6270466  78.8949432
  31.3039055  21.1384125  79.4309235  32.0306816  19.5532150  79.0672760
  33.4549065  21.1028004  79.4588013  33.5576172  22.1819458  79.3448105
  33.4523468  20.8868523  80.5271988  34.7585182  20.5794506  78.7037506
  34.7611122  19.4320641  78.1935959  35.7207222  21.3609428  78.4809799
  30.8492432  19.9995155  76.7354584  31.0339909  18.8069592  76.4020767
  29.6913490  20.6667976  76.5397949  29.5844364  21.6039600  76.9008942
  28.5355301  20.1551914  75.7967529  28.7901363  19.2022552  75.3328705
  27.4091644  19.8135872  76.8293228  26.4867001  19.5929031  76.2922440
  27.5835838  18.8913803  77.3835907  27.0784588  20.9308567  77.8156891
  27.9277077  21.1299934  78.4693069  26.6689396  21.7659950  77.2474060
  25.9523754  20.5215168  78.7625198  25.0285740  20.3038063  78.2265244
  26.1338043  19.5390015  79.1982269  25.7195854  21.5347118  79.8038940
  25.0964546  22.2760506  79.5171432  26.3262062  21.5298748  80.9683914
  27.2257004  20.6834641  81.3448563  27.6421700  19.9945583  80.7348862
  27.7620602  20.9683456  82.1518631  26.0329018  22.5067825  81.8230362
  25.3805904  23.2408447  81.5869370  26.3479290  22.3107433  82.7624130
  27.9616718  21.0082016  74.6953354  27.7222824  22.2155190  74.7878113
  27.6232319  20.3822842  73.6024857  27.9305973  19.4212799  73.5566559
  27.0229301  20.9330025  72.3569794  27.6064777  21.8098297  72.0763474
  27.2846622  20.0103512  71.1230164  28.3493252  20.1978474  70.9835968
  27.0749321  18.9709873  71.3756866  26.4623299  20.5105839  69.9198532
  26.3945332  21.7146568  69.6716156  25.9959202  19.6264572  69.1997375
  25.5002403  21.2714138  72.5733109  24.6185894  20.4154072  72.3723145
  25.1736469  22.5138283  73.0221558  25.9340954  23.1706047  73.1244431
  23.8172035  23.0009499  73.3010483  23.1669159  22.5415821  72.5565872
  23.3638306  22.4257221  74.6625900  23.5869522  21.3588028  74.6626892
  24.1371174  22.9344807  75.8582230  25.1834145  22.6888866  75.6764297
  24.2370033  24.0176754  75.7888336  23.6618557  22.4873829  76.7313309
  22.0219898  22.6570892  74.8843460  21.5359974  21.8812008  74.5955353
  23.5723553  24.5312920  73.1976471  24.4045467  25.3630428  73.5587997
  22.3122635  24.9238720  72.8317719  21.5820084  24.2383957  72.7015839
  21.9343681  26.3785038  72.8695679  22.5799713  26.9576511  72.2093506
  20.4302807  26.3482933  72.4167557  20.3418579  25.7345638  71.5203094
  19.8004150  26.0106812  73.2397919  19.9231701  27.7248535  72.0139389
  20.1628799  28.3586159  72.8677444  20.5224800  28.0435638  71.1610870
  18.4415550  27.8596020  71.7149429  17.5114937  27.2733269  72.3388290
  18.0680256  28.6232643  70.7536850  22.0525036  27.0159588  74.2947998
  22.4073029  28.1594753  74.3510590  21.8399048  26.2883682  75.3967896
  21.6066322  25.3195114  75.2324677  21.8392410  26.7653446  76.7920151
  21.1062965  27.5676327  76.8770370  21.2903614  25.6417446  77.6806717
  22.0872555  24.9638424  77.9864578  21.1218739  26.1396008  78.6355820
  19.9725246  24.8678894  77.2927933  20.1340618  24.2810917  76.3885422
  19.6456909  24.2475452  78.1273346  18.8860302  25.8981342  77.0818329
  18.1823483  25.8429985  76.0466690  18.8056812  26.8589840  77.8889923
  23.2129612  27.2937603  77.2830811  23.2812939  28.1432285  78.1597366
  24.2779026  26.7731705  76.6368103  24.0574741  26.0360203  75.9825058
  25.6656170  27.2760448  76.8389435  25.6760731  27.9482841  77.6968994
  26.5099716  26.0420609  77.1142120  26.2082977  25.2702885  76.4060745
  27.5142975  26.3920212  76.8755264  26.3625259  25.6793938  78.5933838
  25.4601135  26.0447044  79.0835876  26.3544865  24.5894527  78.5853195
  27.5801392  26.0041218  79.4500046  27.6208096  27.2114964  79.8259583
  28.4574318  25.1605339  79.8253708  26.2518311  28.0506516  75.6474609
  26.7937126  29.1494408  75.7983627  26.1899509  27.4897003  74.4484329
  25.8509045  26.5396366  74.3981628  26.9022636  28.0032291  73.2550354
  27.9715214  27.9276676  73.4527206  26.6314507  27.1250629  71.9795990
  25.5787773  26.8710690  72.1039505  26.9619732  27.7566643  70.6812668
  26.2267551  28.4837151  70.3363800  27.9179840  28.2776356  70.7335281
  27.0237541  27.0651493  69.8409805  27.3886318  25.8202229  72.0196762
  28.4625111  26.0047626  71.9908829  27.2068005  25.3190479  72.9703903
  27.0131397  24.7747002  70.9984055  27.4025478  24.9581032  69.9969864
  27.4833221  23.8824520  71.4118347  25.9360332  24.6564960  70.8802032
  26.5292206  29.4687500  72.9904404  27.4622765  30.1921864  72.7390289
  25.2446346  29.8122082  72.9899673  24.6214695  29.1407909  73.4153671
  24.9034882  31.2676315  72.9161758  25.2290020  31.6425800  71.9458389
  23.3388748  31.3886147  72.8418121  22.9128666  31.1070862  73.8048096
  23.0580692  32.4272957  72.6674805  22.6104946  30.5111313  71.7789154
  22.6277523  29.4750481  72.1170502  21.1887989  31.0003204  71.8865585
  20.8749237  30.9102840  72.9264908  21.0583801  32.0055618  71.4858246
  20.5405293  30.3804340  71.2672043  23.1442738  30.6287174  70.3528442
  24.2156353  30.4569168  70.2490845  22.5940781  29.8289223  69.8571472
  22.9356327  31.6381302  69.9983597  25.4845428  32.2354012  73.9889069
  26.2117271  33.1399078  73.5511703  25.2562485  31.9636917  75.3096161
  24.6880856  31.1523399  75.5070953  25.8670502  32.6976585  76.3913956
  25.4387360  33.6906090  76.2546082  25.3962841  32.1178589  77.7687149
  24.3159256  31.9813766  77.8166504  25.7057400  31.0905685  77.9610901
  25.7204952  33.0804329  78.9363632  26.7625561  32.9241028  79.2152405
  25.5985489  34.1101112  78.6002121  24.9796314  32.8773918  80.2279663
  25.5184479  33.2628479  81.2567215  23.8613567  32.1252975  80.3574448
  23.3969650  31.6384697  79.6041565  23.4546070  32.0840034  81.2809982
  27.4570389  32.7070694  76.3627243  28.1181679  33.7642708  76.5976715
  28.1419029  31.6635571  75.9723587  27.6272583  30.8256168  75.7419281
  29.6074371  31.6767101  75.7029572  30.0533504  31.9496651  76.6593857
  30.1753311  30.2637482  75.5290756  29.5828781  29.8287201  74.7241821
  31.2499561  30.2163372  75.3529129  29.8989124  29.4685612  76.7878265
  28.8983955  29.6410599  77.1844482  29.9910984  28.4168644  76.5166550
  30.9200706  29.7262554  77.8917694  31.9147587  29.3807945  77.6100693
  30.9043484  30.7991886  78.0832520  30.5470200  29.0848370  79.2185516
  29.5250092  29.3547726  79.4845047  30.5432510  28.0229511  78.9726105
  31.3516560  29.4815483  80.3793106  32.2578735  29.0361462  80.3571320
  31.5111980  30.4785500  80.4044647  30.8355961  29.2492199  81.2158585
  30.0480080  32.5578079  74.5830383  30.8738289  33.4271889  74.7820587
  29.4763603  32.2281952  73.4179230  28.7879009  31.4935455  73.3378448
  29.6079597  33.1057129  72.2392883  30.6364994  32.9809570  71.9007034
  28.6726913  32.7540359  71.1268158  27.6718063  33.0530243  71.4381561
  29.2273350  33.3919601  69.8892212  30.0599403  32.8185196  69.4817581
  28.4263382  33.3668747  69.1503906  29.4721565  34.4519348  69.9571915
  28.7309895  31.3687553  70.7082520  28.1008644  30.9705849  71.3132324
  29.3045921  34.6015625  72.5780640  30.1275978  35.4067764  72.2024994
  28.3238430  34.9342804  73.4234924  27.7338543  34.1660080  73.7094421
  27.9239426  36.2788696  73.7829285  28.1615276  36.9706535  72.9747925
  26.4203205  36.2165756  74.1805344  25.8296146  35.9155807  73.3153381
  26.2544861  35.4918785  74.9776611  25.8972874  37.5798378  74.7264557
  26.3218441  37.5830040  75.7303772  26.1777248  38.4566727  74.1428375
  24.3346310  37.7161713  74.7266006  24.1232586  38.7038918  75.1362839
  24.0033226  37.4585190  73.7206421  23.7725639  36.5949440  75.7481766
  22.7072582  36.3783531  75.6687241  24.2903900  35.6700401  75.4941940
  23.9358444  36.9373932  77.1886902  23.6080418  36.2469177  77.8489075
  24.9271488  37.0641136  77.3348618  23.4244709  37.7733803  77.4330750
  28.8444748  36.8948822  74.8857117  29.2996998  38.0164833  74.6988297
  29.3130455  36.0973396  75.9028702  28.9657898  35.1754379  76.1256027
  30.3411999  36.5245895  76.7997589  30.0130882  37.4387589  77.2944641
  30.5112019  35.4339066  77.8803711  30.5333595  34.5037537  77.3125534
  31.5144119  35.4729805  78.3048096  29.4883747  35.4240379  78.9847717
  29.5003796  36.3810196  79.5064392  28.5071659  35.3479118  78.5162277
  29.5575390  34.2851028  80.0106430  30.1599998  33.2275543  79.8965988
  29.1616421  34.5164719  81.1747284  29.2762280  33.9207039  81.9822159
  28.7156429  35.4110794  81.3191605  31.6607533  36.8050079  76.0779572
  32.5026703  37.6029625  76.5586624  31.8936672  36.0938606  74.9711151
  31.1528549  35.4900055  74.6445160  33.0024681  36.3690834  74.0355835
  33.9120827  36.5045013  74.6207123  33.1627083  35.2528801  73.0404968
  33.1016388  34.3705559  73.6775894  32.3757477  35.3467331  72.2921753
  34.5326538  35.3681602  72.2847900  34.6903877  36.4131432  72.0178833
  35.6207161  34.8647041  73.2104568  35.5037231  33.7919884  73.3643875
  36.5778198  35.0567093  72.7255020  35.6011581  35.4184113  74.1491394
  34.4654350  34.5830231  70.9630051  34.4705200  33.5210304  71.2084579
  33.5922432  34.8588943  70.3717957  35.3619995  34.6636124  70.3483658
  32.8869476  37.7535820  73.3501053  33.6308937  38.6632042  73.7363510
  31.8440895  37.9031067  72.4705048  31.4448776  37.0671082  72.0682144
  31.5411854  39.2670403  71.9633026  32.2649155  39.6477203  71.2426147
  30.1957684  39.1705894  71.2745514  29.4357185  38.8103485  71.9678421
  29.9479809  40.1783905  70.9413147  30.2063446  38.3344421  70.0165329
  30.2869091  37.2825928  70.2908020  28.8534737  38.3172035  69.3603897
  28.0446930  38.1578140  70.0735321  28.7259865  39.2669296  68.8409042
  28.7160931  37.4125366  68.7681046  31.2136459  38.6208420  68.9872360
  31.3257294  39.6842957  68.7760468  32.2020988  38.2479553  69.2556000
  30.9247341  38.0828705  68.0843430  31.4824390  40.3815689  72.9627304
  32.0946121  41.4726295  72.8020477  30.9319191  40.1255836  74.1494598
  30.4717674  39.2756042  74.4425354  30.8420639  41.2102051  75.1366577
  30.2776394  42.0608978  74.7547607  30.0582790  40.7456932  76.3641205
  30.2970238  39.7152138  76.6271973  30.2634506  41.4114799  77.2024155
  28.5697250  40.9289322  76.1517639  28.3387642  41.9149017  75.7485046
  28.1853943  40.2435455  75.3963547  27.7662392  40.6166267  77.4179153
  27.7378407  39.4371948  77.8852997  27.1618042  41.5628014  77.9903641
  32.1674194  41.6027069  75.7327423  32.2786903  42.8054428  76.0224457
  33.1572227  40.6965523  75.7984390  33.0082054  39.7093582  75.6456680
  34.5123749  41.0662651  76.1983643  34.3916245  41.8856697  76.9069595
  35.2708740  39.8333702  76.8564072  34.6956406  39.5131302  77.7251205
  35.2257957  38.9874153  76.1705322  36.7177238  40.1204033  77.3927536
  37.0820618  39.1802559  77.8068542  37.3334961  40.4645309  76.5617905
  36.8847504  41.1562309  78.4788361  37.8960342  41.5598183  78.5290604
  36.2109680  41.9382858  78.1288147  36.4170952  40.7002373  79.8227158
  35.4479942  40.2030449  79.7809753  37.1753845  40.0127258  80.1974487
  36.3279533  41.7666588  80.8860855  36.5293884  41.3421440  81.7801285
  37.0039673  42.4969749  80.7136002  35.3665504  42.0761642  80.8898087
  35.2890968  41.6927490  75.0601196  36.1476707  42.5595398  75.2650528
  35.0421867  41.3013420  73.8121490  34.2661743  40.6664810  73.6902771
  35.6714211  41.8772850  72.6457138  36.7388229  41.8366051  72.8627625
  35.3662109  40.9993668  71.4323120  34.3359489  40.6654930  71.5555801
  35.4803772  41.7109680  70.0008392  35.3189011  41.0014191  69.1893158
  34.8360939  42.5900383  70.0161438  36.4758644  42.1525955  69.9552917
  36.2429733  39.7871895  71.3627548  37.2692223  40.0553856  71.1118011
  36.3131523  39.3012238  72.3358994  35.9680672  38.7154350  70.3081284
  36.0987701  39.1362534  69.3111725  36.7695770  37.9854164  70.4210815
  34.9885521  38.2864571  70.5193863  35.2109337  43.3654022  72.4923553
  36.0786591  44.2165146  72.3449707  33.8888550  43.5634079  72.6326218
  33.2582474  42.7754440  72.5932465  33.3441429  44.9625244  72.6682968
  33.5746765  45.3784409  71.6874924  31.7411289  44.9344521  72.7787399
  31.4703751  44.2725639  73.6013489  31.2097721  46.3396339  73.0984573
  31.4925690  46.6458969  74.1055908  31.6039505  47.0918617  72.4151764
  30.1233311  46.2884827  73.0268402  31.1702442  44.3100815  71.4787750
  31.1625938  45.0740891  70.7013855  31.8168869  43.6226082  70.9334946
  29.7711143  43.6762047  71.6011887  29.2074032  43.6032372  70.6711349
  29.8357296  42.6748848  72.0269699  29.1111889  44.2170563  72.2794724
  33.9399605  45.8258324  73.7574463  34.1963577  46.9991875  73.5494919
  34.2132797  45.2218971  74.9476242  33.9785042  44.2630997  75.1613693
  34.8082886  45.9870148  76.0484543  34.2541771  46.9240646  76.1033249
  34.7475014  45.2300339  77.3367615  33.7126350  45.1279984  77.6634750
  35.3247757  44.3219643  77.1627808  35.5393524  45.8252411  78.4532776
  35.5245705  45.1647148  79.3202209  36.5799599  45.8113060  78.1291733
  34.9875641  47.1409225  79.0377808  33.8564415  47.4769974  78.7378845
  35.7227325  47.9107552  79.7160721  36.2722626  46.3875542  75.7134552
  36.6656990  47.5478096  75.8449249  37.0207100  45.3683243  75.2558060
  36.6273041  44.4386635  75.2232285  38.4790993  45.3952026  75.1254120
  38.9440689  45.8867912  75.9799500  39.0355568  43.9671555  75.1300964
  38.4260941  43.3343735  74.4849243  39.9991188  43.9877968  74.6209564
  39.2572250  43.3460350  76.5289154  38.4384460  43.6425171  77.1845093
  39.2100525  42.2614365  76.4313583  40.5784683  43.7376480  77.2502136
  41.4826927  42.8516464  77.5030518  40.8119011  44.9632225  77.4880295
  38.9317131  46.0815582  73.8527832  40.0202370  46.6142616  73.7430573
  37.9745064  46.3257675  72.9523621  37.0932350  45.8764038  73.1561737
  38.2134628  47.0982628  71.7416916  39.2203445  47.5148621  71.7145844
  38.1468468  46.1914940  70.5464249  37.2245331  45.6171036  70.4597397
  38.3559418  46.7782059  69.6519089  39.3115768  45.1599579  70.5621338
  40.4936867  45.3906746  70.4277954  39.0250778  43.8595581  70.7463074
  39.8220062  43.2400246  70.7806931  38.1807098  43.6521225  71.2602310
  37.2484970  48.2502480  71.6670990  37.1855049  48.8747940  70.5946884
  36.4470406  48.5521355  72.7248993  36.5904121  47.8876343  73.4718781
  35.6172028  49.7743721  72.9127045  34.9402809  49.4790993  73.7143860
  36.4965630  50.9447174  73.3212814  37.2304039  51.1534386  72.5428085
  35.8029556  51.7646523  73.5076141  37.3830414  50.7940636  74.5929489
  38.7236710  50.4212952  74.5478668  39.1699104  50.2685204  73.6547623
  39.0194206  50.0920029  75.7814789  39.7067795  49.2616196  75.8478012
  37.9808159  50.3745346  76.5831299  37.8224945  50.1159668  77.5465469
  36.9264450  50.8767014  75.8676529  35.9230461  51.0858765  76.2080002
  34.5822258  50.0381050  71.7230530  34.2798729  51.1384697  71.2569580
  34.1336746  48.8888092  71.1412125  34.3238945  48.0192986  71.6185684
  33.4483757  48.8400383  69.7658844  34.0988960  49.4839554  69.1740265
  33.6014481  47.4252319  69.1190414  32.9967384  46.8458138  69.8166809
  33.0253601  47.3879204  67.7043915  31.9399452  47.3203430  67.6308441
  33.2820587  48.2480545  67.0860291  33.4879417  46.5708389  67.1507645
  34.9270630  46.9052277  69.1429749  35.4611473  47.5308838  68.6480942
  31.9834995  49.2898521  69.7861023  31.2752781  48.9849815  70.7264709
  31.5793133  49.8829384  68.6348190  32.1933632  50.1869316  67.8927765
  30.1267586  50.1583710  68.3904953  29.5410805  49.6560059  69.1603775
  29.8017445  51.5742950  68.6244583  28.7436047  51.7339363  68.4171982
  29.7859383  51.8107185  69.6883926  30.7404213  52.4780579  67.8312988
  31.5999851  52.5267334  68.4997940  30.8706684  51.9702072  66.8756714
  30.1993866  53.9250870  67.8990707  29.1726646  53.9669037  67.5354767
  30.3201237  54.3626785  68.8900452  31.1188793  54.7901382  66.9639969
  31.2311287  54.3697090  65.9646225  30.8526993  55.8461037  66.9172516
  32.4617958  54.9205933  67.4983063  32.8312874  54.0795212  67.9180450
  33.1301498  55.0140038  66.7468491  32.4838371  55.7408333  68.0872192
  29.5839043  49.5056572  67.0536880  30.3540497  49.4754829  66.1265945
  28.3089237  49.1572418  67.0339050  27.3091640  49.3310394  68.0366287
  27.2402973  50.4142075  68.1371307  27.5720711  48.9347496  69.0174179
  26.0220222  48.7801781  67.4666824  25.2705956  49.5435181  67.2647552
  25.5415802  48.1985054  68.2534027  26.3843594  47.9727745  66.1983490
  25.7605877  48.3300591  65.3789902  26.1926479  46.9107552  66.3515244
  27.8582592  48.3726158  65.8518219  28.4076118  47.4314194  65.8303223
  28.0720119  49.0698624  64.5045013  28.2676506  48.3750038  63.5694923
  27.9405441  50.3852081  64.3625565  27.7549648  50.8158836  65.2570877
  28.0459862  51.1772346  63.1303978  27.2247505  50.9173126  62.4624786
  27.7843971  52.6950188  63.3939781  27.6243801  53.2270279  62.4561806
  26.8078289  52.7590370  63.8738899  28.8058414  53.5313683  64.2370300
  28.8520336  53.2344322  65.2847900  29.8401356  53.4955139  63.8949051
  28.2757130  54.9889565  64.3821259  27.0794926  55.3168983  64.1296692
  29.0997295  55.9524002  64.5037155  29.3724651  51.0272064  62.4046478
  29.5412540  50.9845200  61.1618462  30.4352665  50.8565025  63.2103920
  30.2762775  50.7039146  64.1960602  31.8165474  50.6598892  62.6988220
  31.9584923  51.3482094  61.8656540  32.8657188  51.0415192  63.7738457
  32.7884445  50.5305862  64.7335663  33.8676949  50.9164276  63.3633614
  32.6656151  52.4585686  64.2159653  32.4710770  53.4048424  63.4535027
  32.8665276  52.6887589  65.4118347  32.1612396  49.2164688  62.1743355
  33.1361923  48.9867897  61.5102768  31.3402271  48.2248116  62.4257889
  30.4865055  48.4985085  62.8909225  31.4704342  46.7959061  62.0521545
  32.5047150  46.4762192  62.1792755  30.5961418  45.8777542  62.9157181
  29.5799103  45.9905243  62.5380135  30.8461380  44.3713531  62.6926155
  31.2235641  44.1896324  61.6863251  31.4906998  43.9504662  63.4642944
  29.8726501  43.9006767  62.5551834  30.5585003  46.2123375  64.3993073
  30.4234982  47.2536278  64.6918564  29.6569500  45.7911682  64.8441925
  31.4729805  45.8233948  64.8471298  31.1267967  46.5624695  60.5582924
  29.9983196  46.6980858  60.0845184  32.1883278  46.3002510  59.7917061
  33.1051216  46.2582741  60.2133980  32.1654205  45.8903656  58.3463058
  31.6934643  46.6465988  57.7190323  33.5413132  45.7906265  57.7478638
  34.0305138  44.8995209  58.1412010  33.5909500  45.7043800  56.2570267
  32.9343491  44.9283371  55.8636742  33.4354401  46.6653404  55.7666397
  34.6355019  45.4538994  56.0718803  34.4474831  47.0517654  58.0605278
  34.5953255  47.2563553  59.1208992  35.4188042  47.0114555  57.5675697
  33.8871384  47.8595772  57.5898285  31.4691277  44.5588455  58.1894264
  30.7618446  44.3386765  57.1551819  31.8033829  43.5968933  59.1181450
  32.3844452  43.8252602  59.9120674  31.3781242  42.2020607  59.0748672
  30.2947884  42.2315903  58.9581871  31.9480610  41.3595581  57.8441048
  31.0720825  40.9245262  57.3629494  32.3970222  42.1299706  57.2172089
  33.0440483  40.2856445  58.1572342  33.7541695  40.6783028  58.8850021
  32.6338806  39.4323273  58.6973381  33.7531738  39.8043098  56.8979874
  33.2083321  39.9358406  55.8338165  34.9123955  39.1330223  56.9219933
  35.4624863  39.0433617  57.7642899  35.2257881  38.8687973  55.9989166
  31.5375061  41.4715157  60.4200974  32.4662094  41.7287254  61.1983185
  30.7459850  40.3966751  60.6882133  29.8448925  40.2990685  60.2425613
  31.1051254  39.4534531  61.8056412  32.1040840  39.6286430  62.2050171
  30.1524601  39.8164482  62.9684334  30.2414951  40.8814888  63.1825867
  29.1417122  39.6852188  62.5820770  30.2419701  38.8268204  64.1825333
  30.4106922  37.8335876  63.7664528  31.0893555  39.0596466  64.8273849
  28.7584057  38.8932190  65.1990051  28.9822865  40.5634422  65.9232712
  28.1340466  40.8165970  66.5592728  29.8551483  40.5484200  66.5759430
  29.1891060  41.3061409  65.1527328  30.9898415  37.9863167  61.3082581
  29.8928680  37.5757141  60.8129463  32.1298103  37.2226562  61.3005142
  33.0268822  37.5673904  61.6111908  32.1936302  35.8001328  60.9173317
  31.2393780  35.4133606  60.5596771  33.1797981  35.7232628  59.7157745
  32.8460999  36.2602272  58.8278427  34.1133575  36.1383820  60.0955620
  33.5802650  34.2910423  59.1833687  33.8083458  33.5571976  59.9563866
  32.4466820  33.6772957  58.3231773  31.6597557  33.5316582  59.0632019
  32.1180267  34.3301277  57.5145416  32.8616638  32.8009758  57.8252144
  34.9053192  34.4560051  58.4086723  34.7949524  35.0888214  57.5280685
  35.7479134  34.7239723  59.0461121  35.1104774  33.4174919  58.1488495
  32.4933662  34.9346733  62.1844749  33.6270409  34.8619957  62.6795464
  31.5292759  34.1976967  62.6503067  30.6751995  34.0969162  62.1206856
  31.6289024  33.2451248  63.7608604  32.4427109  33.5790367  64.4045410
  30.3370819  33.0186615  64.5569763  29.5198288  32.9422073  63.8397903
  30.3518505  32.1103859  65.1594009  30.1650333  34.2299576  65.5141602
  30.6458244  35.1338539  65.1401138  28.8038731  34.7068901  65.9200516
  28.3306274  33.9563293  66.5531311  28.9125347  35.6433868  66.4671097
  28.1833057  34.9355812  65.0536194  30.8068714  33.8304176  66.8596725
  30.7958450  34.6597214  67.5669403  30.3442974  32.9245796  67.2515640
  31.8633556  33.5911064  66.7385406  32.1083183  31.9237404  63.1298294
  31.8290100  31.6307106  61.9811211  32.7241592  30.9886665  63.9122086
  32.9516220  31.2117329  64.8706512  33.1654930  29.6913319  63.3789978
  32.5120087  29.3985863  62.5571938  34.5425339  29.8581924  62.7541389
  34.5474129  30.5243702  61.8914299  35.2706528  30.3072071  63.4296646
  35.1472168  28.6491985  62.2695045  36.0592575  28.8580494  62.4843674
  33.0454407  28.5860882  64.4154816  33.0932846  28.8681412  65.5966187
  33.0460701  27.2907181  64.0610123  32.9924660  27.1766243  63.0589142
  32.7821655  26.2092400  64.9517365  32.8605270  26.3161564  66.0336456
  31.3618164  25.6031284  64.6338577  30.7155857  26.2649326  65.2105026
  31.1286774  25.6428604  63.5698242  31.3504562  24.5805683  65.0111389
  33.7431183  25.0830650  64.4989929  33.9279213  24.8082275  63.3200760
  34.1770287  24.3072472  65.4783478  34.0130386  24.6809368  66.4022293
  34.6732712  22.9454021  65.2634048  35.4597359  23.0433750  64.5150833
  35.3580894  22.3213978  66.4842987  35.6222267  21.2847576  66.2752457
  36.6294518  23.1179123  66.6271591  37.2802620  22.6095562  67.3385773
  37.2276306  23.1770000  65.7178726  36.4373283  24.1299095  66.9835968
  34.5678749  22.4427795  67.6732178  34.1148872  21.6017227  67.7682114
  33.4841652  22.0415096  64.8407974  32.3464394  22.2198849  65.1896820
  33.8252907  21.0450020  63.9747429  35.2029953  20.6642513  63.3976974
  35.9104424  20.6136475  64.2253799  35.3068008  21.4533463  62.6529465
  35.0574188  19.3294430  62.8193054  35.1368599  18.6898594  63.6983528
  35.8028717  19.1440639  62.0459785  33.6272087  19.2380047  62.3378334
  33.2738762  18.2279873  62.1301765  33.6020470  19.6982117  61.3500671
  32.8661766  20.0380230  63.3551598  32.1708794  20.6770687  62.8108406
  32.0284920  19.1907635  64.2451706  31.0583191  18.5242577  63.8108025
  32.2768974  19.2499008  65.5660782  32.8130341  20.0154991  65.9488525
  31.5464783  18.5224209  66.5660019  30.9858112  17.6632175  66.1978683
  32.5743065  17.8749447  67.5188446  31.9599819  17.5525112  68.3595276
  33.0321693  17.0941372  66.9115601  33.7431068  18.8241005  68.0255737
  33.6505165  20.0371037  67.9721222  34.8997002  18.2907543  68.2653885
  30.4502640  19.3878555  67.2921295  29.8158607  18.9024353  68.2824326
  30.1888371  20.5879993  66.8339310  30.9300480  20.9837170  66.2734680
  28.9428921  21.3652134  67.0726700  28.4375038  21.0751514  67.9938354
  29.3361340  22.8622932  67.1373062  30.1613102  23.0102444  66.4406738
  28.4951973  23.4902573  66.8430328  29.7933483  23.2796898  68.5890656
  28.8949337  23.1554203  69.1936417  30.9328251  22.3611164  69.1277924
  31.4082260  22.9383240  69.9208374  30.4648800  21.4613743  69.5272751
  31.5660591  21.9949341  68.3196869  30.2873535  24.7428379  68.7473907
  29.5352345  25.4410858  68.3801575  30.6032410  24.9085331  69.7773743
  31.1034698  24.8784389  68.0376892  27.8531265  21.0965595  66.0650330
  28.1097965  21.1804714  64.8456879  26.6255512  21.0796947  66.5997162
  26.4678249  21.0222282  67.5956726  25.4182472  20.8116455  65.8186417
  25.6138248  21.3332272  64.8817291  25.2561493  19.2694340  65.6280746
  25.0373840  18.8662472  66.6168518  24.3738365  19.0602245  65.0232162
  26.4023914  18.4710064  64.9725266  26.8783455  18.6141586  63.7342682
  26.6017323  19.3296967  63.0773125  28.0277805  17.9051361  63.7006454
  28.6699448  17.6984901  62.8572464  28.2071228  17.2247486  64.8684006
  29.0501900  16.6869526  65.0102158  27.2831059  17.6854248  65.7017670
  27.1624470  17.3486595  66.7208023  24.1223316  21.3936634  66.4498138
  23.0838699  21.4231720  65.8108368  24.1487770  21.8470497  67.6885223
  24.9787331  21.6432972  68.2268143  22.8325367  22.0992527  68.3537445
  22.2179585  21.2647877  68.0160141  23.1274128  21.9776726  69.8522873
  22.2015247  22.2815208  70.3406677  23.5200500  20.9702320  69.9901199
  23.8839684  22.7057743  70.1448441  22.0786743  23.3823700  67.9915771
  20.8228989  23.4636688  68.0642700  22.8349018  24.4139404  67.5630875
  23.8290176  24.2405815  67.5209198  22.4585724  25.7352180  67.1374969
  21.5412655  25.6489105  66.5550842  22.0873108  26.5988522  68.4581833
  21.5463238  25.9307671  69.1283340  23.3345928  26.9018936  69.2675018
  23.9348812  26.0041924  69.4154053  23.8721218  27.7124653  68.7754288
  23.2541637  27.2208748  70.3066788  21.2622490  27.8781013  68.2224426
  21.8855000  28.6435413  67.7601089  20.4876347  27.6691380  67.4846039
  20.8535557  28.2181892  69.1739731  23.5253220  26.4444504  66.3546219
  24.6850491  26.1040344  66.4451828  23.1296577  27.4638748  65.5643234
  22.1574230  27.7365799  65.5421448  24.1269436  28.4460659  65.0689011
  24.9696712  27.8653717  64.6937943  23.6089478  29.2379265  63.8253860
  22.6702366  29.7606068  64.0090332  24.3700981  29.9598713  63.5295029
  23.3612976  28.4571304  62.5118179  24.5103016  28.1194763  61.7378387
  25.5035381  28.3084259  62.1175499  24.4104900  27.5617085  60.4646111
  25.2632961  27.3347149  59.8420372  23.1496410  27.1839218  59.9467239
  22.9683781  26.5932579  59.0609131  21.9697227  27.4910069  60.7739334
  20.9965534  27.3160591  60.3395004  22.1015358  28.1418533  62.0043221
  21.2434940  28.4362736  62.5903931  24.6668892  29.4164143  66.1485062
  23.8273163  29.9157066  66.9041290  25.9801483  29.6900826  66.2970276
  27.0932674  28.9413738  65.7659912  27.2408695  29.1304932  64.7027206
  26.7603168  27.9091549  65.8744736  28.3360863  29.0804081  66.6362381
  29.2254086  28.9520073  66.0192108  28.3372803  28.3270664  67.4240036
  28.0582104  30.5092964  67.1049500  28.4263115  31.1692410  66.3194122
  28.6655483  30.6698742  67.9957123  26.5708694  30.6347828  67.2791214
  26.2412243  30.3082600  68.2654343  26.1271992  32.0784645  67.1305161
  25.7470074  32.7671127  68.1440048  25.7340031  32.4706230  65.9065781
  26.0768528  31.9634037  65.1032867  25.3543587  33.8194427  65.6198959
  26.1078014  34.4722519  66.0606537  25.3294830  33.9563065  64.1090851
  26.3034554  33.7568359  63.6622200  24.6663551  33.2276077  63.6428719
  24.8616180  34.8868484  63.7876930  23.9594994  34.1440353  66.1751556
  23.5974159  35.2922211  66.3587875  23.1145935  33.0890923  66.4556885
  23.4270191  32.1533623  66.2391281  21.7828236  33.3165703  67.0908585
  21.2206936  33.8849487  66.3498764  21.0302010  31.9988785  67.2553253
  21.1275597  31.4056244  66.3461075  21.5082951  31.4174042  68.0436172
  19.5307312  32.0553703  67.5689163  19.2899532  32.7710419  68.3550110
  19.0037098  32.3379784  66.6576080  18.9657230  30.6795692  67.8430252
  19.2671261  29.9967880  67.0486298  19.4560318  30.3287544  68.7511139
  17.4321041  30.7277470  67.9157867  17.1171684  31.4823151  68.6365814
  17.0419350  31.0344048  66.9453049  16.7740669  29.3945560  68.1903687
  16.9676304  28.7726631  67.4184341  17.2705898  28.9663677  68.9586258
  15.7821474  29.3687096  68.3788528  21.7704887  34.0728607  68.4525528
  20.7516117  34.5649261  68.9622040  22.9099941  34.1922951  69.1278992
  23.6573448  33.6684380  68.6952972  23.0760345  34.9344864  70.3514709
  22.2367554  34.9246941  71.0468979  24.3033276  34.3586693  71.0469666
  24.4121170  34.6358261  72.0955124  24.0911484  33.2987747  71.1873474
  25.2429981  34.6215744  70.5611649  23.2192707  36.5029716  70.0923843
  23.1239719  37.3311386  70.9703445  23.5367165  36.8975906  68.7689667
  23.8368912  36.2428398  68.0609436  23.7130928  38.3489876  68.4489441
  24.2961636  38.8181839  69.2413940  24.5194607  38.4215202  67.1031952
  23.9648666  37.9960861  66.2668076  24.7524509  39.9040146  66.7190933
  23.8080406  40.3967514  66.4879990  25.1437073  40.4736748  67.5620117
  25.5372639  40.0135231  65.9706497  25.8378677  37.7194595  67.1262741
  26.1784172  37.8010330  66.0940552  26.5021057  38.2180176  67.8321991
  25.7313995  36.6636009  67.3751297  22.4299068  39.1928978  68.5517578
  22.4872055  40.4076538  68.7771606  21.2217350  38.4986496  68.4641190
  21.3087082  37.5285912  68.1966782  19.8444729  38.8917046  68.7642517
  19.4377632  39.6983452  68.1543198  19.0497112  37.6343880  68.5894470
  19.5296631  36.8547440  69.1809692  18.0272808  37.8567619  68.8948669
  19.0160904  37.2210579  67.1219254  18.4640083  37.8969307  66.4688568
  19.9923687  37.0268860  66.6777649  18.2736206  35.8680191  66.9480820
  18.7503853  35.1365814  67.6006165  17.2107906  35.9364548  67.1800537
  18.3835545  35.3733864  65.5819550  19.2983017  35.1931305  65.1935654
  17.4239635  34.7005196  64.9163208  16.2040710  34.9323196  65.2576904
  16.0092506  35.6164017  65.9747543  15.4219599  34.5777817  64.7259903
  17.6448746  34.0415535  63.8757744  16.8355560  33.7613220  63.3404388
  18.5910511  33.7461205  63.6819534  19.6591396  39.4341202  70.1824417
  18.6963615  40.1203880  70.5020218  20.6138535  39.1422272  71.0995789
  21.3866558  38.5133018  70.9342575  20.5590439  39.7946091  72.4008026
  19.5478134  39.8347664  72.8056564  21.2931976  38.9254227  73.4191895
  22.3440742  38.8483315  73.1402359  21.3847389  39.3758087  74.4075546
  20.7419567  37.5905609  73.6788559  21.1447296  36.8768234  72.9602127
  21.1921387  37.2661667  74.6170502  19.2162838  37.4433212  73.7203064
  18.5270901  38.1275558  74.5469284  18.6766224  36.6102600  72.8786545
  21.0676765  41.2733421  72.3548508  20.3680000  42.1757965  72.8369522
  22.1933289  41.5459023  71.7275467  22.7631378  40.8010521  71.3525620
  22.8402214  42.8595657  71.7437134  22.9431591  43.0605240  72.8100662
  24.1974163  42.6333199  71.0478210  24.0793915  42.3176956  70.0112152
  24.7198486  43.5873260  71.1187973  25.1061954  41.5927124  71.7452850
  24.5598183  40.6495476  71.7487869  26.2895470  41.4862061  70.8735046
  26.6948452  42.4872475  70.7260437  27.0775585  40.8660126  71.3007050
  26.0442505  41.1171684  69.8776474  25.4467030  41.9553719  73.1830597
  24.5298023  41.9983101  73.7708969  25.9472790  41.0782585  73.5931778
  26.2056122  42.7377129  73.1926193  21.9964180  44.0069351  71.1338806
  21.4123898  44.0603981  70.0227280  21.8485374  45.0616074  71.8971024
  22.5238190  45.1250038  72.6454849  21.1636124  46.3009682  71.4931412
  20.2525616  46.0208054  70.9643784  20.8567467  47.1644058  72.7344818
  20.2396011  46.5679855  73.4064255  21.7804394  47.4551964  73.2348251
  20.2471943  48.3572388  72.3664169  19.4247341  48.1500206  71.9167252
  21.9578819  47.0780869  70.4471359  23.2044315  47.1599388  70.5562897
  21.3985748  47.5765991  69.3601532  20.4164333  47.4590950  69.1559677
  22.2289810  48.2936592  68.3869858  21.5379848  49.0597000  68.0351257
  23.0727253  48.7449112  68.9090652  22.7186031  47.4095650  67.2582932
  23.2088547  47.8909111  66.2586060  22.8889313  46.1157379  67.5216827
  22.5284500  45.7883873  68.4065552  23.5554924  45.0955429  66.6406174
  24.3434944  45.5486755  66.0391006  24.2455654  44.1422501  67.5318375
  23.4854946  43.8970490  68.2736359  24.4353428  43.1414986  67.1437912
  25.5359898  44.6524582  68.1621704  25.6180363  45.3443413  69.3140717
  24.7737370  45.6431580  69.9176178  26.9494400  45.6319008  69.6596756
  27.1106339  46.1447716  70.5147095  27.7624741  45.1263313  68.6532822
  29.1582603  45.2495613  68.4664917  29.7187862  45.8120499  69.1984863
  29.8111115  44.5694084  67.4365082  30.8655777  44.6677551  67.2247849
  28.9966431  43.8239326  66.5660095  29.4765549  43.4425011  65.6768570
  27.5772057  43.8287849  66.6810608  27.0179176  43.2601242  65.9528885
  26.9568253  44.4256706  67.7427597  22.6454945  44.4764328  65.6060791
  23.1437511  43.7434883  64.8086243  21.3458004  44.8175011  65.4589462
  21.0732765  45.5127220  66.1390152  20.4122047  43.9561195  64.6549072
  20.5845833  42.9161072  64.9319687  18.9600544  44.2330437  65.0874329
  18.4212246  43.4946175  64.4937210  18.8395309  43.9407234  66.1305618
  18.4710503  45.6028366  64.7341309  18.9658394  46.3018112  65.4084625
  18.6496410  45.7725945  63.6723442  16.9790440  45.8319244  64.9715958
  16.1829548  44.9734993  65.0149460  16.4762955  47.0299416  65.1987915
  16.8188820  47.9342499  64.9073105  15.4779177  47.0447693  65.3508530
  20.6411533  44.0826607  63.1415977  20.1497707  43.2517166  62.4309845
  21.3752384  45.0660896  62.6332779  21.7169895  45.7167473  63.3260689
  21.7174358  45.2999954  61.2487450  20.9683247  44.8295670  60.6118507
  21.6220055  46.8169670  60.9693565  22.5682755  47.1757965  61.3742180
  21.6947937  46.9859200  59.8949928  20.4413509  47.6006241  61.5489693
  19.1636448  47.1953201  61.1930389  18.9681892  46.3174591  60.5950775
  18.0497856  47.8685837  61.7561150  17.0546455  47.4577942  61.6704140
  18.3096924  48.8715363  62.7129402  17.2407436  49.4306107  63.3878746
  16.3862190  49.2918053  62.9729958  19.6145611  49.3024330  63.0534248
  19.8166866  49.9606018  63.8855133  20.6918125  48.5670471  62.5333595
  21.7101669  48.8746452  62.7197418  23.1113110  44.7719421  60.8022652
  23.3274460  44.6135597  59.6277313  24.0038910  44.4233971  61.7943726
  23.7397671  44.8297462  62.6804962  25.2925014  43.8588600  61.6364632
  25.7235317  44.5933571  60.9561462  26.1259766  43.7994385  62.8917694
  25.3972111  43.6772079  63.6930580  27.2416267  42.7900543  62.8678665
  26.8059273  41.7911301  62.8880081  27.8476067  42.8439140  61.9634399
  27.9482803  42.9209137  63.6873894  26.8847485  45.1214447  63.1096573
  27.6222534  45.0802116  62.3081017  26.2697926  46.0052643  62.9399796
  27.3887939  45.3533249  64.0478821  25.2776184  42.5485153  60.8872414
  24.5108318  41.6347504  61.2770996  25.9582214  42.4210663  59.7387276
  26.6141529  43.4789696  59.0450211  27.3011799  43.9672318  59.7361755
  25.8311386  44.1315804  58.6588974  27.2907124  42.8139191  57.8702087
  28.2733116  42.4894409  58.2127190  27.4044437  43.5625305  57.0861473
  26.4991055  41.5999680  57.5835991  27.1542740  40.8100395  57.2163582
  25.5950317  41.8087654  57.0116272  25.9930134  41.1895599  58.9443398
  24.9844055  40.7844276  58.8626480  26.8994656  40.1997833  59.6944542
  28.0031033  40.5500069  60.0725784  26.3330975  39.0573921  60.0177193
  25.3353233  39.0488472  59.8612747  26.8718109  37.8984337  60.6620483
  27.8795185  38.2148628  60.9313011  26.1089935  37.6426125  61.9769592
  25.1969357  37.1087456  61.7100563  26.9923630  36.6738319  62.8875885
  26.9351330  35.7010880  62.3991203  28.0252628  37.0218811  62.8964615
  26.6529541  36.5428085  63.9150772  25.9081936  38.9010048  62.8586121
  26.8816032  39.3749390  62.9849510  25.2448387  39.5637665  62.3029060
  25.5424156  38.6241608  63.8473778  26.8776188  36.7058716  59.6477470
  26.0926971  36.7111511  58.7141418  27.7791710  35.7634850  59.8095894
  28.4622402  35.9001846  60.5409088  27.7657089  34.4330635  59.1801758
  26.7353325  34.2043724  58.9079208  28.5317993  34.5090332  57.8875694
  29.5474873  34.8923607  57.9852219  28.6523666  33.1514740  57.2166862
  29.4029121  32.5753670  57.7578659  27.7586880  32.5274734  57.2246323
  29.0220718  33.2046394  56.1926765  27.8457451  35.3251381  56.9767303
  27.4169712  35.9336243  57.5829468  28.4786873  33.4780388  60.1540108
  29.4056873  33.8613358  60.8906860  28.1219330  32.2414474  60.1106110
  27.5955982  32.0148354  59.2789154  28.8379974  31.1117840  60.7234993
  29.4741745  31.4510727  61.5409737  27.7794189  30.2705078  61.4822235
  27.0746708  29.8833122  60.7463493  28.3532791  29.4332428  61.8794365
  27.1660614  31.1943054  62.9179115  26.2836895  31.9108257  62.2158318
  29.5232449  30.2769699  59.6405373  29.1045895  30.3069611  58.4742470
  30.5963211  29.5218010  59.9818268  30.9254513  29.6137924  60.9322548
  31.3438721  28.6713409  59.1478386  30.6492138  28.2092571  58.4463921
  32.2991867  29.4626598  58.2626343  32.5735855  28.7754650  57.4622803
  31.8757420  30.3337650  57.7626610  33.6497993  29.7437115  58.9613495
  33.3827972  30.3462296  59.8295555  34.0836182  28.7966385  59.2822342
  35.0314445  30.4580975  57.9874802  36.2178535  30.5443420  59.3366165
  37.2030334  30.2532387  58.9722328  36.2299042  31.5043678  59.8526688
  35.8663445  29.8650169  60.1131821  31.9607353  27.5387974  60.0614014
  31.8340359  27.4647961  61.2656479  32.5485039  26.6234779  59.3033295
  32.7887917  26.8416462  58.3468971  33.2871017  25.4825783  59.8476181
  33.0073853  25.3216419  60.8887520  32.9454689  24.3170338  59.0122185
  31.8604240  24.3757229  58.9265633  33.2826195  24.4969635  57.9914093
  33.3464622  22.9300995  59.4984932  33.1709900  22.2818584  58.6399498
  34.4097176  22.8509274  59.7250633  32.4205475  22.3665638  60.5783195
  31.5582714  21.5152512  60.3186264  32.3489723  22.8921318  61.8258057
  32.9289055  23.6832867  62.0663490  31.6641827  22.5167847  62.4663353
  34.8297615  25.7448730  59.9206505  35.3981895  26.2115250  58.9131851
  35.4806480  25.5608521  61.0215530  34.8874321  25.2263889  61.7674255
  36.9229355  25.5147820  61.1821823  37.3193665  26.2145157  60.4464417
  37.4070320  25.9368477  62.5667000  36.7263489  26.6258869  63.0667000
  37.4955330  25.0408134  63.1810226  38.7134666  26.7074776  62.5873070
  39.0413513  26.5191879  63.6096268  39.3736801  26.3625278  61.7915535
  38.6354752  28.2724438  62.3675575  39.6521759  28.8704109  62.0816040
  37.6763611  28.8982220  62.7916641  37.5365486  24.1482754  60.8078384
  36.9238548  23.0665302  61.0612068  38.8064156  24.1080894  60.3294029
  39.3012657  24.9732895  60.1661415  39.4750481  22.8660564  59.9191551
  38.9104004  22.4445820  59.0875053  40.8590736  23.2857933  59.4444427
  40.7472000  23.9437046  58.5826225  41.3501396  23.9004230  60.1988907
  41.8505707  22.1159782  59.1172981  41.9410324  21.5430412  60.0401535
  41.3701820  21.4217014  58.4278755  43.4663277  22.6691952  58.5752525
  44.4081192  21.1493359  58.4591827  45.4878273  21.2758713  58.3797188
  44.2502937  20.4835968  59.3077011  44.1423531  20.6818886  57.5110435
  39.5676079  21.8970203  61.0910034  39.7945862  22.2418022  62.2312317
  39.2773247  20.5908833  60.8011932  39.0433121  20.3081512  59.8602371
  39.6038132  19.4905739  61.7527390  39.2200623  19.7511616  62.7391129
  38.9672623  18.1293373  61.3726730  38.0094223  18.2858944  60.8765488
  39.5976486  17.6591873  60.6179085  38.9250374  17.1529465  62.5514488
  39.3314705  17.4837246  63.6658325  38.3546906  16.0543575  62.3528099
  41.0983696  19.1480179  61.8310699  41.7389259  18.8857021  60.7834091
  41.6318054  19.1621475  63.0438766  41.0186806  19.3703804  63.8190002
  43.0031624  18.9282761  63.3644981  43.4409637  18.5413933  62.4443092
  43.6431313  20.3049107  63.7236633  43.1931038  20.7799702  64.5953827
  45.1640205  20.2107544  64.0694962  45.7771912  19.8433037  63.2466316
  45.5229492  21.2097168  64.3171768  45.3938446  19.5433693  64.9000854
  43.4147911  21.3495617  62.6295166  43.8804817  22.2550583  63.0184975
  44.0035515  21.0494404  61.7626877  42.3470192  21.4879112  62.4597511
  43.2393723  17.8847599  64.4513626  42.6280746  17.8760338  65.5263519
  44.2455978  17.0197182  64.1600418  44.8011971  17.2190762  63.3404922
  44.8204765  15.9658384  65.0398254  44.0065651  15.3001213  65.3269958
  45.8230629  15.0592957  64.2820969  46.7095604  15.6035070  63.9564323
  46.2544975  13.8149319  65.0793076  46.8483009  13.2186375  64.3865356
  46.8668671  14.0868979  65.9390411  45.4053268  13.1925297  65.3614960
  45.4229050  14.6380644  63.0033455  46.1144867  14.0812387  62.6382980
  45.4162331  16.5575809  66.3185577  46.4316597  17.2939014  66.1449432
  44.9039612  16.3894253  67.5301971  44.1374931  15.7371988  67.6152039
  45.2031479  17.0861149  68.7480469  44.8090477  16.4380150  69.5308304
  46.2845078  17.1133652  68.8822937  44.6232224  18.4632912  68.8801117
  44.9417953  19.1335888  69.8773117  43.9481583  18.9417324  67.8537827
  43.6546936  18.2856693  67.1441574  43.3751297  20.2285194  67.7650070
  44.1105385  20.9637737  68.0916214  43.0988083  20.6033802  66.7795029
  42.1584358  20.3450031  68.7054901  41.4370766  19.3948574  68.9461288
  41.9715958  21.5742130  69.2601929  42.6613159  22.2366924  68.9353485
  40.9853325  21.9053230  70.2900848  41.1873245  21.2287941  71.1205139
  41.1561356  23.3625984  70.7808685  42.1868401  23.4536934  71.1235809
  40.8826790  23.9432354  69.8998566  40.3707161  23.7586193  72.0232620
  39.3088531  23.5500851  71.8926697  40.6055183  22.9375401  73.3189697
  40.2221336  21.9286919  73.1661911  41.6671066  22.8583717  73.5532074
  40.0840721  23.4459362  74.1299744  40.6865959  25.2150021  72.3303146
  41.7137566  25.5024090  72.5549011  40.3557053  25.7476978  71.4387741
  40.1187820  25.6138458  73.1709137  39.5767746  21.6246414  69.7526855
  39.0601997  22.3050137  68.8434372  38.8601379  20.7222424  70.4157486
  39.3018532  20.2724953  71.2048721  37.5371704  20.2752285  70.1143799
  37.3749504  20.3429794  69.0386505  37.3654366  18.8926849  70.6926117
  37.3484230  18.8179092  71.7799072  36.4263992  18.4983883  70.3042221
  38.4666290  17.9495125  70.2674026  39.4071846  18.2913685  70.6993561
  38.2845879  16.9814758  70.7341614  38.5977135  17.8238907  68.7220459
  37.6701012  17.3713608  68.3715286  38.7968025  18.7930450  68.2646561
  39.7954102  16.8396378  68.3703384  40.7033958  17.2378426  68.8232117
  39.6561699  15.8712759  68.8509598  39.9911804  16.6249313  66.9585876
  39.1364708  16.3284912  66.5094833  40.2847900  17.4673672  66.4850922
  40.7688408  16.0080452  66.7720566  36.4992256  21.2669868  70.7031021
  36.8617744  21.9976692  71.6582260  35.2547913  21.1096764  70.2666092
  35.0543175  20.3081970  69.6856308  34.0234566  21.9010220  70.7471695
  33.2097397  21.8187294  70.0266113  33.4587326  21.2655220  72.0309219
  34.1064262  21.6767197  72.8051987  32.5157509  21.7250786  72.3270493
  33.4816971  19.7264328  71.9836426  34.4421272  19.3413048  71.6410828
  33.2991791  19.3591995  72.9935608  32.2974510  19.1508331  71.2305527
  31.3626995  19.4433231  71.7088699  32.4098740  19.6405621  70.2632751
  32.2600021  17.6234646  71.1459351  32.9891472  17.4385834  70.3570938
  32.6338348  17.1812325  72.0693970  30.8291378  17.2329922  70.8222656
  30.2448559  17.3090286  71.6425934  30.4526081  17.6350365  69.9756927
  30.8970680  16.2403679  70.6485291  34.2855911  23.4403362  70.8460770
  33.8317528  24.0692425  71.8005676  35.0771446  23.9975739  69.9560013
  35.2788887  23.4298267  69.1454086  35.6466331  25.3515720  70.0421143
  35.6548309  25.6364498  71.0942001  37.1236267  25.2822819  69.6885376
  37.5725784  24.7390175  70.5200424  37.2834396  24.5674992  68.8812866
  38.0129471  26.9585800  69.3578415  38.4019165  27.1601257  70.6199722
  34.8917618  26.3612652  69.1682281  34.8676109  26.0291119  67.9681931
  34.3473244  27.4488716  69.7008820  34.6511879  27.6561184  70.6415329
  33.7828445  28.5713997  68.8630142  33.5253258  28.1219006  67.9039764
  32.4782028  29.0528145  69.6337662  32.6793709  29.4958725  70.6091232
  31.9740257  30.2671757  68.8519058  30.9384918  30.4657707  69.1281967
  32.5928001  31.1373005  69.0712280  31.8286152  30.0463963  67.7944489
  31.3527088  27.9569473  69.6820297  30.4116344  28.4206238  69.3862534
  31.5990238  27.0815144  69.0811539  31.2136822  27.5019245  71.1577225
  30.8085194  28.3084946  71.7687759  30.4545555  26.7197304  71.1581268
  32.1808395  27.1691227  71.5344925  34.8370285  29.6758480  68.7251968
  35.4537735  30.0840855  69.7107697  34.8895836  30.1523228  67.4364090
  34.3113861  29.6924095  66.7477417  35.8657722  31.1627731  67.0272980
  36.4753151  31.4542389  67.8826370  36.8153229  30.6204033  65.9581757
  36.1789360  30.0064754  65.3208313  37.3244781  31.4455585  65.4602051
  37.8324471  29.6956253  66.7230453  38.5089874  30.3006611  67.3266373
  37.2669029  29.0070133  67.3507996  38.6249733  28.9553909  65.7150040
  38.0385475  28.2783184  65.0938950  38.9669724  29.6833382  64.9793167
  39.8085632  28.3304882  66.2343292  40.6398811  28.9029636  66.2701263
  39.9998245  26.9831429  66.3779984  39.0875473  26.0461292  66.2619781
  38.1873474  26.4567165  66.0590973  39.2587471  25.0507469  66.2644424
  41.1668434  26.6071663  66.6525497  41.9480553  27.2431297  66.5793457
  41.3303108  25.6587791  66.9590454  35.1132545  32.4220085  66.4949341
  33.9418678  32.1200981  66.1295166  35.7805519  33.5972939  66.4497910
  36.7380142  33.7129784  66.7497711  35.2692680  34.7279167  65.7328796
  34.6863174  34.2985039  64.9180908  34.3454971  35.5340004  66.6803207
  33.7457237  34.8969193  67.3303223  35.0726547  36.2890205  67.6339645
  35.7025452  37.1171074  67.3089752  34.4296570  36.7648010  68.3744278
  35.6638107  35.6568413  68.2965164  33.4551697  36.4814606  65.8839111
  34.0364418  37.2523003  65.3779221  32.9315910  35.8010330  65.2123566
  32.8624077  37.0750465  66.5799026  36.3207092  35.5237846  65.0297394
  37.3607025  35.7535400  65.6830139  36.0662155  35.9600029  63.7562752
  35.2578354  35.5922546  63.2752533  36.6926994  37.1256065  63.2033539
  37.4738617  37.4014473  63.9117317  37.1259689  36.8312263  61.7581749
  37.7979851  35.9872513  61.9137383  36.1988258  36.6033478  61.2322655
  37.9731102  37.9493027  60.9629517  37.3646393  38.5379257  60.2763748
  38.1364708  38.7735596  61.6572266  39.6915703  37.3247719  60.4026184
  39.2255630  36.0482063  59.2539902  38.8070145  36.5372505  58.3743553
  40.1793289  35.5929489  58.9872055  38.6032944  35.2885399  59.7270508
  35.7095146  38.2779045  63.1818161  34.6211166  38.0835648  62.6623192
  36.0200882  39.4292068  63.7225685  36.8285828  39.4715919  64.3264236
  35.1897507  40.6082535  63.7018394  34.2690430  40.2797813  63.2196541
  34.8543243  40.9970169  65.1162109  34.5777473  40.0758553  65.6291122
  35.7647285  41.4465866  65.5126266  33.6464272  41.9651299  65.1131897
  33.8720894  42.7784042  64.4234390  32.7780609  41.3898735  64.7920685
  33.2204094  42.6652069  66.7854233  34.8041801  43.4683266  67.1614914
  34.9360161  44.1530762  66.3237305  34.5637321  44.0550270  68.0480881
  35.5199776  42.6693802  67.3549728  35.9171753  41.6345901  62.8560753
  37.0503883  42.0672150  63.1565132  35.2714462  42.1188507  61.7973938
  34.2923737  41.9005432  61.6796799  35.8999672  43.0730476  60.8843269
  36.9315987  43.2198410  61.2041550  35.9152718  42.6837425  59.4033775
  34.9074478  42.7977562  59.0041313  36.8607483  43.7059555  58.6761627
  36.5052261  44.7231026  58.8408356  37.8353577  43.5288620  59.1310005
  36.8851166  43.5405159  57.5990677  36.3582764  41.3314285  59.3461685
  37.3158226  41.2650490  59.3288879  35.2920761  44.4195328  61.1281967
  34.0664406  44.5691338  60.9796066  36.1149902  45.5001564  61.3945312
  37.1195602  45.3955727  61.3923111  35.6150360  46.8172493  61.7824287
  34.6035957  46.9216194  61.3897514  35.4578056  46.9504814  63.2922783
  34.9535027  47.8905220  63.5160980  34.7501144  45.7120895  63.9002647
  35.3965073  44.8347702  63.8762665  34.5189934  45.8889694  64.9506912
  33.8165665  45.4700127  63.3923340  36.8457718  47.0330048  63.8930283
  36.8526001  47.2809105  64.9544373  37.4518394  46.1501312  63.6897736
  37.3614922  47.9558983  63.6277084  36.4774742  47.9708862  61.1956749
  37.6305275  47.7366676  60.8851051  35.9805717  49.2220879  61.1654739
  35.0516281  49.4447250  61.4934883  36.9352531  50.3682175  61.1471367
  37.7764626  50.0223541  60.5464325  36.3358383  51.5078850  60.3068962
  37.0564919  52.2222443  59.9088364  35.8404694  51.1076927  59.4222755
  35.2904930  52.3901825  61.0891991  34.5792389  51.6966667  61.5378113
  35.7381630  52.9157867  61.9326591  34.5060425  53.3835716  60.2703171
  34.9062881  53.8770790  59.1818695  33.3620605  53.7467957  60.7720680
  33.1705551  53.5865440  61.7507133  32.7037392  54.2156601  60.1663628
  37.5025826  50.8121033  62.4595680  36.8093567  50.7447548  63.4483528
  38.7700310  51.2519455  62.5145264  39.3241081  51.4029160  61.6836815
  39.5571556  51.5014763  63.7575836  38.9520721  52.1487770  64.3923874
  39.6241455  50.1833458  64.5652542  38.7024689  49.6168251  64.4323196
  40.7492828  49.1984711  64.1935577  40.6788254  48.2698898  64.7600098
  40.7490807  49.0089493  63.1201591  41.6642914  49.7694931  64.3510208
  39.8390999  50.4927826  65.9259338  39.1546707  51.1184387  66.1743622
  40.8237877  52.2989578  63.4572029  41.5913620  51.9787064  62.5491600
  41.1085014  53.3750496  64.1888580  40.4931564  53.6040039  64.9563446
  42.3934021  54.1704063  64.1656189  42.6685410  54.1817360  63.1109734
  42.1770782  55.6615143  64.6114731  41.4678955  55.6997414  65.4383316
  43.0976601  56.1188545  64.9740601  41.6317787  56.5612259  63.5499496
  40.6953468  57.3171806  63.8213158  42.1271477  56.5788651  62.3924751
  43.4421196  53.4787560  65.0890732  44.5867538  53.9113846  65.2869492
  43.0766869  52.4458923  65.8636398  42.1139793  52.1451225  65.8104019
  43.9296722  51.6104546  66.7436142  44.4210854  52.3204842  67.4088058
  43.1032906  50.5141640  67.5003510  42.5891838  49.8563805  66.7995605
  44.0708923  49.6989250  68.3320770  44.8266678  50.2413750  68.9001007
  43.5116615  49.2125473  69.1313248  44.6779366  49.0111504  67.7433777
  42.0139961  51.1666946  68.3266144  42.4656372  51.7729874  69.1118088
  41.2971230  51.7502975  67.7490311  41.4022408  50.3261032  68.6541214
  45.0513954  51.0328178  65.8176117  44.7458496  50.4763870  64.7355423
  46.2954063  51.0174904  66.2846222  46.9408989  51.8434067  67.2593536
  46.7676201  51.4256401  68.2510910  46.5609779  52.8635139  67.2032776
  48.4233017  51.9121895  66.9740906  49.0091743  52.0412483  67.8841400
  48.7621231  52.7138977  66.3179016  48.6633835  50.5247002  66.4592819
  48.5191574  49.7939873  67.2551193  49.5627899  50.4189720  65.8526611
  47.4353065  50.2135773  65.5630035  47.5404472  50.6104355  64.5532684
  47.2176552  48.6843224  65.6242218  46.6631355  48.1945229  66.6264725
  47.6011124  47.9429169  64.5638199  47.7510414  48.4373741  63.6959877
  47.2644768  46.4936676  64.4340439  46.1901665  46.3229942  64.5035248
  47.8677444  46.1334839  63.0874786  47.2793274  46.7269440  62.3877106
  48.8517952  46.6018600  63.1067085  47.9009933  44.6885109  62.6756821
  48.4554558  44.1485367  63.4432106  46.8627129  44.3586540  62.6400108
  48.6133041  44.6665268  61.3468781  49.7493553  45.1483765  61.1479759
  48.1479836  44.0014572  60.2629318  47.1935768  43.6936989  60.1425400
  48.6880379  44.1083031  59.4161606  47.8594971  45.6169624  65.5574799
  47.1519089  44.7296982  66.0867538  49.0795898  46.0467224  66.0836029
  49.4534225  46.9037399  65.7016678  49.7708817  45.4145126  67.2059784
  49.5554085  44.3487473  67.1297150  51.2591438  45.8694305  67.2126617
  51.7819366  45.3845329  68.0370789  51.7757759  45.5964699  66.2925034
  51.4727669  47.3900719  67.2872925  52.3675652  47.8345451  68.0966873
  50.8176346  48.1199493  66.4869537  49.1692848  45.8548889  68.5855637
  49.8614235  45.5648193  69.6101151  48.0103111  46.5195999  68.6586609
  47.5911827  46.9620972  67.8532867  47.4380302  46.9407539  69.9768524
  48.0262756  46.5160866  70.7903214  47.6612473  48.4735603  70.0628815
  46.9577446  48.9567070  69.3848267  47.3641777  48.7522926  71.0739059
  49.0699387  49.0546532  69.8941727  49.4216499  48.7755051  68.9009552
  49.0644341  50.1420975  69.9685516  49.9815865  48.5722351  70.9484787
  49.6843681  48.2689896  72.1154785  51.2716866  48.5136986  70.6637955
  51.5753670  48.6452179  69.7095566  51.8468132  48.1603508  71.4151077
  45.9806480  46.5381012  70.0885315  45.3937607  46.5020866  71.1720963
  45.4569054  45.8935127  69.0584335  46.0619202  45.8331947  68.2519455
  44.0876007  45.3126144  69.1031799  43.2798157  45.9848518  69.3924713
  43.8459930  44.7105713  67.7212296  44.7334290  44.1331749  67.4620514
  42.6486130  43.7175140  67.5363617  42.7102127  43.5517845  66.4608002
  42.7580986  42.7536278  68.0333939  41.6865120  44.1205406  67.8526611
  43.8642731  45.8399086  66.6277618  44.8222237  46.3481216  66.7379990
  43.8146400  45.4307899  65.6186676  42.8188782  46.9570580  66.6095581
  42.7840996  47.4560356  67.5780182  43.0269775  47.6433525  65.7887115
  41.7988663  46.6070061  66.4509964  44.1637840  44.1863251  70.1536789
  45.2178879  43.6134720  70.2992477  43.0447769  43.9425621  70.8123322
  42.2494507  44.5259171  70.5949631  42.9746552  42.8578453  71.7942581
  43.9770546  42.4413528  71.8934402  42.6006012  43.4085541  73.2126007
  41.5622711  43.7027473  73.0595779  42.6142921  42.6823845  74.0253677
  43.5686111  44.5444870  73.7088623  44.5717239  44.1369896  73.8346100
  43.5735435  45.3782539  73.0067902  43.1418839  45.0360870  75.0718079
  42.1643639  45.4983711  74.9345169  42.9666939  44.1804466  75.7239532
  44.0617142  45.8759079  75.6679153  44.8950348  45.9954491  75.1098938
  44.0942154  46.5462723  76.8062363  43.1429367  46.5530968  77.6835251
  43.4297371  46.9870949  78.5492630  42.3241615  45.9724274  77.5715637
  45.1260605  47.2471390  77.1912766  45.1546135  47.8750687  77.9818497
  45.8422928  47.3887329  76.4933853  42.1542473  41.7215042  71.2505341
  40.9796638  41.8789825  70.9977112  42.8936729  40.6030045  71.0106430
  43.7760277  40.5224648  71.4954834  42.2176666  39.3723640  70.5101471
  41.2788239  39.6011276  70.0058212  43.1824799  38.7027130  69.5134888
  44.0621948  38.3359947  70.0423737  42.6762352  37.9193077  68.9494858
  43.6852493  39.4819717  68.4081879  42.9046707  40.0452538  67.3909760
  43.7644157  40.5926285  66.5282288  43.3716812  41.2618599  65.7770386
  44.9796143  40.5342674  67.0597153  45.7578659  41.0344734  66.6544800
  45.0153313  39.8209534  68.2151642  45.8725395  39.2336349  68.5095215
  41.9392700  38.4572983  71.6933441  42.8113060  38.3408279  72.5264282
  40.7674141  37.8956947  71.8322067  40.0705910  38.0444756  71.1163864
  40.1930122  37.4737816  73.1812668  40.9130859  37.7733192  73.9427567
  38.8299332  38.1723709  73.5680466  38.1489105  37.9785538  72.7393417
  38.3124733  37.8046227  74.9480743  39.0567780  38.0930595  75.6903152
  37.4191208  38.3533897  75.2461929  37.9140816  36.7951317  75.0495987
  38.9527245  39.7471771  73.6101303  39.2597008  40.1835403  72.6596222
  37.9521294  40.1020889  73.8570023  39.7059326  39.9792786  74.3630600
  40.0212288  35.9029541  73.1793060  39.3375626  35.3831444  72.3268661
  40.4833717  35.2479286  74.1993637  40.8329659  35.8509598  74.9302750
  40.4817543  33.7469673  74.3957062  39.7907906  33.2900734  73.6872482
  41.8778000  33.1886902  74.0856094  42.6255951  33.6054382  74.7603073
  41.7955742  32.1135979  74.2453308  42.2962952  33.3957520  72.5792999
  43.0132446  34.5150108  72.1725769  43.3307037  35.1919060  72.9519577
  43.1220436  34.7822037  70.8127747  43.5899544  35.6896286  70.4605789
  42.4853821  33.9013290  69.8782425  42.6180420  34.2191811  68.5762558
  42.6734200  33.4043121  68.0717545  41.8507614  32.7100945  70.2839127
  41.3811684  32.0301208  69.5885544  41.7141762  32.4909668  71.6547394
  41.2520599  31.5972691  72.0473709  40.0586777  33.3544769  75.7540131
  40.6529655  33.8608055  76.7401657  38.9942818  32.6033592  75.8711472
  38.4565048  32.3858871  75.0443497  38.3303719  32.1454048  77.1497345
  38.8992538  32.5644341  77.9797287  36.8907127  32.6911926  77.2438889
  36.2890472  32.2576027  76.4450760  36.3924713  32.3719101  78.1592636
  36.7481270  34.2426109  77.0312653  37.1552887  34.5102348  76.0562286
  35.2280121  34.6865196  77.0121536  35.1513062  35.7682762  76.9025192
  34.6087418  34.1466179  76.2958374  34.7156754  34.4614487  77.9475403
  37.4974251  34.9234161  78.1369934  37.0183067  34.7357635  79.0978928
  38.5637703  34.6980972  78.1216583  37.4247208  35.9917450  77.9333115
  38.3457680  30.6631393  77.4019241  38.6573639  29.9047108  76.4569092
  37.8392944  30.1877384  78.5628128  37.7912788  30.9586010  79.2136307
  37.7881889  28.7998943  78.9919510  37.7550964  28.7786865  80.0812378
  36.4877663  28.1466236  78.4526062  36.5788956  28.1225891  77.3666916
  36.5009232  27.1286926  78.8421555  35.1906967  28.8805943  78.9514923
  35.2327309  29.9421463  78.7076874  34.3901672  28.5152473  78.3082428
  34.8138771  28.5519466  80.4352036  33.8074303  29.0288372  80.9376907
  35.4644775  27.6032734  80.9377518  39.0742149  28.0067120  78.6574173
  40.0636024  28.3542442  79.1858673  38.9918060  26.9687672  77.8299332
  38.0356255  26.7846661  77.5617371  40.0410423  26.0811501  77.4309006
  40.8423576  26.0798073  78.1698151  39.4943008  24.6599312  77.2581787
  38.9275970  24.4671822  76.3472443  40.3764381  24.0197163  77.2657471
  38.5726891  24.1852798  78.4543533  37.7724419  24.8937435  78.6683197
  38.1569481  23.2318592  78.1283875  39.2093086  23.8565426  79.8122559
  40.1009331  23.2538509  79.6394272  39.4962463  24.7947578  80.2871475
  38.2320671  23.2077961  80.8061676  38.7979202  23.1201630  81.7336502
  37.3429222  23.8085136  80.9976273  37.7601013  21.8633652  80.4489670
  38.5008163  21.1967545  80.2844315  37.1064034  21.5273590  81.1417007
  37.1668282  21.8747673  79.6316528  40.6952858  26.5978909  76.1070328
  41.8435059  26.2109871  75.9531708  40.1642456  27.5470295  75.3258591
  39.2096748  27.8207588  75.5101624  40.8299446  28.1886044  74.2217407
  41.2304802  27.4784679  73.4982910  39.7453079  28.9950256  73.5052032
  39.1512260  29.5557976  74.2267990  40.1367073  29.6902657  72.7625351
  39.0441666  28.3258743  73.0064697  42.1019859  28.9893303  74.4890823
  42.7924957  29.4137611  73.5458298  42.5520287  29.0031548  75.7537918
  42.0061035  28.5982819  76.5008850  43.8935165  29.5085506  76.1161423
  43.9848824  30.4764385  75.6232452  43.9063225  29.7643375  77.6347046
  43.0132332  30.3251362  77.9103775  43.7423172  28.5068054  78.5096512
  44.6341934  27.8820934  78.5585403  43.3368034  28.5864620  79.5182724
  43.0089874  27.8457489  78.0477753  44.9873428  30.6164589  78.2265167
  44.8680038  31.6233730  77.8265533  44.8052902  30.5314465  79.2978363
  46.0138702  30.3332748  77.9938278  45.0099068  28.6689777  75.5326004
  46.0644073  29.2303047  75.2160263  44.8119888  27.3148956  75.2465591
  43.9268417  26.9013252  75.5026398  45.8575325  26.5367889  74.5346527
  46.8439560  26.6391850  74.9869614  45.4580536  25.0302544  74.4904861
  46.3529663  24.5735836  74.0677795  45.4461861  24.6677322  75.9673004
  46.3893318  24.8774509  76.4718781  44.5534630  25.1518326  76.3632736
  45.3516998  23.5936623  76.1271286  44.1921997  24.7031841  73.8022385
  44.0483437  23.6228313  73.7868271  43.3221321  25.1701775  74.2637634
  44.2851067  24.9877033  72.7541351  45.9708405  26.9539890  73.0818863
  46.9372940  26.6542778  72.4049683  45.0202026  27.7839527  72.5802307
  44.1934395  27.9436302  73.1379623  45.2644615  28.5369225  71.3096695
  45.6566811  27.8179817  70.5903702  43.8715515  28.8675995  70.7585220
  43.3921776  29.6583347  71.3356171  44.1865311  29.2213993  69.7768326
  42.8788719  27.8063908  70.3974609  42.5721626  27.2936039  71.3090973
  41.4870415  28.3024578  69.9575119  41.0729828  29.0358238  70.6494827
  41.6491547  28.7113323  68.9601898  40.8052711  27.4705143  69.7809677
  43.2446213  26.6587524  69.4320602  43.4882545  27.0586338  68.4477615
  44.1997871  26.2140713  69.7113800  42.4582443  25.9048309  69.4682999
  46.2665329  29.7157898  71.3599625  46.8701935  30.0829525  70.3798523
  46.5152855  30.1629238  72.5640182  45.9746017  29.7495899  73.3102875
  47.4834518  31.1913471  72.8468857  48.2743950  31.2657833  72.1005859
  46.7100945  32.5415421  72.9344482  45.8694077  32.4083672  73.6153336
  47.2879448  33.2893295  73.4775925  46.3847618  33.1710739  71.5290756
  45.7672157  32.4910774  70.9422684  45.8663483  34.0936012  71.7904129
  47.6872978  33.5832520  70.7954102  48.3200607  32.7076378  70.6504211
  47.4864273  33.8410912  69.7555695  48.4489975  34.6793442  71.5519638
  49.2819252  34.4767609  72.0860901  47.9602585  35.9204521  71.7360153
  47.0078125  36.4539299  71.0366135  46.6324272  37.3767471  71.2027206
  46.5563354  35.8354568  70.3780060  48.4755211  36.7225189  72.6397095
  48.1016312  37.6255112  72.8944931  49.2227745  36.3294182  73.1939545
  48.2344475  30.7954960  74.1961517  48.0055008  31.5217419  75.1967926
  49.1272736  29.8072281  74.1748123  49.4673080  29.0111980  73.0214691
  50.0479698  29.6778393  72.3838806  48.5352821  28.6468582  72.5894012
  50.2981529  27.7769833  73.5286560  50.9815903  27.4276104  72.7547302
  49.5432358  27.0296211  73.7729034  50.9786377  28.3428345  74.7266998
  51.8667297  28.8260403  74.3193893  51.1631966  27.5235691  75.4215698
  49.9368744  29.3759098  75.3405685  49.3768692  28.8602085  76.1206589
  50.7762604  30.5172100  76.0316925  51.2232246  30.2523327  77.1164780
  50.9104195  31.7392654  75.5220795  50.5195541  31.8751240  74.6007385
  51.4974480  32.8961792  76.2040939  52.3592796  32.7300720  76.8504333
  52.0598679  33.9785538  75.2039642  52.4597816  34.8136559  75.7790985
  52.8642426  33.4670181  74.6753693  50.9960709  34.5617104  74.2024231
  50.6796570  33.7971954  73.2809677  50.4003677  35.6298752  74.4804077
  50.4738731  33.5419350  77.0984344  50.8887405  34.2522430  78.0858002
  49.1310692  33.3944244  76.9332733  48.7655869  32.7438469  76.2526245
  48.0619202  33.8284187  77.8079910  48.4626579  34.7628212  78.2009277
  46.7671928  34.0923386  77.0440674  46.4298859  33.1599159  76.5913925
  46.0735893  34.3598022  77.8412399  46.7430038  35.1291771  75.8859634
  47.4258194  34.9224510  75.0618668  45.3040352  35.1476212  75.1976547
  45.0960808  34.2186432  74.6667404  44.4893646  35.3588943  75.8903122
  45.2596931  35.8379097  74.3552551  47.0314674  36.5276031  76.4490280
  46.3618965  36.9160500  77.2164154  48.0476112  36.6076469  76.8352203
  47.0437241  37.3010483  75.6810837  47.8689880  32.9088516  79.0420303
  47.4419937  33.3416138  80.0704880  48.1981087  31.5964851  78.9759750
  48.7218018  31.2656155  78.1782455  48.1874390  30.5733566  80.0394897
  47.1225739  30.3641796  80.1415558  49.0398712  29.4024296  79.5190506
  48.7097015  28.9231720  78.5974274  50.0391045  29.8020325  79.3459930
  49.1197166  28.3199406  80.4597244  48.2052574  28.0675888  80.6069717
  48.7229347  31.0450439  81.3766174  49.8695374  31.3955059  81.4369812
  47.9338570  30.8909760  82.4281693  47.0120811  30.4979763  82.3017502
  48.3423424  31.4535637  83.7846832  47.5127640  31.4030800  84.4899139
  49.4671135  30.5449543  84.3602753  50.4700851  30.7541523  83.9882660
  49.5648727  30.7966652  85.4162979  49.1593857  29.0145836  84.2801590
  49.1844444  28.7139835  83.2327271  50.1868286  28.2372665  85.0867767
  51.1423607  28.6382504  84.7487335  50.1281013  28.2969284  86.1735611
  50.2873611  27.2230206  84.7003860  47.8349037  28.6782646  84.8839951
  47.7884369  28.9813213  85.9299927  47.0678635  29.1203709  84.2481537
  47.6951332  27.6038952  84.7644653  48.7463074  32.9404068  83.9434509
  49.5515366  33.3816986  84.7719955  48.0287552  33.7572479  83.1318207
  47.2503166  33.4122849  82.5885544  48.0517082  35.2246590  83.2611160
  49.1166229  35.4224739  83.1389236  47.1544571  35.8490219  82.1212692
  47.6448784  35.5970078  81.1810150  45.7057953  35.2853088  82.0538635
  45.6982727  34.1968689  81.9960480  45.0814247  35.6735458  82.8585587
  45.3056259  35.6558228  81.1101074  47.2848282  37.2760239  82.4186172
  47.6644287  37.6418190  81.6163025  47.5648575  35.7117043  84.5922852
  46.6938019  35.0848198  85.2163620  48.1820602  36.7471962  85.1280441
  48.9875832  37.1407166  84.6628799  47.6784096  37.3457298  86.3549805
  47.5658379  36.6084671  87.1498871  48.7490730  38.3871422  86.8099213
  48.4096031  38.8909607  87.7149277  49.7196083  37.9451637  87.0353470
  48.9996681  39.4358025  85.7286453  49.2239342  39.0055466  84.7525864
  48.0842552  40.0239105  85.6634750  50.1112709  40.3960915  86.1609573
  49.8663979  40.8706894  87.1111603  50.9761314  39.7830887  86.4146500
  50.3940163  41.4414902  85.1535339  51.2916336  41.9461098  85.5109406
  50.6599274  41.0029793  84.1917114  49.3175430  42.3429375  84.9334183
  49.2256584  42.9644165  85.7242508  49.3528442  43.0638695  84.2269363
  48.4399796  41.8443222  84.8964081  46.3074341  38.0947151  86.2827148
  45.7274780  38.3515701  87.3129044  45.8819962  38.4223824  85.0537643
  46.4810982  37.9676361  84.3796844  44.6798058  39.0397415  84.6401672
  44.5170174  40.0018654  85.1258850  44.8863106  39.4147263  83.2114029
  45.7798004  40.0274429  83.0915985  45.1396103  38.4936867  82.6864090
  43.6981735  40.0671730  82.5767365  42.6766624  40.3776245  83.1589050
  43.8876038  40.3470078  81.3394928  44.7188911  40.0428619  80.8531265
  43.3012161  40.9873352  80.8235092  43.4327812  38.2845993  84.9733887
  43.1906853  37.1315575  84.5169907  42.6216202  38.8628044  85.8284760
  42.8465309  39.8048553  86.1149368  41.4213638  38.1779022  86.2893600
  41.6094208  37.1427956  86.5744781  40.7471199  38.7660522  87.5512619
  39.9565697  38.1483917  87.9774475  41.7934074  38.8325500  88.6897583
  42.6489143  39.4099693  88.3393402  41.4135971  39.2908936  89.6028595
  42.2312431  37.8565254  88.8989944  40.4357834  40.1469002  87.3084717
  39.6999245  40.2350273  86.6982727  40.4539413  37.9302292  85.1470795
  39.6925659  36.9904861  85.3087234  40.4362411  38.7256432  84.0553589
  41.2205620  39.3604965  84.0117569  39.3945427  38.8155136  82.9908752
  38.4275856  38.8373299  83.4934921  39.4508133  40.1612091  82.2434616
  40.3974495  40.1285820  81.7041016  38.6981735  40.2114944  81.4566269
  39.4523468  41.4480476  83.1201553  40.4013672  41.5620613  83.6440506
  39.2293434  42.2474060  82.4134750  38.4022064  41.4784050  84.2249908
  38.7131310  41.0936165  85.4119415  37.2177162  41.6825981  83.8735657
  39.2883415  37.5759811  82.0252991  38.2342834  37.3918457  81.4445190
  40.3106613  36.7103500  82.0395203  41.0012360  36.7732468  82.7738571
  40.5524673  35.7493401  80.9069138  39.7458916  35.9059029  80.1906433
  41.8432579  36.0595207  80.1198349  42.7240524  35.7347488  80.6737518
  41.8056335  35.3266106  79.3139038  42.0481834  37.4940948  79.5143509
  42.1342201  38.1939545  80.3455505  43.3383141  37.5841331  78.7240829
  44.1334457  37.3657074  79.4369278  43.3736076  36.9580307  77.8325348
  43.4260826  38.5691185  78.2656021  40.8002014  37.8838768  78.6848984
  40.9276390  38.8506508  78.1978531  40.6253624  37.1400795  77.9075394
  39.9628983  38.0499268  79.3627319  40.4209976  34.3150902  81.3690186
  40.8132133  34.1018562  82.4950562  39.8416443  33.4664001  80.6333160
  31.7451591  57.6959381  53.2387619  31.0197773  57.4282417  53.8885803
  32.6340141  58.0008163  53.6090088  31.3572025  58.3820038  52.6071739
  32.0349808  56.5696411  52.3420792  31.0787735  56.1998177  51.9719467
  32.8899727  56.8617477  51.1147041  32.5277901  57.7657051  50.6250229
  33.9292908  57.0718651  51.3672295  32.9000931  55.8371391  50.0002861
  31.8733292  55.6132660  49.7109108  33.4264488  56.3191795  49.1764565
  33.5869446  54.2141151  50.3483658  35.3013611  54.5927925  50.6483917
  35.4648323  54.9908028  51.6498718  35.8506966  53.6537132  50.5815392
  35.5307083  55.2835732  49.8370247  32.6949730  55.5276718  53.1987228
  33.6479912  55.8617477  53.9033508  32.1176643  54.3305244  53.2252045
  31.3228149  54.2301826  52.6101875  32.6233673  53.2688179  54.0789642
  33.7024803  53.4216995  54.0634155  31.8819504  53.4487305  55.4750137
  32.0237274  54.4484711  55.8855247  30.8021317  53.3003502  55.4662666
  32.4375648  52.4379654  56.4119568  32.1655273  51.4566193  56.0232925
  33.5270500  52.4652405  56.3925171  31.8142357  52.7674828  58.0479202
  32.0116959  51.1083527  58.7258492  33.0778351  51.0176735  58.9337616
  31.4743862  51.0574417  59.6728477  31.5328083  50.4660645  57.9867668
  32.3831940  51.8888245  53.4760818  31.3665962  51.6122971  52.8451004
  33.3801727  51.0518150  53.6296425  34.1939430  51.2541618  54.1926117
  33.3298950  49.6722336  53.1344452  32.8538933  49.4666824  52.1756554
  34.7050705  49.0735664  53.0225716  35.2306786  49.3751793  53.9285889
  34.7551880  47.5320854  52.8592873  34.5125046  47.1634369  51.8626404
  35.7093964  47.1395073  53.2106819  34.0266457  47.1286812  53.5625572
  35.5343437  49.8348122  51.9125938  35.1851196  49.4651794  50.9484787
  35.2736778  50.8927460  51.9430351  37.0227432  49.7470322  51.9791794
  37.3922195  48.8336296  51.5130310  37.3536911  50.6463356  51.4597321
  37.3098640  49.7234039  53.0304184  32.3877525  48.9719887  54.1678238
  32.5542564  49.0416603  55.3366203  31.2612724  48.3761559  53.6815948
  31.1312504  48.6923599  52.7312202  30.2888966  47.5450020  54.4455223
  30.7093468  47.3377953  55.4295883  28.9004478  48.3141975  54.5916061
  28.4775562  48.6158028  53.6333275  28.1295261  47.7027245  55.0605202
  29.1112881  49.6135674  55.3302536  29.6618443  49.3946419  56.2451630
  29.7133389  50.3182259  54.7565765  27.8337593  50.3041611  55.7696571
  27.2485428  50.5467720  54.8826637  27.2671585  49.5626373  56.3328705
  28.0146141  51.5607796  56.4422684  27.7018871  52.3841782  55.9479828
  28.3833961  51.7825317  57.7263145  28.9319859  50.8099327  58.5077782
  29.2390671  51.0632629  59.4360199  28.8724194  49.8339462  58.2547951
  28.5387306  52.9280777  58.2006149  28.4710579  53.6993561  57.5520363
  28.9577713  53.1106949  59.1012573  30.0481586  46.1699104  53.8233337
  30.2425613  45.8876381  52.6095734  29.5349255  45.2914162  54.6702385
  29.6183319  45.6322899  55.6173134  29.0756168  43.9304848  54.4275284
  29.7582397  43.4813385  53.7061462  29.2173634  43.4064331  55.3727150
  27.5826130  43.8287163  53.9657860  26.6579399  44.3452492  54.5946350
  27.3615437  43.0170746  52.9281082  28.1860485  42.7449226  52.4121361
  26.1460953  42.3816071  52.4380379  25.2413712  42.8841591  52.7801208
  25.9246502  42.6350517  50.9245911  26.8501244  42.3881340  50.4043617
  24.8654118  41.7250557  50.1598396  23.8926048  41.9190903  50.6116142
  24.8810349  41.9513893  49.0937119  25.0433350  40.6834869  50.4273949
  25.7180519  44.1417732  50.7108459  24.6686268  44.3117294  50.9515114
  26.3989506  44.7198334  51.3356094  26.0304375  44.7030258  49.4026718
  25.6173592  45.7075768  49.3113670  27.0553398  44.6663857  49.0334396
  25.4504795  44.2020226  48.6275940  26.0538559  40.9023743  52.6816521
  26.9602642  40.2042618  52.3063126  24.9413719  40.4406624  53.3151970
  24.3249016  41.1332512  53.7156754  24.4710789  39.0340919  53.4580040
  25.3156109  38.3494759  53.3794289  23.9467144  38.8332291  54.9070549
  23.3696499  39.7281227  55.1400070  23.2959557  37.9742966  55.0709114
  25.0602760  38.8443108  55.9619751  25.5231647  39.8253479  55.8552322
  24.6765461  38.7235909  56.9750290  26.1382217  37.8061447  55.8671875
  26.6860447  38.1306000  54.9824715  26.7353172  37.8581352  56.7776146
  25.5926170  36.4885979  55.6043625  26.0197582  36.0422363  54.8053551
  24.6092110  35.8410072  56.1533318  23.8090630  36.3060303  57.0232735
  24.1130371  37.0567856  57.6266556  22.9428883  35.7957382  57.1204529
  24.1738739  34.7308121  55.6673965  24.8344879  34.2164955  55.1024437
  23.5119362  34.1877747  56.2031670  23.4685116  38.5882797  52.3789177
  22.7418880  39.4137802  51.8204575  23.5528927  37.2520447  52.0836525
  24.1958694  36.6206017  52.5396805  22.5220013  36.5846214  51.2667618
  21.5334320  36.8676186  51.6283493  22.5719604  36.9545784  50.2426834
  22.4971790  35.0164299  51.4042397  23.5710773  34.4339828  51.6520882
  21.3253860  34.4940453  51.0116196  20.5846386  35.1606789  50.8473358
  21.1713505  32.9579659  51.1164093  22.1445503  32.6094666  50.7706680
  21.0556889  32.4773712  52.5872116  21.8327503  32.9409637  53.1949577
  20.1176891  32.8585663  52.9908829  20.9844036  31.3909817  52.5345116
  20.0586262  32.2708168  50.2711754  19.0576763  32.8468857  49.8872910
  20.4119110  31.0383682  49.8550034  21.2905464  30.5902367  50.0724449
  19.6447620  30.2792530  48.8868599  18.5597420  30.3387260  48.9722786
  19.8610516  30.9076004  47.5301132  19.7542953  31.9923401  47.5234871
  21.1696701  30.5574989  46.8401451  22.0174179  30.6530190  47.5185928
  21.1891136  29.5417747  46.4451408  21.3089886  31.2686176  46.0258942
  18.8123207  30.4314060  46.6328430  18.6515312  31.0208149  45.8923378
  19.9092045  28.7680893  48.8607368  20.8609810  28.2551422  49.4780464
  19.1132984  28.0031147  48.1249046  18.4486904  28.4618320  47.5182953
  19.0703945  26.5450478  48.2505035  20.0834980  26.2174549  48.4837494
  18.0191860  26.0587120  49.3298645  18.2694817  25.0200539  49.5458298
  18.0489044  26.8916378  50.5812988  17.1924553  26.5347042  51.1533089
  18.9208412  26.7015305  51.2071457  17.9011841  27.9529705  50.3816795
  16.7215843  26.2468090  48.7486191  16.5940571  25.5757256  48.0740929
  18.7235832  25.9217873  46.8984146  18.2332745  26.5890579  45.9725571
  18.9284763  24.5848217  46.7877884  19.3248615  23.9918880  47.5029144
  18.7279587  23.7895126  45.4921036  18.0778122  24.2770214  44.7656403
  20.1298122  23.5017357  44.8148994  19.9447117  23.1460514  43.8013268
  20.8357658  24.7878685  44.5209999  20.2149429  25.6407986  44.2468033
  21.3370380  25.1436348  45.4211464  21.5969162  24.6912441  43.7467842
  21.1708069  22.5938606  45.4807587  20.8485832  21.5574627  45.3800240
  22.1756763  22.6819820  45.0677567  21.2393513  22.7801991  46.5525246
  18.1458035  22.4423218  45.8490829  18.4667282  21.8848915  46.9525490
  17.3609924  21.8535404  44.9607925  16.9709511  22.4077110  44.2118835
  16.7205429  20.5222645  45.2399139  16.4967365  20.6265011  46.3015862
  15.4088345  20.4126091  44.4633789  15.6280642  20.3850327  43.3960075
  14.9520187  19.4236145  44.4995918  14.3252888  21.4564419  44.7859306
  14.7499008  22.4465294  44.6200104  13.5275364  21.4387188  44.0433846
  13.8748550  21.2364330  46.2717323  14.0954685  22.1400185  47.1618576
  13.3679237  20.1455402  46.5432625  17.6101646  19.2417622  45.0030441
  17.3320351  18.1571503  45.5065002  18.5780563  19.3846245  44.1028214
  18.7634525  20.3274288  43.7916107  19.4201908  18.2895451  43.5234451
  19.3201828  17.4907837  44.2583466  18.8357353  17.9751835  42.1763191
  17.8032970  17.6593475  42.3260574  18.8245506  18.9219856  41.6363754
  19.5042725  16.8397408  41.3677597  20.5799751  16.9900455  41.2762680
  19.3294792  15.9123077  41.9131203  18.8759937  16.7935333  40.0096321
  17.8433228  16.4468651  40.0485306  18.7719307  17.7702522  39.5370903
  19.6831703  15.9109087  39.1705360  20.0045910  15.0539532  39.5976372
  19.8740063  15.9718580  37.8356667  19.4190521  16.8292236  36.9541473
  18.9515381  17.7022514  37.1525192  19.6279659  16.5308971  36.0120964
  20.5421104  15.0275612  37.2170525  20.8128986  14.2256060  37.7680893
  20.6939316  15.1318245  36.2239876  20.8603973  18.8116474  43.4703598
  21.0152397  19.9194813  42.9986191  21.8415642  17.9707527  43.7735252
  21.6606827  17.0778465  44.2095337  23.2986336  18.3103981  43.5840302
  23.3483810  19.3589268  43.8776550  24.0536251  17.4720783  44.5872040
  23.6305122  17.6618710  45.5736427  23.8327770  16.4046860  44.5862617
  25.5537968  17.6263809  44.5102119  26.0771427  18.7620506  44.4082718
  26.2546368  16.6055927  44.6006279  23.8996315  18.2871799  42.1465073
  24.3855133  17.2236576  41.7281189  23.9244232  19.4223747  41.4689102
  23.4448757  20.2016735  41.8964920  24.3964615  19.4355526  40.0816269
  25.3382339  18.8914394  40.0101738  23.3604774  18.7318001  39.1625099
  23.2641373  17.7071285  39.5214882  21.9591331  19.3021660  39.0440483
  21.3889732  19.3778343  39.9699478  21.9487438  20.2870903  38.5772324
  21.3851967  18.7088375  38.3322525  23.9657803  18.5657272  37.8290367
  24.3972893  17.7086239  37.8012276  24.6255951  20.8788338  39.5666542
  24.2126827  21.7399902  40.2519798  25.4518929  21.0587139  38.5158501
  25.9121628  20.2435226  38.1367531  25.9615154  22.4186325  38.1445732
  26.2653923  22.9825058  39.0265045  27.1062050  22.3810787  37.1593933
  26.8840981  21.8924026  36.2107277  27.3204365  23.4366055  36.9918671
  28.4386311  21.7260838  37.6045685  29.2611618  22.3440723  37.2445259
  28.5774288  21.8278751  38.6808929  28.6012306  20.2290955  37.1348457
  29.6111431  19.9380569  36.4671860  27.6700630  19.3924789  37.4106979
  24.8505516  23.1685219  37.4709091  24.8479729  24.3534546  37.5083466
  23.8689194  22.5818863  36.7976456  23.8101540  21.5741024  36.8296051
  22.6806107  23.2976189  36.2833900  23.0802116  24.0651169  35.6205368
  21.9962616  22.3440609  35.3228531  21.2463799  22.9023190  34.7623863
  22.7059002  21.9712257  34.5842705  21.4215393  21.0791817  35.9917831
  22.2826748  20.4632664  36.2510033  20.8552227  21.3217335  36.8909836
  20.5948658  20.2398968  35.0402603  19.3704300  20.2128067  35.1042709
  21.1545792  19.6409454  34.1061707  21.8114319  23.8359699  37.3930473
  21.0071659  24.7242756  37.1543427  21.8292141  23.2127514  38.5416946
  22.6816330  22.6739464  38.5980797  21.2153473  23.6676636  39.8175621
  20.2823544  24.2070332  39.6541405  20.8684216  22.3762531  40.6996384
  21.8130016  21.8325462  40.6838455  20.6668491  22.6326275  41.7397079
  19.7306118  21.5044289  40.1926651  20.1304798  21.0456657  39.2883720
  19.5896130  20.7843075  40.9986687  18.3862934  22.1749992  39.8574867
  17.7159882  21.6521244  38.9960442  18.0573273  23.2737637  40.3499718
  22.0960751  24.6330204  40.5380402  21.6205177  25.7430420  40.8381577
  23.3840370  24.3910885  40.8427620  23.6165905  23.4180088  40.7044296
  24.0840187  25.0942478  41.8870277  23.3265419  25.3546772  42.6262894
  25.2298203  24.2495880  42.5412254  25.7669849  23.7877579  41.7128105
  26.2853527  24.9062366  43.3489494  26.7600403  25.6839886  42.7507210
  25.7710915  25.4317894  44.1535797  26.9896832  24.2737865  43.8893471
  24.5604019  23.0483894  43.2670288  24.2221241  23.2838192  44.2761078
  23.7635174  22.6427212  42.6437187  25.4881153  21.8178406  43.4763412
  25.5851040  21.1302872  42.6361275  26.4580173  22.1147270  43.8754005
  25.0796947  21.2524033  44.3139420  24.6243496  26.3751526  41.3492203
  24.6430511  27.3321800  42.0937805  25.1102333  26.4282722  40.1148262
  24.8923645  25.6722546  39.4815216  25.5571060  27.6883583  39.5551109
  26.2444801  28.1493034  40.2644424  26.3016167  27.5279808  38.2669106
  25.5062790  27.3691864  37.5386810  26.7816334  28.4123154  37.8478241
  27.3782482  26.4844170  38.0915451  26.9356995  25.5018291  38.2551804
  28.0348473  26.6233158  36.7029762  28.9407997  26.0173626  36.6898079
  27.3798275  26.3144512  35.8883247  28.2734909  27.6498623  36.4248581
  28.3568745  26.7840748  39.2478371  28.0062370  26.6040173  40.2640686
  29.1166878  26.0122433  39.1251259  28.7405872  27.8024368  39.1862030
  24.4610901  28.6988697  39.3930969  24.5567265  29.8757343  39.7085190
  23.4318027  28.1590023  38.7980804  23.6332455  27.2436733  38.4216537
  22.2705479  28.9570599  38.3132896  22.6960907  29.7716827  37.7272797
  21.3788109  28.1408043  37.3253403  21.9753723  27.5451260  36.6344109
  20.7874088  27.4718266  37.9504890  20.3903828  29.0034771  36.5168686
  19.6409168  28.3595657  36.0566750  19.8375587  29.6026535  37.2403870
  21.0111694  29.9490681  35.5219765  22.1004295  29.7410431  35.0822334
  20.2619991  30.9151268  35.0664177  19.2887802  31.0225773  35.3142090
  20.5996666  31.3829441  34.2374268  21.4660130  29.6031322  39.4991188
  21.0917702  30.7799969  39.4124031  21.2829418  28.8539715  40.6051636
  21.4379921  27.8797951  40.3882713  20.6843414  29.2014236  41.9546852
  19.8187637  29.8206177  41.7191544  20.2175789  28.0736752  42.8260002
  20.8828049  27.2260380  42.6614037  20.1697540  28.4360523  43.8528862
  18.8207283  27.5668449  42.3997574  18.4169312  27.0340538  43.2606773
  18.1115341  28.3879509  42.2952194  18.7087898  26.6721573  41.2280426
  19.1855717  27.2296486  40.4218292  19.2555599  25.7441216  41.3950768
  17.2640686  26.3987827  40.8239594  16.8098793  25.8291969  41.6347504
  16.7458878  27.3541603  40.7412262  17.1378574  25.6180668  39.5227051
  16.1987457  25.3152332  39.3071594  17.3694286  26.2306595  38.7538033
  17.7482986  24.8157711  39.4611816  21.5885658  30.2410488  42.6321907
  20.9957943  31.3397369  42.9144630  22.8885021  30.0098591  42.7479630
  23.2190285  29.0781002  42.5413704  23.8166122  31.0893936  43.2265625
  23.6088676  31.3975830  44.2512360  25.2821045  30.5033455  43.2637215
  25.6134434  30.2651062  42.2529984  26.1628170  31.4671860  44.0499268
  26.5807590  32.1330452  43.2949028  25.6155910  32.1193199  44.7306366
  26.8977585  30.9065247  44.6275291  25.1753101  29.2859745  44.0121002
  25.0926361  28.4993629  43.4680328  23.7935371  32.3401909  42.3495522
  23.4952717  33.4020004  42.9555435  23.8582287  32.2506676  40.9684143
  24.1117725  31.3600502  40.5651588  23.6005077  33.3776321  40.0280190
  24.3854694  34.1236610  40.1520081  23.6658649  32.8577309  38.6070213
  24.6898041  32.5188446  38.4495239  23.0024452  31.9932938  38.5800591
  23.1876602  33.8104324  37.5187721  22.1955986  34.2295074  37.6869583
  23.9105625  34.6248398  37.4713287  23.2940960  33.0332832  36.1900787
  24.2335529  32.4826317  36.2380371  22.4983921  32.2883301  36.1893425
  23.2970200  33.8863602  34.9157753  24.0005302  34.7028847  35.0784454
  23.5300217  33.2502861  34.0618286  22.0000248  34.4634552  34.5549126
  21.5528088  35.0506706  35.2443199  22.0604362  35.1238632  33.7931290
  21.3966007  33.7687874  34.1384773  22.2558842  34.1190109  40.3155212
  22.2228088  35.3767662  40.4772949  21.1014824  33.4922752  40.4411240
  20.9261093  32.5050621  40.3196526  19.8472576  34.2678070  40.6376266
  19.6579056  34.9317284  39.7941475  18.7836075  33.2591515  40.5018539
  18.9465923  32.3790436  41.1239052  17.8358994  33.6678810  40.8524055
  18.4500904  32.7850838  39.0949020  17.9341507  33.5177917  38.4743805
  19.4047165  32.5312691  38.6340637  17.6387157  31.5249825  39.0618896
  17.1705952  31.0333920  40.0488663  17.5975437  30.8892403  37.9577751
  17.9829903  31.2649155  37.1031418  17.0841007  30.0196533  37.9750023
  19.8817005  35.0477066  42.0278244  19.4789219  36.1866989  41.9378586
  20.5215054  34.5723381  43.0868111  20.9869118  33.6818352  42.9843445
  20.7922878  35.3350983  44.3300018  19.8282890  35.8112869  44.5090256
  21.2384796  34.3714600  45.4320107  20.4814281  33.6230812  45.6663322
  22.1262646  33.9285126  44.9806442  21.7421417  35.0576935  46.7683525
  22.4940319  35.8042259  46.5125198  20.5713634  35.6712608  47.5494843
  19.7899170  34.9725075  47.8481178  21.0373707  36.0570679  48.4561768
  20.1924381  36.5220337  46.9831772  22.4065647  33.9358444  47.7195168
  23.0251808  33.2409248  47.1516304  22.9466820  34.3603554  48.5657806
  21.6134377  33.3038254  48.1190147  21.6842098  36.5535660  43.9899864
  21.2773056  37.5987320  44.4776878  22.7910500  36.3078423  43.2515793
  23.0339699  35.3881187  42.9121704  23.8111076  37.3385162  42.9670868
  24.2446671  37.8440552  43.8299751  25.0226173  36.8191986  42.1921196
  24.6764355  36.2438164  41.3335190  25.5499477  37.6468163  41.7177010
  25.9855003  35.9438210  42.9625015  25.4058170  35.1056023  43.3490906
  27.1346512  35.4344101  42.1212959  27.7800674  36.2555809  41.8094902
  27.5481949  34.6392212  42.7415810  26.6564102  34.9754028  41.2560158
  26.5546265  36.6620445  44.1899719  27.0046558  37.6306343  43.9722366
  25.7630005  36.7763176  44.9304924  27.3459492  36.0466652  44.6180153
  23.2398968  38.4429436  42.1142082  23.1744919  39.5411720  42.6001549
  22.6399097  38.1172180  40.9627151  22.4640026  37.1606064  40.6905632
  21.9358215  39.0704651  40.1593704  22.6087456  39.8468628  39.7953873
  21.3136559  38.4048958  38.8741989  20.7701550  37.5200768  39.2055664
  20.5918159  39.1307907  38.4998665  22.3492031  38.1179657  37.8665810
  22.7437305  39.0834503  37.5498924  23.2021618  37.5499954  38.2380257
  21.7132969  37.5296555  36.5901871  21.7161102  38.2397346  35.5434113
  21.2504711  36.3285751  36.5551033  20.9348736  39.8927345  41.0028191
  20.7752781  41.1012344  40.7844658  20.1619320  39.2478905  41.8792152
  20.3700981  38.2692413  42.0171280  19.1501961  39.8087997  42.8038025
  18.5564651  40.5179024  42.2269478  18.1551495  38.6785126  43.2851410
  17.7394009  37.9894943  42.5499458  18.6718178  37.9117165  43.8623581
  16.9849396  39.3158226  44.1787567  16.4039669  38.4635849  44.5312691
  17.2926884  39.9921494  44.9762344  16.0467377  40.0578423  43.1927605
  16.1974449  39.8069649  42.1427879  15.0364046  39.6829910  43.3565102
  16.1629143  41.5434380  43.3922234  15.8742046  41.7242775  44.4276237
  17.1511383  41.9543915  43.1857491  15.1313162  42.3059196  42.5240097
  14.2966337  41.7694740  42.3352470  14.8819141  43.1726761  42.9785767
  15.4957771  42.4535599  41.5937042  19.7027569  40.6871872  43.9463921
  19.1530228  41.7534752  44.2612953  20.9197788  40.3954239  44.4217148
  21.4015808  39.5559845  44.1330833  21.6582355  41.2322083  45.3421974
  21.0180759  41.4429359  46.1988716  22.9049873  40.3940849  45.8223152
  23.1071682  39.6701698  45.0329018  24.1613197  41.2895851  45.9803391
  24.4681759  41.7787704  45.0558739  23.8960323  42.0047684  46.7589531
  25.0453510  40.7534752  46.3255615  22.6444492  39.5344582  47.0917740
  22.5008831  40.2700920  47.8831863  21.7147999  38.9956665  46.9085846
  23.7629890  38.5752220  47.3781662  24.5793896  39.1374588  47.8314590
  23.5327187  37.6917801  47.9736557  23.9969234  38.2298889  46.3711319
  22.0748634  42.5789948  44.6754608  21.9835281  43.6779594  45.2399368
  22.5662174  42.4802132  43.4661484  22.6737843  41.5188904  43.1756516
  23.1104965  43.5368500  42.7047157  23.7671757  44.1708450  43.3004684
  23.8922577  43.0777664  41.4278069  23.1828098  42.4978180  40.8375168
  24.3386269  44.2506599  40.4908485  25.0325241  43.8548889  39.7492409
  23.4550858  44.7333946  40.0732079  24.8140583  44.9245720  41.2035255
  25.1066647  42.2793770  41.8387642  25.9576283  42.9521217  41.9454231
  24.9395027  41.7161598  42.7568893  25.5299034  41.3129997  40.8022842
  26.3925934  40.7366562  41.1364899  24.7093220  40.6687889  40.4864655
  25.8221226  41.7903023  39.8669281  21.9838333  44.3996010  42.1542664
  22.0456676  45.5833397  42.1142845  20.7718639  43.8321800  41.9392586
  20.6615715  42.8399162  42.0920448  19.5045128  44.6100082  41.6013527
  19.7967434  45.4783363  41.0108376  18.3620625  43.8481941  40.9119530
  18.7367077  43.0513573  40.2694664  17.7361450  43.3578720  41.6575470
  17.4396172  44.7290421  40.0220146  17.0804901  45.6166840  40.5427971
  17.9697971  45.1492615  39.1673622  16.2653732  43.9022789  39.4915810
  15.5888653  44.4808884  38.5614891  15.8066387  42.8800049  39.9933891
  18.9045048  45.2601509  42.8818054  18.1437740  46.2029495  42.7845535
  19.2973747  44.8186874  44.0725746  20.0008640  44.0963478  44.0140228
  18.9330540  45.3975487  45.4170570  18.0170212  45.9792328  45.3139648
  18.5946140  44.2597618  46.3651314  19.2686462  43.4425621  46.1082916
  18.8379326  44.4257698  47.4145775  17.1682720  43.7462692  46.2164345
  16.9711189  43.6500854  45.1487350  17.1680660  42.7409134  46.6375809
  16.0491238  44.5019569  46.9956665  16.1117458  45.7531509  47.2879868
  15.1521378  43.7854424  47.4482460  19.9354496  46.4244728  46.0772247
  19.4978123  47.3598518  46.7715302  21.2403412  46.3001671  45.8683548
  21.4553165  45.3688202  45.5420494  22.3074646  47.1656609  46.3959122
  21.9530869  47.8192825  47.1929703  23.3197498  46.2101250  47.1368141
  23.6861515  45.4514465  46.4452553  24.1857224  46.7772293  47.4782677
  22.7481041  45.5414543  48.3710022  22.6671410  46.0714378  49.3944778
  22.3825817  44.2743073  48.2473869  22.0452518  43.8090096  49.0779305
  22.4203949  43.7915115  47.3610573  23.1097183  47.9772682  45.3592300
  23.9887257  48.7237396  45.7116241  22.8274097  47.6877823  44.0888863
  22.0752335  47.0481720  43.8762054  23.4922657  48.3817711  42.8853607
  23.3132076  47.6708832  42.0787163  22.8070412  49.7190132  42.4986038
  23.0876217  50.6330223  43.0220184  23.0051174  49.9041176  41.4428558
  21.2508316  49.7133026  42.6285057  20.4528008  49.0626106  41.7949562
  20.6310978  48.8012276  40.8357964  19.2620258  49.0585480  42.3537407
  18.3594284  48.5891991  41.9912033  19.3248920  49.6367455  43.5639915
  18.6188984  49.7725525  44.2733803  20.6387672  50.0818138  43.7622223
  21.0391407  50.5455399  44.6516380  25.0286140  48.3725815  43.0451927
  25.7199650  49.3944588  42.9794159  25.5027561  47.1343117  43.2799149
  24.8583355  46.4150238  43.5756340  26.9098949  46.9150505  43.5185165
  27.3627720  47.7522469  44.0496559  27.2242832  45.6608582  44.4087448
  26.7249680  44.8914909  43.8197975  28.6562366  45.2803192  44.7698250
  29.1795158  44.9551888  43.8706169  29.2400150  46.0394173  45.2904663
  28.6746769  44.4775734  45.5069580  26.4453316  45.6948357  45.6441879
  26.5925217  46.4884605  46.1638985  27.7274475  46.8696861  42.2597427
  27.3130550  46.2481918  41.2981453  28.9601555  47.4789963  42.1873245
  29.2223167  48.1408043  42.9038277  29.8495083  47.2865944  41.0285721
  29.2483120  46.9528046  40.1828499  30.4052105  48.6459732  40.5236359
  31.1416206  49.0212517  41.2342453  30.9939232  48.3492203  39.6556168
  29.2975121  49.6817513  40.2778587  28.5410423  49.3472939  39.5679359
  28.7978020  49.8705482  41.2279892  29.7729359  51.0142403  39.7439575
  30.3883953  50.8406563  38.8612480  28.8600311  51.4913940  39.3875465
  30.4423008  52.0120926  40.7061882  30.6127644  52.9285240  40.1412125
  29.6531143  52.2083168  41.4319839  31.7089386  51.5702820  41.3219032
  32.2658958  52.2691994  41.7924500  31.6482925  50.7290154  41.8775063
  32.3683891  51.4593544  40.5649872  30.9700298  46.3732910  41.3900375
  31.4370422  46.4828758  42.5429306  31.4443150  45.5371323  40.4513893
  31.1479702  45.4668808  39.0183601  31.1372147  46.4781570  38.6117783
  30.1824379  44.9787903  38.8856316  32.2418480  44.6576118  38.4647598
  33.1392899  45.2485352  38.2816887  31.9361076  44.0843620  37.5895386
  32.5998955  43.6762161  39.5947495  33.5177727  43.0909996  39.5388603
  31.8278313  42.9072151  39.5692101  32.4140587  44.5058861  40.8540573
  32.1327515  43.8106270  41.6449928  33.7653084  45.1765060  41.3300743
  34.5409622  44.5640335  42.1085777  33.9360847  46.4672127  41.0301208
  33.3653336  46.9528236  40.3529778  35.1267128  47.2485466  41.5658035
  36.0296936  46.6418381  41.4977722  35.4676514  48.4554901  40.7001877
  35.7820511  48.1288490  39.7089462  34.5892487  49.0688744  40.4995041
  36.6401978  49.3586426  41.1665344  36.5403557  49.8553200  42.1316452
  37.4391518  48.6257324  41.2788391  36.9617805  50.4472504  40.1633339
  38.1226006  50.4835625  39.7396851  36.0439224  51.1970291  39.7201080
  35.0118065  47.5516777  43.0520592  35.9617233  47.6059074  43.8566322
  33.7875404  47.7574692  43.5525970  32.9536133  47.6325264  42.9966698
  33.5203629  48.0598907  44.9751549  34.1196556  48.9028778  45.3191452
  32.0085411  48.2891388  45.2317467  31.5048428  47.3227043  45.2517624
  31.8914013  48.6444206  46.2555428  31.2283058  49.2694359  44.3021545
  31.8475285  50.1042671  43.5676270  30.0110817  49.1802063  44.4453049
  33.9188080  46.8939323  45.8393211  34.3150063  47.0492096  47.0000381
  33.8816338  45.6695404  45.3216133  33.9443359  45.6538010  44.3136826
  33.9481010  44.4065285  46.1232529  33.3257942  44.5751228  47.0021210
  33.3433304  43.2871628  45.3051529  33.9298820  43.0372658  44.4210663
  33.1354980  42.0978737  46.2623558  32.4248543  41.3360100  45.9419708
  34.0697784  41.7319679  46.6881866  32.6933594  42.4202423  47.2050629
  31.9457073  43.6814804  44.7258072  31.2649441  43.9139214  45.5447235
  32.0125885  44.5455475  44.0647316  31.4169159  42.8513985  44.2573586
  35.3491211  44.1254463  46.5948601  36.2894554  43.8931122  45.8339424
  35.5169830  44.2128296  47.8529434  34.6909790  44.3609352  48.4149780
  36.7936592  44.1464272  48.6558380  37.4706039  44.5024796  47.8792610
  36.7932968  44.9372978  49.9776993  35.9451675  44.5431252  50.5375252
  38.2284088  44.7793198  50.6646767  39.0984306  45.0115852  50.0504990
  38.3634300  45.3399429  51.5896492  38.2434387  43.7509041  51.0255585
  36.5904388  46.4553604  49.6580276  35.5171204  46.5747948  49.5103035
  36.8624001  47.1019554  50.4923248  37.2650871  46.7008705  48.8378601
  37.1981506  42.6232719  48.9131699  38.3414574  42.2309723  48.8189316
  36.1384392  41.8415222  49.1709099  35.2994614  42.3431778  49.4250031
  36.2444000  40.4409676  49.6036263  36.9101028  39.9800758  48.8738861
  36.9664955  40.4462357  50.9483795  38.0231056  40.5324554  50.6949196
  36.6531487  41.3182678  51.5223770  36.9420204  39.1535378  51.7789612
  36.4243469  38.3512535  51.2531738  37.9641533  38.8772659  52.0378723
  36.1509399  39.3946190  53.0660858  36.6983528  39.3292999  54.1725426
  34.8409958  39.4378624  53.0410118  34.4081764  39.5815659  53.9421883
  34.3153381  39.0085297  52.2930412  34.8285713  39.7051582  49.6215515
  33.8850937  40.1853409  50.2356987  34.7452583  38.5112076  49.0173111
  35.4608345  38.3109322  48.3332481  33.5435448  37.5922241  49.1097984
  32.8191299  38.1238899  49.7267647  32.9485626  37.5389023  47.7231407
  32.7051315  38.5578117  47.4220314  33.6434784  37.1501007  46.9788094
  31.6685352  36.7677460  47.6928635  31.7502708  35.7932663  48.1743279
  30.8833656  37.3449364  48.1811905  31.0438251  36.4690933  46.0338783
  30.8658447  38.1434402  45.2069931  30.0588970  38.7046280  45.6781769
  31.7255306  38.7981606  45.3497658  30.7024117  38.1233330  44.1295013
  33.8940544  36.1496506  49.6740646  34.6763725  35.3729897  49.1052132
  33.2102623  35.8150368  50.7560310  32.6186714  36.5137558  51.1825485
  33.1429672  34.5518875  51.4119186  33.9895782  33.9746170  51.0402946
  33.3683853  34.7736664  52.8739586  32.4557152  35.0543060  53.3996696
  33.6062927  33.7684975  53.2220078  34.4312286  35.7974014  53.3148155
  34.2507515  36.7070160  52.7419853  34.2986412  36.1798134  54.7983475
  35.1321411  36.8059464  55.1166763  33.3654938  36.7190285  54.9613953
  34.3548431  35.2724342  55.3996887  35.9404297  35.3152275  53.1442184
  36.2334862  35.4336205  52.1010475  36.5442619  35.8687363  53.8633232
  35.9713364  34.2948494  53.5262871  31.7883625  33.8792000  51.0480080
  30.7683315  34.5395164  50.9967613  31.8489666  32.5968819  50.6693192
  32.7579308  32.1580238  50.6334724  30.8113976  31.8664722  49.9710770
  29.8551998  32.3832092  50.0533524  31.1405258  31.8104649  48.4850197
  31.3731346  32.8263931  48.1658325  32.0795670  31.2604618  48.4233017
  30.1415844  31.2256947  47.4813271  29.9915524  30.1466446  47.5166931
  28.7690907  31.8098335  47.6692123  28.2523441  31.5823593  48.6015930
  28.8094254  32.8128319  47.2444191  28.0763149  31.3233891  46.9825325
  30.6190796  31.5005379  46.0623627  29.8860588  31.1478329  45.3368454
  31.0006218  32.5190544  45.9905815  31.4803238  30.8381901  45.9748955
  30.6000519  30.5418835  50.5134201  31.4460850  29.6492634  50.4095421
  29.4546909  30.2886200  51.1270676  28.7295361  30.9876766  51.2016869
  29.2102528  29.0998669  51.9397278  30.1056023  28.7243328  52.4351273
  28.2656345  29.3487835  53.1335068  27.2453747  29.5442715  52.8034286
  28.2314701  28.5127220  53.8320389  28.7016926  30.5150871  53.8464928
  28.2541676  30.4093132  54.6891861  28.6716442  27.8848171  51.1475792
  27.8933086  28.0502872  50.1989517  28.9331341  26.6500626  51.5915985
  29.6166687  26.6238575  52.3346939  28.1764603  25.4208374  51.1683311
  27.2421875  25.7219868  50.6944695  28.8940926  24.7402496  49.9707680
  29.0507545  25.4108353  49.1258621  29.9124432  24.4028454  50.1637001
  28.2585945  23.8856163  49.7387276  27.8928337  24.4355526  52.2845039
  28.6431332  24.1762962  53.1585045  26.7229824  23.7630711  52.2592964
  25.9973259  23.9226131  51.5751343  26.3181820  22.6691437  53.2143555
  26.6984959  23.1157665  54.1330452  24.7358246  22.5445499  53.2396393
  24.3583336  21.6358299  53.7084961  24.0848694  23.6517220  54.0259285
  23.0070972  23.4925652  54.0603752  24.4271641  23.6825047  55.0603294
  24.3020344  24.6343155  53.6070633  24.3025188  22.5281544  51.9297676
  24.2893829  21.6392555  51.5674286  27.1300945  21.3878307  52.8733177
  27.4604950  21.1417656  51.6985664  27.3457069  20.5297127  53.8496895
  27.0279522  20.6777554  55.3166733  25.9412518  20.5956249  55.3375854
  27.3477001  21.6722374  55.6279068  27.7601528  19.5720177  56.0757866
  27.0314999  19.2138748  56.8030434  28.7020855  19.9927425  56.4277153
  28.0007954  18.5035210  55.0524063  27.1504326  17.8240051  54.9954529
  28.9267254  17.9828968  55.2967453  28.0468655  19.2210884  53.7428474
  29.0993137  19.4575996  53.5862694  27.5480309  18.2009296  52.6309433
  28.0201340  17.1214771  52.5088768  26.6167755  18.6064014  51.7904549
  26.3367882  19.5765076  51.8151207  25.9070206  17.8560829  50.8516769
  26.2995663  16.8399734  50.8908577  24.3772049  17.7917690  51.2361641
  23.8846893  17.4209099  50.3372765  24.2794971  17.2287788  52.1643867
  23.6656361  19.0795155  51.5934792  24.1801720  20.1135254  51.1353607
  22.6218719  19.0857086  52.3086662  26.1611481  18.3740921  49.4405022
  25.9813862  17.6163673  48.5118523  26.5840092  19.6300411  49.2233658
  26.4758167  20.2262440  50.0314102  26.7479706  20.2336159  47.8554726
  25.9862957  19.8805008  47.1603012  26.6388988  21.7277794  48.0617599
  27.4012203  22.0959854  48.7483368  26.7239971  22.1751194  47.0714302
  25.2382374  22.1615601  48.4463959  25.0184689  22.0335045  49.5063057
  24.9682484  23.6560898  48.1980476  24.0371761  23.9228554  48.6980896
  25.7273998  24.2846451  48.6635666  24.8213520  24.0056133  47.1761055
  24.1549721  21.4567337  47.6200905  24.1589584  21.5742588  46.5364494
  24.2092762  20.4116440  47.9249496  23.1667786  21.7937489  47.9331436
  28.1123619  19.6786499  47.3437347  29.1540794  20.0994492  47.8899536
  28.1326408  18.8683643  46.2647476  27.3030758  18.6242390  45.7429008
  29.4172153  18.2162571  45.8326035  30.2446480  18.7305450  46.3214417
  29.4029865  16.7444077  46.4750061  28.5072021  16.2548256  46.0929337
  30.2494621  16.1049366  46.2246895  29.4071178  16.6362000  48.0084763
  29.7435055  17.5485153  48.9500198  30.0109921  18.5011330  48.7473602
  29.6845322  16.9693985  50.1600723  29.9827175  17.4610519  51.0742722
  29.1424503  15.7809916  49.9799004  28.9990978  15.1339417  50.7420540
  28.9870625  15.5656376  48.6652412  28.4853821  14.7006931  48.2570801
  29.6306763  18.1056519  44.3112297  30.7480145  17.6754360  43.8496513
  28.7149372  18.6395721  43.5420494  27.7477341  18.7897892  43.7911568
  28.9324951  18.7272377  42.1223412  29.4208984  17.8331051  41.7349281
  27.6507721  18.9221134  41.3848114  26.8758831  18.1948242  41.6270905
  27.1602001  19.8666000  41.6201515  27.8284130  18.8881111  40.3099213
  29.8653927  19.8700085  41.6267090  30.4019985  19.7222443  40.5530396
  30.0815601  20.9491463  42.3698807  29.6042595  21.2552547  43.2056923
  31.0179176  22.0076962  42.0265999  31.9976368  21.5694714  41.8363190
  30.4413013  22.8111115  40.8037186  29.9607449  22.0827980  40.1504745
  29.2720966  23.6892071  41.1873245  28.6912403  23.9152355  40.2931099
  28.6559429  23.2298622  41.9602776  29.7167225  24.5974159  41.5942268
  31.4052658  23.7278271  40.0356216  31.4843159  24.7130775  40.4951210
  32.3772240  23.2359867  40.0742950  31.0786285  23.6351070  38.9998550
  31.2112083  23.0570164  43.1456642  30.3937302  23.0654163  44.0850754
  32.2985954  23.8502445  43.1044579  32.8480034  23.7178955  42.2673569
  32.5197983  25.0855293  43.9540787  32.2191658  24.9011745  44.9854546
  34.0624542  25.4226227  43.9704704  34.2895775  25.7342968  42.9509735
  34.3037720  26.3113346  44.5536194  35.0052071  24.4343605  44.3601990
  35.2676353  24.2010670  45.7413635  34.7779083  24.7781525  46.5117798
  36.1594429  23.1832123  46.0644531  36.2893867  22.9888573  47.1188431
  36.7407761  22.3598042  45.0863342  37.3986435  21.5419540  45.3407669
  36.4983597  22.6308594  43.7027702  36.9327850  22.0107555  42.9326019
  35.5784073  23.6259022  43.3490448  35.4297371  23.8457794  42.3021660
  31.6185379  26.1959362  43.2693138  31.8967705  26.6026917  42.1888771
  30.5700207  26.6198330  43.9094810  30.1050377  26.1090412  45.1639252
  30.7741184  26.3604145  45.9868736  29.9687328  25.0277252  45.1473160
  28.7365093  26.6954021  45.2185936  28.4760113  26.7306309  46.2764206
  28.0845375  26.0167027  44.6686821  28.7780457  28.0911007  44.5505753
  29.2564259  28.8626099  45.1539192  27.7472343  28.3385944  44.2970543
  29.7721157  27.7366638  43.4683495  29.2477589  27.3562031  42.5917625
  30.5009403  29.0152359  42.9872093  29.8594971  29.8455200  42.2404518
  31.6919899  29.3728390  43.4771309  32.1924095  28.7299671  44.0741196
  32.3831444  30.5189419  42.9635773  31.7652550  31.3961430  43.1554832
  33.7892342  30.6936531  43.6784096  33.7316742  30.5010948  44.7497215
  34.4405670  29.8955193  43.3222504  34.0310402  31.7298965  43.4421272
  32.5070953  30.5925903  41.4333687  32.7033920  31.7109566  40.9629364
  32.4146042  29.5474052  40.6714134  32.1534195  28.7169876  41.1835556
  32.3367310  29.5216484  39.1603546  33.3038368  29.7654438  38.7206116
  31.9605503  28.0470505  38.7654381  32.6412659  27.3905411  39.3073997
  31.0305977  27.7475166  39.2487259  31.9030476  27.8569298  37.2957458
  31.3410110  26.9231815  37.2775574  31.2719860  28.6951408  37.0003357
  33.2614746  27.7871532  36.6459541  33.6802597  28.7825336  36.4978333
  33.9426041  27.1994438  37.2613869  33.0088005  27.0992107  35.3026848
  32.4810791  26.1636944  35.4882202  32.5169144  27.6187935  34.4803810
  34.3256836  26.6027145  34.7600670  34.6754303  25.9053040  35.4014664
  34.1811142  26.1187248  33.8854446  34.9962425  27.3541508  34.6839142
  31.2544689  30.5586662  38.6974564  31.4924107  31.2854214  37.7239304
  30.0854568  30.5824261  39.4112587  30.0017986  30.1147709  40.3025513
  28.9826565  31.5288048  39.0993576  28.6770611  31.3159389  38.0749588
  27.8053093  31.3121052  40.1096268  28.1153717  31.5659790  41.1232910
  26.9976349  32.0005226  39.8609467  27.4314823  30.2954426  40.2310905
  29.4241676  33.0053329  39.1850052  28.8763065  33.8487091  38.4827766
  30.3883610  33.3572273  40.0560074  30.9196987  32.6426201  40.5325737
  30.9540787  34.7830582  40.1173477  30.1589966  35.5113831  39.9576912
  31.6005325  35.0909233  41.4613914  32.5915565  34.6380310  41.4321404
  31.7564125  36.6342392  41.5878677  32.2734566  36.8210564  42.5290718
  32.2550278  37.0425949  40.7088203  30.7899704  37.1354904  41.6411285
  30.8246994  34.6071167  42.6998444  29.8497391  35.0769196  42.8296089
  30.5571499  33.5560112  42.5916824  31.4075718  34.6090736  43.6209030
  31.9058495  35.1109619  38.9358864  31.7306042  36.1387520  38.3145027
  32.6998863  34.1379242  38.5147438  32.6400108  33.3680420  39.1657410
  33.6365776  34.0668869  37.3081245  34.3820305  34.8620796  37.2993774
  34.5400238  32.8138313  37.3836555  34.9522705  32.8309975  38.3925438
  33.9342346  31.9177780  37.2487068  35.6429634  32.7001419  36.3363914
  35.1936607  32.3734779  35.3985672  36.0844421  33.6839676  36.1773796
  36.7166443  31.6660461  36.6551437  36.3132362  30.6619987  36.7864914
  37.4153023  31.4881096  35.8376350  37.4690895  32.1364746  37.8345032
  37.4177322  33.1140404  38.0831413  38.3060341  31.5019188  38.6887474
  38.5149879  30.2448177  38.6597404  37.9699707  29.8883686  37.8877220
  39.2836876  29.8379841  39.1732445  39.0683479  32.1433105  39.4940300
  39.6252975  31.6026821  40.1402702  38.8550568  33.0871620  39.7834282
  32.9631538  34.2996521  35.9510117  33.4302750  34.9782867  35.0924301
  31.8332481  33.6467400  35.9108543  31.5858707  33.0304718  36.6718521
  31.0041656  33.5544624  34.7026596  31.5166435  33.7495918  33.7606468
  30.5040264  32.0730324  34.5523148  29.8246727  31.8466244  35.3740921
  30.0091915  32.1281929  33.5826759  31.5456409  30.9707108  34.4754333
  32.0461922  31.0102654  35.4428978  31.0134029  30.0232906  34.3904686
  32.4389305  31.1795235  33.2741661  32.1237602  31.8683243  32.2676468
  33.5092926  30.5388680  33.2334785  29.8261242  34.5386238  34.7075691
  29.0602570  34.4978714  33.7642288  29.6516113  35.3768997  35.7402153
  30.3722591  35.4583473  36.4431610  28.6493073  36.4911919  35.7158775
  27.8160706  36.2688484  35.0492592  28.2031708  36.7584229  37.0922012
  27.8585262  35.8627663  37.6090317  29.0654716  36.9717102  37.7239075
  27.2041531  37.8474197  37.2444229  27.6098194  38.7595863  36.8068275
  25.8147812  37.5694580  36.6345825  25.1464634  38.3761597  36.9357185
  25.9005013  37.5964165  35.5482941  25.4094009  36.6127052  36.9638138
  27.0559444  38.2146873  38.7245255  28.0239143  38.3445015  39.2085457
  26.4715862  39.1331177  38.7803650  26.5507317  37.4287376  39.2859039
  29.3798542  37.7193794  35.0236092  30.5421658  38.0199089  35.4612160
  28.7954216  38.4771461  34.0527153  27.8523254  38.1696091  33.8627434
  29.5286865  39.4039993  33.1627235  30.2234821  38.8299026  32.5497169
  28.6100025  40.1943169  32.2137794  27.9480267  39.5701866  31.6134892
  27.9945049  40.7035713  32.9553490  29.3321190  41.0684814  31.3548508
  29.4690685  40.6775055  30.4888363  30.3002682  40.5108604  33.9579163
  29.8283825  41.3960800  34.6877213  31.6211510  40.3999138  33.8141594
  32.0321503  39.7160645  33.1948586  32.6849937  41.2750664  34.3857231
  33.6607628  41.1726112  33.9108734  32.3760948  42.3036728  34.1995430
  32.9766502  41.0914764  35.8745461  33.7252769  41.8266106  36.4415550
  32.2592545  40.1567459  36.5122757  31.6135025  39.6431808  35.9297295
  32.5032768  39.7760277  37.9214058  32.6269875  40.7067795  38.4750328
  31.2264690  39.2760162  38.5797348  30.7365475  38.6221237  37.8582764
  31.6194935  38.8141899  39.4854660  30.1248531  40.2087517  39.0794830
  29.4617023  41.0131836  38.1842461  29.5612831  41.0858727  37.1113052
  28.7662277  41.9696083  38.8745804  28.2573814  42.7279434  38.4431839
  29.1100197  41.9013481  40.2376671  28.7701836  42.6417427  41.3874016
  28.1647682  43.5235710  41.2382088  28.9934120  42.1773491  42.6910019
  28.7061844  42.7292633  43.5737762  29.7546101  41.0418434  42.8616638
  30.0426464  40.7384758  43.8573570  30.1720886  40.2775803  41.7084999
  30.6778984  39.3514900  41.9385490  29.9005451  40.7217178  40.4034348
  33.8111687  39.0626831  38.2297935  34.2242699  39.1106071  39.3686943
  34.5190659  38.4626160  37.2539215  34.1152191  38.5653648  36.3338928
  35.7299652  37.7019386  37.4284286  35.5293427  36.8097153  38.0215607
  36.2537994  37.1385536  36.0229836  37.2593346  36.7589760  36.2044220
  35.5821152  36.2898369  35.8940659  36.4543457  38.2008743  34.8585091
  35.5041122  38.5665054  34.4693184  36.9702950  39.1143227  35.1543236
  37.1750069  37.6271286  33.6905518  37.5929146  36.4419022  33.6674156
  37.2366104  38.4253693  32.6375198  36.7507553  39.3076439  32.7126274
  37.4061508  38.0145569  31.7305508  36.9099388  38.3983307  38.2342072
  37.7144661  37.6972809  38.8150368  37.0580063  39.7460327  38.1171532
  36.4554214  40.3507614  37.5774345  38.0696144  40.4978714  38.8649330
  39.0300674  39.9862862  38.8024178  38.2070961  41.9093361  38.2177467
  37.3483429  42.5251045  38.4850731  38.9837456  42.5627251  38.6152344
  38.3232498  41.9325829  36.7374687  39.5138397  41.4309082  36.1353531
  40.2927437  41.0089912  36.7531662  39.6634064  41.2650414  34.7645607
  40.5409203  40.8332939  34.3063393  38.5305748  41.6052170  33.9435310
  38.5426559  41.3950844  32.6063843  39.3378105  40.9406471  32.3186150
  37.3373795  42.0546379  34.5163231  36.4582138  42.2594719  33.9234390
  37.2165222  42.1580849  35.9381943  36.2920570  42.4501762  36.4140587
  37.7088776  40.6558266  40.3591881  38.4844704  41.2535400  41.1250992
  36.5610733  40.0778694  40.8256264  35.8767052  39.6940613  40.1896744
  36.1766357  39.9884529  42.2517624  36.3153381  40.9275894  42.7873764
  34.6497154  39.8088074  42.3777084  34.3213501  38.9805222  41.7498398
  34.0835037  39.5878830  43.7302666  34.1309547  40.5082703  44.3122635
  33.0060844  39.4273911  43.6914635  34.6428185  38.8520813  44.3080750
  33.9177933  41.0939560  41.9261780  34.1415901  41.9715195  42.5327301
  34.1622620  41.2203178  40.8714905  32.8411064  40.9499588  41.8360977
  36.9898376  38.8631897  42.9614563  37.1174774  37.7621574  42.4556236
  37.6279793  39.2011604  44.1412773  37.5755463  40.4998436  44.7580070
  36.5690079  40.8843575  44.9227180  38.0990105  41.2580376  44.1755714
  38.4216652  40.3990707  46.0875320  37.7316055  40.3457642  46.9295998
  39.1254196  41.2260628  46.1819611  39.1661949  39.0618210  45.9936943
  39.3345184  38.5134697  46.9205589  40.1372643  39.1372375  45.5043640
  38.3085022  38.2342987  45.1070671  38.9098587  37.4958344  44.5768394
  37.2700386  37.4808655  45.9894409  36.5837669  38.0431252  46.7920456
  37.2416267  36.1600113  45.7933769  37.9743767  35.8256149  45.1839867
  36.1500015  35.1603279  46.2158890  35.5598526  35.6862411  46.9663887
  35.1279564  34.7336502  45.0853767  35.7248154  34.3165894  44.2742538
  34.0318947  33.8574486  45.6936951  33.8878250  34.0238838  46.7612381
  33.1150131  33.8580742  45.1042633  34.4754982  32.8636131  45.7537498
  34.5512733  35.8720856  44.3366623  33.9005699  36.4323769  45.0080490
  35.3165359  36.6020355  44.0727463  33.9578133  35.5357704  43.4864922
  36.7749214  33.8800392  46.8656349  37.9135742  33.5166931  46.5494881
  36.1368752  33.2848282  47.8628578  35.4503860  33.7719421  48.4210320
  36.6344490  32.0480652  48.4921074  37.1464386  31.4868774  47.7104187
  37.6094055  32.2639961  49.6015015  38.5294800  32.5693474  49.1031723
  37.1961975  33.2390862  50.6220360  37.0479774  34.2542877  50.2539406
  36.2201271  32.9513588  51.0126762  37.7411041  33.1011963  51.5559311
  37.8741684  31.0316963  50.3080139  37.2452621  30.9408741  51.0276146
  35.4851036  31.2055626  49.0387421  34.7599983  31.5703678  49.9578857
  35.2929459  30.0017529  48.4678841  35.8775749  29.6204548  47.7378693
  34.3239594  29.0575809  48.9996910  33.4262428  29.6281223  49.2377777
  33.9157829  27.9746590  47.9586411  34.8357620  27.5693016  47.5374222
  33.4334373  27.1834564  48.5326118  32.7484818  28.5009613  46.6778221
  31.6365051  28.4040985  47.4120064  34.7664604  28.4434452  50.3376923
  35.9718781  28.2400208  50.6280708  33.7778130  28.1550255  51.2140045
  32.8067627  28.3488846  51.0150681  34.0041313  27.4642429  52.4711037
  34.8319321  26.7639980  52.3592606  34.6087456  28.3854733  53.6050453
  34.9920540  27.6869888  54.3488846  35.4205017  28.9677124  53.1689835
  33.5422440  29.3595734  54.1952667  32.6720963  29.4206905  53.5416527
  33.1782112  28.9445057  55.1351051  34.2786789  31.0982456  54.3534393
  32.8750763  31.7337341  55.1568680  32.7867508  31.1702080  56.0857010
  32.8893051  32.8235550  55.1430321  31.9626350  31.4642029  54.6249847
  32.7778854  26.7197018  52.9411354  31.6251926  27.1405849  52.7921181
  33.0576668  25.6253490  53.6590538  34.0263062  25.3503571  53.7379265
  31.9719963  24.7915916  54.2376556  31.3123207  24.6594048  53.3800659
  32.4202118  23.3557243  54.6724815  33.1290932  22.9444675  53.9538345
  32.8960228  23.4794846  55.6453056  31.3403130  22.3114529  54.8727379
  30.3678474  22.7924442  54.9779015  31.3305073  21.6218872  54.0286369
  31.6170502  21.3229141  56.0484772  32.3352013  20.3463593  56.0341568
  30.8622608  21.5046635  57.1354256  30.9962273  20.9001350  57.9333611
  30.2359505  22.2960491  57.0961266  31.2169743  25.5406551  55.3642540
  31.8348637  26.0939674  56.2376099  29.8500729  25.4361439  55.4126244
  29.4059181  24.8977356  54.6825943  28.9277210  25.8498268  56.5048752
  29.3490620  26.7726345  56.9036179  27.4828396  26.1584377  56.0622978
  27.5808811  27.0630360  55.4621391  27.1317844  25.3011379  55.4879303
  26.4925346  26.5247326  57.2165604  26.1048927  25.6208878  57.6865578
  27.0862103  27.0213871  57.9840164  25.4223614  27.5619678  56.7853241
  24.5811958  27.2275162  55.8637848  25.3523693  28.6861629  57.3834496
  28.9552326  24.6735210  57.5516624  28.9703178  23.4992828  57.1675720
  28.7846184  24.9437962  58.8644447  28.5661926  25.9207077  58.9987679
  28.5275803  23.9740887  59.9799080  29.4233456  23.3535671  59.9542999
  28.7509403  24.7499905  61.3026733  28.7999611  23.9986553  62.0908318
  29.7034435  25.2794971  61.2812271  27.5765381  25.6525307  61.6612396
  27.4820232  26.4026737  60.8760910  26.6831913  25.0417290  61.7914391
  27.8896294  26.6594524  63.2303925  27.9683228  25.2781925  64.4028244
  27.9432964  25.7342815  65.3925018  27.1368313  24.6212158  64.1476669
  28.8967743  24.7433128  64.2028732  27.2100315  23.1613731  59.8113098
  26.1672001  23.7310562  59.4935684  27.2829609  21.8458576  60.1289635
  28.1546726  21.4325962  60.4280128  26.1443768  20.9659290  60.0019226
  25.5344925  21.3320618  59.1760292  26.4039879  19.4731083  59.7404404
  27.0268230  19.3548679  58.8537636  26.9908276  19.1088924  60.5836868
  25.0497379  18.5932083  59.5917320  24.0639763  19.1823368  59.1345940
  25.1246376  17.4034271  59.7837639  25.2153473  21.1101036  61.1975861
  25.5513172  20.5489235  62.2015800  24.0713177  21.7943802  61.0774231
  23.8853455  22.4272690  60.3125916  23.0452213  21.8470402  62.1557083
  23.6029320  21.7382526  63.0858841  22.4445667  23.2595673  62.3304749
  21.8703117  23.5884857  61.4643669  21.4223061  23.4797249  63.4925194
  21.1510277  24.5218792  63.6610870  20.4994984  22.9399815  63.2799149
  21.9077110  23.1673126  64.4171143  23.5756950  24.2752819  62.5727234
  23.2462673  25.1698856  63.1011772  24.4839649  23.8369312  62.9862404
  23.9878693  24.5344868  61.5975151  21.9360886  20.7712212  62.1091156
  21.2605057  20.5063210  61.1007690  21.6577396  20.1232414  63.2881165
  22.0584621  20.3457756  64.1881180  20.4177608  19.2949715  63.4219666
  20.3576908  18.6768742  62.5261726  20.5040264  18.3717785  64.6574173
  20.3159351  18.9755402  65.5452194  19.3484879  17.3391190  64.6068420
  19.2568016  17.0297260  63.5657005  19.7162228  16.4665623  65.1467667
  18.4275818  17.8028526  64.9603729  21.7743359  17.6952763  64.7962494
  22.0391521  17.7424965  65.7177963  19.3093128  20.3288136  63.4359589
  19.2339325  21.2204990  64.2947617  18.4379025  20.2624893  62.3628960
  18.5066032  19.5016212  61.7022476  17.3602142  21.2293739  62.0834923
  16.7649384  20.7496891  61.3065414  16.7996426  21.4474125  62.9925117
  17.8191719  22.5158081  61.4385490  17.1006012  23.5072784  61.5776634
  19.0229893  22.5489330  60.9306183  19.5793457  21.7255611  61.1112442
  19.4771271  23.4344845  59.9026489  19.4651833  24.4950771  60.1538544
  20.4968643  23.1360130  59.6594429  18.6288738  23.4734955  58.6729202
  17.5723648  22.8484364  58.6065369  19.1053505  24.0731716  57.5881996
  19.8977013  24.6819859  57.7352753  18.4930382  24.0418358  56.2893486
  17.6749496  23.3220024  56.3154564  17.8985939  25.4856281  55.9619522
  17.0291538  25.6589298  56.5960999  18.7050648  26.1086082  56.3487396
  17.5535164  25.9340954  54.5658684  18.5012760  25.7119808  54.0754356
  16.3389244  25.1205654  54.0976562  15.9501686  25.4576130  53.1367378
  16.5692043  24.0616302  53.9804993  15.5164528  25.1892433  54.8096466
  17.3503799  27.4433537  54.5318527  17.1321850  27.6630344  53.4867516
  16.6835518  27.8053207  55.3144264  18.3441238  27.8911476  54.5245171
  19.5795002  23.5339851  55.3242531  20.5751591  24.1742172  54.9709969
  19.4753189  22.2832317  54.8874741  18.7831612  21.7476635  55.3916435
  20.3769207  21.5178089  54.0725365  21.3841953  21.7210255  54.4361305
  20.0254860  19.9741859  54.2113609  18.9515514  19.7879543  54.2022781
  20.3573990  19.3696957  53.3672485  20.6650429  19.4986210  55.5430641
  21.6811504  19.3759613  55.1681175  20.6349487  20.2738171  56.3087425
  20.1536865  18.2292194  56.0633774  19.1100140  18.1819496  56.3742027
  20.3465443  17.5209084  55.2576447  21.0422611  17.8388062  57.2377434
  20.8146229  16.7936420  57.4473038  22.0514336  17.9567661  56.8430824
  20.9221649  18.6638355  58.4427528  20.0206566  18.4501553  58.8449020
  21.5972576  18.3650875  59.1320267  21.0731964  19.6359425  58.2140694
  20.3043728  21.8481140  52.5496254  19.3276138  22.3762379  52.0295982
  21.3144779  21.4954605  51.7750816  21.9615803  20.8368015  52.1843834
  21.4516544  21.9387283  50.3615646  22.4859810  21.7297592  50.0884171
  20.4496441  21.1298256  49.4751549  19.4105110  21.4136791  49.6416740
  20.5113049  21.4790192  48.4444427  20.6330433  19.5946198  49.4503021
  21.6641350  19.2878990  49.2746048  20.4454918  19.2577591  50.4698372
  19.6666737  18.7258167  48.5802765  19.8085289  18.9050255  47.5145073
  19.8344898  17.6696892  48.7913055  18.2047844  19.0449009  49.0156174
  17.9898167  19.1015911  50.0827065  18.0154953  19.9961262  48.5181847
  17.1732368  18.1262474  48.3868408  17.2319565  17.1693592  48.7046738
  16.2102013  18.3438740  48.5996895  17.1424980  18.1578255  47.3778038
  21.3365154  23.4324150  50.2059822  20.4671097  23.8889427  49.4438133
  22.1899052  24.1351814  50.8310928  22.9950371  23.6952038  51.2533264
  22.1224556  25.5654449  51.0496101  21.4100037  25.9340763  50.3116188
  21.5337391  25.8995628  52.4137077  20.6004963  25.3492775  52.5334663
  22.1603374  25.5122242  53.2171059  21.5637417  27.7254944  52.6482964
  20.6772575  28.0736122  51.7113495  23.4717655  26.2661247  50.7738609
  24.5715275  25.8556767  51.1637421  23.3761654  27.4327164  50.1182556
  22.4202518  27.7137489  49.9528694  24.4228535  28.3766079  49.7967682
  25.2524586  27.9326420  50.3469963  24.7495136  28.4658413  48.3213997
  23.9125557  28.7533245  47.6850357  25.7124348  29.5850945  47.9864159
  25.4064827  30.5165672  48.4627075  26.7371998  29.2866001  48.2074509
  25.6244373  29.7879734  46.9190826  25.3272400  27.2049313  47.8822136
  26.1121616  26.8069057  48.5253105  24.4940891  26.5026169  47.8554726
  25.8350430  27.2296925  46.4238853  26.5858459  27.9996967  46.2464561
  26.1830006  26.2400627  46.1278114  24.9210167  27.3671551  45.8461685
  24.1662560  29.7453213  50.4144211  23.0222111  30.1606255  50.4583549
  25.2110329  30.4300690  50.9734917  26.1325245  30.0778427  50.7569580
  25.0951576  31.8099823  51.5356598  24.2201309  32.3131142  51.1242104
  24.9187717  31.7734299  53.0401115  25.8691216  31.6848068  53.5664940
  24.5831680  32.7690239  53.3303871  23.9140549  30.7323360  53.5466156
  23.0748711  30.6865845  52.8525085  24.4363289  29.7766342  53.5023003
  23.6350288  30.8765106  55.0325394  24.6249352  31.0906658  55.4354324
  23.0188503  31.7756176  55.0384331  23.0903091  29.6565018  55.5908623
  23.5900974  28.7813339  55.5245705  22.0582886  29.5467758  56.3662491
  21.6995087  30.5169144  57.1617393  20.9970932  30.3118210  57.8579102
  22.1593437  31.4155712  57.1943665  21.5649948  28.3612423  56.5434647
  20.7633743  28.3753796  57.1577148  22.1573105  27.5510559  56.4300690
  26.3259525  32.6397476  51.1753311  27.3385658  32.1296806  50.7220612
  26.2253494  33.9522972  51.4102974  25.3589153  34.2708054  51.8201103
  27.1572971  34.9307175  50.8393021  28.0978775  34.3805313  50.8126373
  26.7692757  35.5349312  49.4256477  25.8936253  36.1613579  49.5957451
  27.8084393  36.4610329  48.7794724  28.0472965  37.3216171  49.4043312
  28.6867561  35.8672409  48.5263519  27.3976707  36.8872604  47.8642120
  26.4403839  34.4313393  48.3753662  26.7454796  34.6785698  47.3585625
  27.0972137  33.5822105  48.5641975  25.4257412  34.0663147  48.2161064
  27.4303055  36.0058556  51.9020844  26.5355740  36.4601440  52.6828728
  28.7167873  36.3824577  52.1289558  29.3965378  35.9316635  51.5332909
  29.1628780  37.4718018  52.9996033  28.3187351  38.0909271  53.3032608
  29.7226467  36.9039841  54.3573799  28.8622036  36.4441986  54.8435173
  30.5548058  36.2307053  54.1516953  30.3482018  37.9976158  55.3618507
  30.7817078  37.2938614  56.0724182  31.1751461  38.5415840  54.9053879
  29.2211170  39.1234856  56.1984978  29.5726814  38.5206337  57.8848343
  30.6309433  38.2670135  57.9469376  29.3411636  39.2308044  58.6786575
  28.8996792  37.6693535  57.9872322  30.0615692  38.3867188  52.1563797
  31.1754894  37.9907722  51.9545364  29.5396347  39.4866219  51.6350021
  28.6211758  39.8032417  51.9112053  30.3838615  40.2747765  50.6772423
  31.2631283  39.6568375  50.4951782  29.6343803  40.2813454  49.2514992
  29.5965099  39.2397194  48.9326248  28.6404037  40.7156830  49.3585663
  30.2852497  40.9636993  48.0768738  30.4611130  41.9880943  48.4051857
  31.1616325  40.3824272  47.7902031  29.0703697  40.9866028  46.6163597
  27.5838432  41.7343636  47.2728882  27.0930805  40.9630089  47.8664055
  27.7479610  42.6862831  47.7778816  26.9120159  41.8651085  46.4245644
  30.6415367  41.7304955  51.1376228  29.7815399  42.4533844  51.5029335
  31.9327126  42.1174889  51.1739769  32.6670303  41.5953255  50.7176590
  32.3420334  43.4662704  51.5948677  31.5179195  43.9419899  52.1264992
  33.5764656  43.4571075  52.5269165  33.8800583  44.4540863  52.8462334
  33.1704865  42.6718559  53.8241196  32.8058815  43.2994919  54.6372795
  32.5363007  41.8320808  53.5400658  34.1144905  42.3267441  54.2458496
  34.6453362  42.8100281  51.8504219  34.1747780  41.9983940  51.6468964
  32.6074295  44.3639641  50.3935890  33.2600479  44.0122528  49.3985825
  31.9662285  45.5205460  50.4151230  31.4467640  45.7198486  51.2580566
  31.8712425  46.4948235  49.3462334  32.6691856  46.2870903  48.6333275
  30.5132694  46.3978500  48.5372238  30.6581326  46.7984352  47.5339050
  30.0975075  44.8900032  48.4185181  30.9514523  44.2961197  48.0926743
  29.7215881  44.5084724  49.3678436  29.3707790  44.8503647  47.6071014
  29.3006840  47.0604210  49.2771416  28.3927078  46.8221931  48.7231255
  29.2781181  46.6371307  50.2813416  29.3497429  48.1482048  49.3263741
  32.0371132  47.9000664  49.8527489  31.3992405  48.2823906  50.7936592
  32.8350029  48.6817474  49.1553307  33.3801041  48.2593575  48.4173965
  32.6502953  50.1591415  49.1818695  33.1204643  50.5439873  50.0868187
  33.4307022  50.8691750  48.0471191  33.0884590  50.3763351  47.1371307
  33.1669922  51.9225121  48.1422005  34.9931831  50.8946571  48.1442223
  35.3467140  51.4755249  48.9961090  35.2194023  49.8322601  48.2350273
  35.6455956  51.3015862  46.8388100  35.1747894  52.1326599  46.0814896
  36.6960754  50.6082954  46.4667511  37.1782150  50.9256554  45.6379356
  37.2060318  50.1845779  47.2286606  31.1993427  50.6537895  49.0415077
  30.5066319  50.3244705  48.0494423  30.6406422  51.5423584  49.8758163
  31.1200504  51.7098045  50.7488747  29.3086624  52.2724953  49.6250534
  29.0988712  52.4886742  48.5775032  28.1825809  51.3145294  49.9351730
  28.1943417  50.4220428  49.3095322  27.9945564  50.8578796  51.3745575
  27.0924149  50.2511597  51.4528046  28.8733902  50.3165321  51.7248421
  27.7986603  51.7551193  51.9616547  27.0120678  51.9573212  49.6016350
  26.4090996  51.2103233  49.6066170  29.1857128  53.6522369  50.3972549
  29.7436447  53.8873329  51.4549294  28.2980785  54.4934616  49.9106293
  27.9163570  54.2784538  49.0005951  27.6847076  55.5956345  50.6429710
  28.3384991  56.0218239  51.4039001  27.2709618  56.6967125  49.6215286
  26.3658466  56.2957382  49.1653633  26.9546986  57.5321426  50.2461395
  28.3915386  57.0404930  48.6431313  29.0780258  58.0847511  48.9135323
  28.7090321  56.2555122  47.6798210  26.4263191  55.2347031  51.4062233
  26.0811520  55.9981422  52.2934532  25.8127174  54.0789871  51.1519356
  26.1961327  53.5217705  50.4018669  24.5922298  53.6689491  51.8256226
  23.9077015  54.5125465  51.9143410  23.8950500  52.5562057  51.0454597
  24.6214867  51.7475433  50.9651070  22.6730671  51.9569855  51.7967758
  21.9718704  52.7411575  52.0822754  22.1776905  51.2807465  51.1000671
  23.0199451  51.5258102  52.7358513  23.4862900  53.0209160  49.6001930
  22.8571796  52.2613297  49.1361313  22.8934841  53.9265633  49.7286072
  24.2995739  53.2703209  48.9186745  24.9147816  53.2501297  53.2746239
  25.9013290  52.5832481  53.5093689  24.1598778  53.7795677  54.3017616
  23.1525574  54.8912811  54.2486343  22.3250198  54.6504364  53.5813446
  23.5771446  55.8279381  53.8873825  22.5947819  54.9738083  55.7075691
  21.7655907  54.2710686  55.7894211  22.2778511  56.0102806  55.8232841
  23.8131218  54.5446320  56.5388069  23.3485394  54.0924873  57.4150658
  24.4348812  55.4161186  56.7438316  24.5074844  53.4141502  55.7184105
  25.5779858  53.4913979  55.9085884  23.9757919  51.9995041  56.1460915
  23.1434174  51.3938560  55.4651947  24.5070915  51.4976044  57.2967873
  25.0457535  52.1179352  57.8842697  24.3121014  50.0445251  57.6635284
  24.7504768  49.4840202  56.8378410  25.0694256  49.7272949  58.9711266
  26.1330433  49.9006882  58.8075714  24.6617737  50.3685303  59.7526283
  24.9620056  48.2954712  59.5680504  23.9051094  48.0307388  59.5994339
  25.4728012  47.5892715  58.9134750  25.5451565  48.3818588  60.9403038
  24.8656197  48.4399643  61.9635315  26.8403778  48.2696457  61.0528374
  27.3154678  48.3628006  61.9392395  27.4936962  48.2383614  60.2832260
  22.8014374  49.6098557  57.8192520  22.4454956  48.5731926  57.2807808
  21.9354267  50.4169044  58.4655457  22.2772942  51.2631721  58.8980446
  20.5158329  50.0973053  58.5410004  20.4566250  49.0460243  58.8227844
  19.8224792  50.8846474  59.6253548  18.8765373  50.4097137  59.8856125
  20.4453125  50.7175865  60.5041428  19.7501812  52.3869095  59.3422470
  18.9762383  53.0652008  59.9986916  20.6055889  52.9044495  58.5451622
  19.6243687  50.1854019  57.2739830  18.4761410  49.7711487  57.2487602
  20.2098045  50.7259750  56.2490959  21.0381947  51.2587624  56.4727211
  19.7532654  50.7752647  54.8416939  18.6805210  50.6310425  54.9702187
  19.9265594  52.2449913  54.3176613  21.0055084  52.3955650  54.2816887
  19.6496105  52.3306389  53.2669182  19.2006378  53.3422890  55.1668968
  18.1539841  53.1073494  55.3603363  19.6569176  53.2423820  56.1517487
  19.3319130  54.7829475  54.4848137  19.4866714  54.9122314  53.2655525
  19.4255638  55.9005890  55.2225914  19.5027466  55.6866035  56.2066383
  19.4943962  56.7951775  54.7588272  20.2920227  49.7061462  53.8395691
  19.7241421  49.5973434  52.7744141  21.2832851  48.8247833  54.2044144
  21.7895718  48.9560699  55.0684395  21.8535309  47.8262825  53.2902946
  22.0048065  48.2488060  52.2969666  23.1609287  47.2094994  53.8699799
  22.8591251  46.7897148  54.8295593  23.8381805  46.0950203  52.9929657
  24.8681049  45.8751907  53.2740936  23.2605057  45.1961784  53.2085419
  23.9546547  46.3590965  51.9418716  24.2090569  48.3046913  54.2301712
  23.6791668  48.9673882  54.9143867  24.9893780  47.8576813  54.8461113
  24.8224316  49.0746002  53.0430298  25.5321789  49.8175354  53.4069023
  25.2193146  48.3813019  52.3014641  24.0520973  49.6358681  52.5141983
  20.8254814  46.5959091  53.0668068  20.1694756  46.1928864  54.0423927
  20.6563168  46.1065369  51.8113403  21.4166145  46.3426857  51.1898232
  19.6945896  45.0407600  51.4991188  18.8883610  45.1700783  52.2211800
  19.0203590  45.4061317  50.1663322  19.6568298  45.7055817  49.3336678
  18.3883991  44.5707207  49.8649750  18.0746708  46.7045708  50.2646103
  18.6042557  47.4930878  50.7992935  17.8613415  47.1794586  49.3069725
  16.7603092  46.3455582  51.0031013  17.0196857  45.8247108  51.9248085
  16.3382912  47.3403435  51.1459351  15.8131742  45.5895691  50.1310349
  16.0041580  45.5631027  49.1396103  14.7034922  45.0112267  50.6344910
  14.3189974  45.0964394  51.8130112  13.5009394  44.6310272  52.1794472
  14.8074036  45.6587372  52.4951973  14.0055513  44.2274857  49.9119606
  13.1149940  43.9584122  50.3051605  14.2699966  43.9794769  48.9692726
  20.2875557  43.6530991  51.4820442  21.2210770  43.4234695  50.7506828
  19.7178402  42.6975708  52.2126503  18.8846741  42.9926682  52.7013741
  20.2753544  41.3369331  52.3864479  21.2380066  41.1698341  51.9032478
  20.5775051  41.0324936  53.8761826  19.6295490  41.0539551  54.4137878
  20.9718437  40.0292053  54.0374832  21.4804173  42.0473480  54.5231094
  22.8573360  42.2283440  54.3849335  23.1802349  43.3977051  55.0201263
  24.1960220  43.7499046  55.1227341  22.1317348  43.8783188  55.6368217
  22.0594006  44.6978264  56.2227173  21.0777111  42.9766884  55.3860435
  20.0646782  43.1769371  55.7023888  19.2814541  40.3084869  51.7872467
  18.1784363  40.1654015  52.3473969  19.5726624  39.6872711  50.6537857
  20.3772373  40.0056572  50.1328354  18.5482788  38.9868088  49.8758850
  17.5455170  39.3985596  49.9900131  18.9337921  39.1322823  48.4424820
  19.9677715  38.7887535  48.4112129  18.0554314  38.3362923  47.4589806
  17.0244579  38.6899910  47.4679260  18.4279938  38.4894104  46.4461365
  18.1945648  37.2884026  47.7248268  19.0081406  40.5289040  47.8099060
  17.9807835  40.8812447  47.7178154  19.6352425  41.1635246  48.4360847
  19.4876022  40.4266319  46.8363800  18.5538425  37.5851440  50.2472458
  19.5805149  36.9168282  50.4081841  17.3731060  36.8865242  50.3561745
  16.4745464  37.3438950  50.2969971  17.2257366  35.4472084  50.5811424
  18.1665039  34.9288445  50.3957558  16.7845116  35.0229454  51.9469910
  15.7689848  35.3963013  52.0789413  16.6089344  33.9475441  51.9751015
  17.7333393  35.5371246  53.0530739  17.9943657  36.9284210  53.3784866
  17.4991856  37.7009697  52.8089523  19.0098343  37.3099899  54.2736778
  19.2733078  38.3517647  54.3817825  19.6759777  36.2916870  55.0958443
  20.3536205  36.6474342  56.2267113  20.7523499  35.9266853  56.7197990
  19.3515034  34.9416656  54.8331070  19.7661209  34.1773224  55.4736328
  18.4023266  34.5834923  53.8490181  18.2841091  33.5107574  53.8082657
  16.2082024  34.9592171  49.4324265  15.3227577  35.6598244  48.9102173
  16.4105015  33.7129860  49.0257607  17.0866966  33.1372948  49.5068398
  15.6853867  33.0544243  47.8964539  14.6712780  33.4530640  47.8687325
  16.5403709  33.3084869  46.6293564  17.5673084  33.1386375  46.9528618
  16.3139629  32.4772835  45.9615707  16.3319244  34.6359329  45.8004684
  16.3816414  35.5151291  46.4428444  17.3825684  34.8818588  44.7937164
  17.2656403  35.8163834  44.2449875  18.3207703  34.8800812  45.3485756
  17.4104919  34.0193748  44.1278038  14.9333420  34.5845718  44.9776573
  14.7804728  35.5232353  44.4450684  14.9452629  33.8129311  44.2079010
  14.0951223  34.2971497  45.6123810  15.6136026  31.5144901  48.1703300
  16.2263775  30.9619446  49.0667801  14.6616182  30.9104538  47.3819962
  14.3463612  31.5280972  46.6476707  14.1643553  29.5309811  47.4624405
  13.2835712  29.4563885  46.8246651  15.2320099  28.5319176  46.9370537
  16.0719204  28.5152893  47.6315842  14.7690325  27.5451527  46.9436989
  15.6759748  28.8102608  45.5484619  16.1419487  29.7863846  45.4137268
  16.4979744  28.0995007  45.4633904  14.6441584  28.6051159  44.3866386
  14.1666927  27.4556026  44.1751938  14.3405542  29.6064301  43.6313248
  13.6693258  29.2446823  48.9537163  12.7058878  29.8557243  49.3031731
  14.2551527  28.3174763  49.6784286  15.0385427  27.8465214  49.2487793
  13.9384127  27.9080639  51.0376396  12.9153605  28.1946888  51.2811775
  13.9241562  26.4059792  51.0581055  14.9163847  26.0313339  50.8066673
  13.7379112  26.0762100  52.0801926  12.9755564  25.7506390  50.0977859
  12.0200386  26.1724834  50.4094429  13.1660452  26.0420055  49.0648651
  12.8586187  24.2405853  50.1170654  13.8598967  23.8572330  49.9206352
  12.6832695  23.7716637  51.0852928  11.8376150  23.8035603  49.0038147
  10.8826313  24.1906242  49.3591881  12.0103483  24.3342533  48.0675316
  11.7831793  22.3641682  48.7564850  12.5294619  22.0600491  48.1476555
  11.7812557  21.8318081  49.6147957  11.0102444  22.0042992  48.2150383
  14.6462851  28.5374584  52.1965790  14.1773949  28.4706306  53.3212547
  15.5795012  29.4013500  51.8987122  15.7629824  29.4824181  50.9088287
  16.2407169  30.3826046  52.7978973  16.4999275  29.8707237  53.7246590
  17.6144104  30.8483162  52.2405930  18.1185646  31.4569798  52.9912224
  18.1400623  29.9244232  51.9993172  17.4123154  31.4606152  51.3617592
  15.2768621  31.4596348  53.3049850  15.6907320  32.2714615  54.1107292
  14.0330906  31.5335789  52.6835442  13.5879450  30.6613979  52.4360657
  13.2027121  32.7603569  52.8220367  13.9495840  33.5363388  52.6542664
  12.1326742  32.9703636  51.7162514  11.7919397  33.9794273  51.9481888
  12.8756552  33.0191574  50.3611603  13.2954254  32.0656891  50.0405426
  12.1974401  33.4333992  49.6151505  13.7199631  33.7041168  50.4390678
  10.9938135  32.0212517  51.7228928  10.3255548  32.2400627  50.8900375
  11.1884470  30.9746151  51.4888611  10.5761528  32.0916481  52.7272339
  12.5870962  33.0542526  54.2014198  12.2150021  34.1920509  54.3407784
  12.5970516  32.0581436  55.0917511  12.8463449  31.0937653  54.9246407
  12.1811666  32.3219948  56.4996948  11.2970428  32.9593925  56.5119820
  11.6371965  31.0752525  57.1702042  10.8937578  30.6328411  56.5071259
  12.7183447  29.9534721  57.5428047  12.4034557  29.0399818  58.0472679
  13.1314573  29.6177940  56.5916176  13.5982876  30.3135109  58.0758896
  10.8900728  31.4988346  58.4441223   9.9231501  31.9789829  58.2937202
  10.6601963  30.5465145  58.9219704  11.4527836  32.0737305  59.1796188
  13.3147516  33.0886497  57.2317390  13.0539989  33.6818581  58.2531815
  14.6207886  33.1084251  56.8060493  14.8602934  32.5908661  55.9724655
  15.6518917  33.8275795  57.5282631  15.6150951  33.8557510  58.6172791
  16.9409142  33.1152534  57.1034393  17.0600681  33.2298660  56.0260506
  17.7583466  33.4757500  57.7279015  16.7946396  31.6602364  57.4864349
  16.0827770  31.0975342  56.8825188  18.0828419  30.9313698  57.1682587
  18.3192368  31.1606293  56.1291885  18.9539680  31.2533875  57.7388229
  17.9035912  29.8562355  57.1606941  16.4637356  31.5308781  59.0042992
  15.4639168  31.8887558  59.2500458  16.6229935  30.4949551  59.3036308
  17.2606735  32.0332603  59.5525742  15.8416805  35.3147736  57.0565033
  16.7563610  35.9598732  57.5559311  14.9592934  35.7560577  56.1258621
  14.2886429  35.0825500  55.7842255  15.0654926  37.0768547  55.3811226
  16.1133575  37.1100616  55.0828209  14.2338285  36.9773064  54.0755539
  14.7853260  37.5596008  53.3373909  14.1826801  35.9467010  53.7243614
  12.8659649  37.5533524  54.0534706  12.3449554  37.0868149  54.8895302
  12.9245319  38.6294937  54.2165527  12.1695690  37.1896019  52.7439919
  12.8340731  37.6558952  52.0165939  12.2185974  36.1207428  52.5360641
  10.7732286  37.6698112  52.6183281  10.7314930  38.5955238  52.2165642
   9.6596174  36.9996300  52.7340469   9.5629025  35.8451538  53.3230858
  10.4570827  35.4450073  53.5689125   8.7112074  35.3520889  53.5502548
   8.5075054  37.5965652  52.4440269   7.6867895  37.0109940  52.5042992
   8.4554834  38.5418282  52.0920715  14.6171541  38.2206230  56.3788033
  13.6245728  37.9966164  57.1337013  15.3003006  39.3678322  56.3838387
  16.5977917  39.6216316  55.8126335  16.7357578  39.6160011  54.7314148
  17.2633877  38.8362617  56.1707916  17.0817204  40.9955482  56.3328438
  16.6336231  41.7653427  55.7045708  18.1676331  40.9980736  56.4271507
  16.4067421  41.0459862  57.6726913  16.3081627  42.0730133  58.0242500
  17.0295258  40.5725098  58.4316750  15.1331406  40.2772827  57.5220108
  14.9853506  39.6900215  58.4283142  13.9037695  41.2311287  57.4838142
  13.4681625  41.7971573  58.5026627  13.3266716  41.3119431  56.2779236
  13.9648867  40.9700813  55.5737152  12.0635185  41.8133965  55.9252892
  11.9859591  42.7903290  56.4024544  11.8127031  41.9766541  54.4714050
  11.9248915  40.9980011  54.0047569  10.7701492  42.2848015  54.3924942
  12.7273283  43.0224380  53.7216339  13.9552851  43.0420799  53.8840256
  12.1481609  43.7401733  52.8550644  10.9022694  40.9915047  56.5530319
   9.8078537  41.5380669  56.6747894  11.0560856  39.7379570  56.9950829
  11.9877911  39.3481293  56.9875031   9.8888464  38.9522247  57.4201889
   9.1119814  38.9475136  56.6556244  10.3222466  37.4944725  57.7013130
  10.7488470  37.0463371  56.8039322  11.0702381  37.5985565  58.4873009
   9.1021957  36.5271492  57.9239044   8.5908823  36.8514023  58.8302841
   8.1129198  36.3246803  56.8525810   7.8801866  37.3385963  56.5271454
   8.5507708  35.7854805  56.0125504   7.2338734  35.7883110  57.2099037
   9.6772251  35.1329041  58.1467247  10.3770370  34.8254318  57.3696632
  10.2571507  35.0048561  59.0607224   8.9361839  34.3502693  58.3093262
   9.1393900  39.4896622  58.6651230   7.9121547  39.3524857  58.6730232
   9.7734566  40.1401482  59.6123581  10.7418280  40.4226151  59.5616646
   8.9992762  40.6976471  60.7575722   8.3189983  39.8743324  60.9754562
   9.9458561  41.0978355  61.8906784  10.3943939  42.0696144  61.6843872
   9.4459352  41.2372055  62.8491974  11.0131073  40.1489067  62.0509186
  11.7319927  40.4687805  62.6009064   8.0748644  41.8923874  60.3104591
   6.8877754  42.0196838  60.7795944   8.5025043  42.7314034  59.3203506
   9.3776827  42.5189896  58.8631401   7.6357169  43.7394333  58.6527214
   7.2446218  44.4370956  59.3932686   8.4787951  44.6071396  57.6640244
   9.1696815  45.1712990  58.2905273   8.9493275  43.9001160  56.9807816
   7.7799053  45.6122093  56.6935310   7.0065203  45.0725479  56.1469650
   7.1982865  46.7858315  57.4158783   6.2831769  47.1698265  56.9650764
   6.9334474  46.5096207  58.4364967   8.0185871  47.4896812  57.5565948
   8.6165514  46.0820351  55.5536690   9.2467957  45.2365990  55.2777519
   7.9400654  46.5309601  54.8263893   9.3141775  46.8341713  55.9220581
   6.4955192  43.1062012  57.8830070   5.3349056  43.5014076  57.8284836
   6.8169789  42.0038147  57.2090073   7.8181310  41.8847885  57.2692261
   5.9201713  41.3246574  56.2212029   5.6870790  42.1409187  55.5374680
   6.6691117  40.3996773  55.2085495   6.8495750  39.5402756  55.8542709
   5.8740249  40.0116196  54.0110359   5.0224257  39.4487839  54.3932648
   5.5434847  40.9359398  53.5372467   6.5150523  39.5708237  53.2475624
   7.9243484  40.8712006  54.7493706   8.5174189  41.0080261  55.4917641
   4.7071819  40.5955734  56.9438934   3.6371820  40.5264969  56.3748283
   4.9360666  40.0991821  58.1353951   5.8618770  40.2246628  58.5191002
   3.8845525  39.6268883  59.0780220   3.2129736  39.0017471  58.4895668
   4.6112623  38.7573509  60.1232376   5.2092271  39.4096298  60.7596931
   3.7913518  38.3884430  60.7394829   5.1016607  37.4034843  59.5538025
   4.2597361  36.7990952  59.2161942   5.6713495  37.6368408  58.6543007
   6.0534120  36.5963249  60.3640251   6.3760028  35.7726746  59.7271271
   6.8668308  37.2544289  60.6695709   5.3630590  36.2273445  61.6699295
   5.1593633  37.1776886  62.1633339   4.4065108  35.7747650  61.4085884
   6.0402660  35.1770401  62.4510689   5.6346111  34.2995453  62.1585808
   7.0341878  35.1434441  62.2747231   5.9779148  35.2123718  63.4585228
   3.1020956  40.7015839  59.8056488   2.0060134  40.4106941  60.2592239
   3.6015208  41.8863106  59.7645264   4.3594871  41.9842606  59.1042290
   3.0632665  43.1480446  60.3205643   2.3430409  42.8460007  61.0809250
   4.1950970  43.9662170  61.0171547   5.2026029  43.9667854  60.6011810
   3.9022477  45.0056801  61.1650047   4.3565030  43.5036278  62.4515228
   3.7776625  44.0561142  63.3654289   4.9199615  42.3822517  62.8389053
   5.5410123  41.9623985  62.1620598   4.9423580  42.1419678  63.8196526
   2.3279712  44.0861969  59.3205948   1.8801564  45.1566010  59.6747131
   2.2007601  43.6613846  58.0370178   2.6774783  42.7959900  57.8274078
   1.6054127  44.4226341  56.8807793   0.7039541  44.9078598  57.2549858
   2.5826907  45.4315872  56.2708244   2.0405843  45.9569130  55.4845352
   3.2504742  46.5541649  57.2212639   3.6672184  47.3848152  56.6516609
   2.5096223  46.9267960  57.9286423   4.0612302  46.0939522  57.7860413
   3.6092546  44.6662407  55.6292419   4.0777798  44.2477608  56.3551598
   1.1437576  43.5890083  55.7107544   0.4032592  44.1483231  54.8978119
   1.4508786  42.2501831  55.6670761   2.0339055  41.8497963  56.3880959
   0.9833097  41.4039879  54.5610886   0.0893346  41.7992134  54.0786934
   2.1306093  41.3134689  53.5219879   3.0237260  40.8677139  53.9598732
   1.7659521  40.6551094  52.7335129   2.3724499  42.7230492  52.7755737
   1.3749752  43.1439171  52.6490173   3.0455973  43.4068451  53.2926750
   3.0498211  42.5942993  51.3928871   2.6620605  41.7616005  50.5302505
   4.1496258  43.1659317  51.2097397   0.5284289  40.0435257  55.0050545
   0.6471323  39.6555824  56.2000046  -0.1950269  39.2212753  54.1415443
  -0.0785578  39.4380798  53.1619873  -0.8124069  37.9120064  54.4753075
  -1.4208779  38.0499268  55.3690872  -1.8035272  37.5391960  53.3871841
  -1.3771254  37.6680527  52.3923569  -1.9735655  36.4626503  53.3717194
  -3.1191006  38.2152786  53.3742676  -2.9208801  39.2618523  53.6055450
  -3.7643108  38.2168159  51.9991531  -4.1448650  37.2306442  51.7331696
  -4.5016260  39.0183868  52.0433083  -3.0341523  38.4591942  51.2269974
  -4.0910425  37.6234283  54.3591728  -5.1203046  37.8828545  54.1113434
  -3.9232931  36.5509834  54.2600441  -3.7772148  37.8011131  55.3877792
   0.2749414  36.8398476  54.6914062  -0.0668467  35.8848419  55.3936615
   1.3225473  36.8298378  54.0378304  40.0624428  27.1246700  43.1363411
  39.5701218  26.3519840  42.5497322  41.1419487  27.2398739  43.0661888
  39.3640251  27.8369331  44.0566216  40.1320648  28.7990456  44.8881226
  39.7324257  29.2396030  45.9346657  41.3427467  29.0978279  44.6108513
  37.9834366  27.7199059  44.3134766  36.9530220  28.1403198  43.3550606
  35.9860382  28.0228539  43.8593788  36.9934883  27.1139641  42.1817398
  37.2669106  26.1007271  42.4682999  36.5887146  27.4272156  40.9240837
  36.2126045  28.8485661  40.7161751  35.6546211  29.1071930  39.8183098
  36.4845848  29.7693291  41.6300507  36.2490501  30.8196621  41.4724083
  37.2947807  29.5403175  42.8416901  38.3393517  29.5992088  42.5121536
  36.9394493  30.4509258  43.8219528  36.6446724  29.8981705  44.5664635
  36.4506340  26.3529778  39.8680115  36.8114433  25.2083282  40.0843430
  36.0347481  26.6550121  38.7222366  44.9150352  30.0527382  67.1592026
  45.6760979  29.3061123  66.9427490  45.2250862  30.9758434  67.6442566
  43.6295967  29.8002319  66.8301239  42.5763435  30.8981743  66.9467010
  42.8323975  32.0626450  67.1827087  41.4318504  30.6562824  66.5946579
  43.2069016  28.5766792  66.2428970  43.5835571  28.0713940  64.9116592
  43.3505745  27.0000305  64.8784866  45.0859299  28.2135601  64.8101578
  45.6181297  27.3367996  65.1728973  45.6359901  29.4091663  64.3772583
  44.7800522  30.4695568  63.7946968  45.2926445  31.4083824  63.5940742
  43.4977417  30.2166233  63.5203285  42.8258553  31.0059719  63.1901398
  42.7638588  28.9023190  63.8911400  41.8664436  29.2245407  64.4333725
  42.5584259  28.3022404  62.6379776  41.5944786  28.2039680  62.7267609
  47.1297340  29.4650383  64.2008286  47.8415489  28.5226669  64.5617218
  47.7300987  30.4338474  63.7748260  19.9220619  33.4622078  59.6944656
  19.5584660  34.4613838  59.4643021  19.4993248  32.9446793  60.5529442
  21.0162220  32.9624939  59.0266914  21.7724457  33.7267990  57.9954567
  21.5087986  34.9189186  57.7327309  22.6112194  33.1900101  57.2617645
  21.7712059  31.9221935  59.6565170  22.6761951  32.1765556  60.7728462
  23.0945454  31.1958942  61.0306778  21.8769245  32.5978165  62.0070648
  21.3920002  31.7559414  62.4965782  21.8789253  33.8215981  62.5256996
  22.6603966  34.8757210  61.9110718  22.5609283  35.9261971  62.1775322
  23.4979973  34.5807037  60.9007301  23.9868355  35.3905220  60.3633652
  23.7845783  33.1885986  60.3294411  23.9261112  33.4257660  59.2678833
  25.1353874  32.8431206  60.7935715  25.5115318  32.0212822  60.4332542
  20.9420719  34.1238708  63.6429176  20.8703423  35.2066460  64.1286240
  20.2837772  33.2163811  64.1641235  64.3197403  70.3849182  82.4793396
  74.1018372   1.8122762   4.9653230  34.5142517  31.8454285  84.6842270
  38.0920486  30.6766052   7.1862769  35.3847160  35.1961441  16.9188347
  22.0712128  48.3361473  10.0783319  66.8721542  67.8559570  46.4863548
  74.6427231  41.7509804  78.0739899  54.8166962  61.6472588  15.8887625
  22.6532116  13.7230778  60.9856987  22.2618866  14.2922726  61.6483536
  23.1663342  14.3143110  60.4348984  44.6434593  20.5467205  22.5198631
  45.1996574  20.2778435  23.2510128  45.1676140  21.1914539  22.0446663
  25.7018108  66.7519608  53.6837463  25.0007477  67.2801666  53.3019867
  26.4411201  67.3550186  53.7610168  12.1874380  40.1147995  34.7278976
  11.4709997  40.6762810  34.4317703  12.5937347  39.7992020  33.9207077
  40.7875786  52.9696312  73.1904984  40.5901260  53.8883858  73.3725433
  40.0850983  52.6849480  72.6059418   8.1415415  59.0465164  54.5855560
   8.7284546  58.3018608  54.7169075   7.8110790  58.9366570  53.6939507
  50.4679146  63.1347580  64.2921829  50.4941444  63.0129662  65.2412415
  49.8319511  62.4885521  63.9852676  53.8557549  59.7669067  20.3541203
  53.1675873  59.5679932  19.7192268  53.4592209  60.4078217  20.9442272
  80.5968094  52.7033501  22.3762436  81.1068802  51.8933868  22.3724289
  79.9238892  52.5657692  21.7095528   2.1140471  18.1434345  11.2744751
   1.8268979  17.3056488  11.6376467   1.9461824  18.0674458  10.3351784
  31.3630505  46.7099724  34.3281631  30.9851971  45.8970909  34.6638489
  31.5283031  46.5327835  33.4021378  61.9500885  53.4691010  21.0256939
  61.2398148  53.9239578  21.4782925  62.7228355  54.0101357  21.1881046
  43.8621063  22.0142117  83.3410187  44.7446404  22.1898117  83.6674194
  43.3152428  22.6790104  83.7596054  32.9386711  63.0869827  63.6427155
  32.6749344  62.1829109  63.4714622  32.1342926  63.5215111  63.9262543
  53.8454704  20.1430645  29.9013920  54.5215073  19.5162964  29.6437798
  53.0208893  19.6792240  29.7559566  56.9147339  28.4635143  75.8533096
  56.0455437  28.4254169  75.4542007  57.1203461  27.5533695  76.0668335
  75.8685760  59.4232674  53.9728050  76.0363693  60.1497421  54.5730667
  76.4835892  59.5609245  53.2523575  12.6497746  66.1279526  83.9009857
  12.5178890  65.6307755  84.7082291  13.3403683  65.6538467  83.4378052
   6.0425787  28.2009106  31.8933678   6.7262535  27.5650921  32.1044540
   6.3226566  29.0067501  32.3274307  68.5802155  46.2004585  41.8602715
  67.7845230  45.9170570  41.4099503  69.2800369  45.6882210  41.4551964
  24.8117142   4.9451399  60.0054016  24.6052608   4.4420958  59.2176476
  25.6327152   4.5682988  60.3219070  11.2309017  14.7168646  46.9814606
  10.6924744  13.9622822  46.7428551  10.6002264  15.3891640  47.2393265
  74.7386703  36.9396057  23.7671852  74.3033447  37.6261368  24.2725506
  74.0475769  36.3037300  23.5820389  23.0458069  13.6660080  34.1211166
  22.4762192  14.4156561  34.2938309  23.8112221  13.8137789  34.6765785
  25.6073837  66.6382980  29.6152248  25.1698627  65.8193130  29.3826904
  25.2055397  67.2945404  29.0459328  17.5729694   2.9865499  53.0799484
  17.7668457   2.1005802  52.7738419  16.6287498   3.0818460  52.9550591
  29.8429432  15.5478659  22.6221905  29.8990765  14.7559557  22.0874386
  30.5184002  16.1253834  22.2665749  15.3742237  10.6770611   7.1744819
  14.4345493  10.8565540   7.2065082  15.6186457  10.5167503   8.0859594
  18.6606960  55.7133522   0.9537239  18.0308743  55.1836472   1.4425673
  18.2760830  56.5897560   0.9388716  50.3968925  57.3630943  29.3602638
  51.2866707  57.0139809  29.4117641  50.3155899  57.6798630  28.4606647
   8.9283323   7.1054587  72.3935013   8.2858067   6.4951272  72.7552872
   9.7722721   6.6765671  72.5350952  75.2129898  22.9275742  52.5968704
  75.8125763  23.6503754  52.7820244  75.3794403  22.7070827  51.6804047
  14.0648127  51.1862640  15.9853420  14.8184481  50.6230392  15.8091450
  13.4468260  50.6212959  16.4491730  65.3175507  61.3931770  75.8312836
  66.0577240  60.9513512  75.4151611  65.7194595  61.9984894  76.4544220
  44.2962265  55.8428917   1.2067115  45.0496483  56.3278694   0.8699866
  43.5511093  56.1845398   0.7124326  86.8788681  28.1721878  84.9881363
  86.7975693  29.0958080  85.2259369  86.1819687  28.0274010  84.3481369
  54.7192726  16.8650284  27.4702492  54.5289879  17.4452877  26.7331467
  55.1801338  17.4201336  28.0992928  84.1074142  14.7420931  17.1601906
  83.4764786  14.1416664  16.7631569  84.2473602  14.3944435  18.0409775
  55.4653130  42.8806801   9.9922848  55.1071587  41.9931221  10.0063763
  55.4091530  43.1760750  10.9010315  84.8523254  29.7478523  72.9916382
  84.1931534  30.2964191  72.5664444  85.6464005  29.8833561  72.4746094
   3.7981789  67.4765091  41.0077057   4.6126847  67.2883682  40.5414276
   3.1445870  67.5796967  40.3160400  85.2507477  66.0145264  11.9368286
  86.1202087  65.9774094  12.3354340  85.1456604  65.1634064  11.5116377
  63.5248909  58.7320366  56.5483322  64.3167343  58.5444374  56.0443306
  63.8042793  59.3704491  57.2045364  57.9614067   8.8764067  54.7245102
  57.4891739   9.7021513  54.8311729  57.7219124   8.3622065  55.4955292
  51.5250854  67.4471283  30.6302242  51.6550674  68.3386536  30.3069458
  52.1403008  67.3644867  31.3588600  55.9476662   6.8347521  49.0524292
  56.6354256   6.4142690  48.5362778  55.7472420   7.6392918  48.5741196
  77.8204346  43.0096283   3.7620425  77.4702682  42.1279526   3.8895843
  78.2512512  42.9750061   2.9079752  73.0381775  68.4423981  54.6754341
  72.8612900  68.8675919  53.8362961  73.4892349  67.6309357  54.4423904
  38.1885910   3.2679181  83.9921265  38.6468239   2.6359138  84.5460434
  37.5009575   3.6248059  84.5542831   4.7662959  45.9603806  23.7250919
   4.6571465  46.9106674  23.6893940   4.2194748  45.6295509  23.0125141
  42.6253471  13.4924717  23.8910694  42.5270500  14.3349352  24.3347187
  42.1260147  12.8785133  24.4295444  84.4912186  61.3745003  40.2194672
  84.3265381  60.4319229  40.1937943  84.7113266  61.6038628  39.3165970
  68.3427353   3.3227842  57.3486977  67.5065308   2.9597034  57.6405220
  68.1987991   3.5467155  56.4292564  14.9711504  17.9981174  81.4369888
  15.4253483  17.3282928  80.9258423  15.6729708  18.5305061  81.8114777
  37.4115295  62.1398430  60.6259346  38.2043304  61.9733887  61.1358299
  36.7417526  61.5956688  61.0400620  47.6014748  11.1677694   8.1630831
  48.0336800  10.8322897   8.9485016  47.1581306  10.4059858   7.7897687
  26.2699604  67.8766174  11.0471888  27.1108589  67.9403229  10.5943499
  25.6877975  67.4574585  10.4134483  29.7993450  67.5398941  39.4620438
  29.1905193  67.1388016  40.0822754  29.2778893  68.2025757  39.0090828
  14.4117851  54.1919365   4.6367359  14.5091562  54.3163986   5.5808020
  13.7864904  54.8656311   4.3695707  13.8967390   9.9284029  88.9654846
  14.3285255  10.3859682  88.2440796  13.3566713  10.5982275  89.3848801
  51.5159798  23.9093037  19.8735561  51.4886322  23.2901096  19.1441154
  50.6744576  23.7961559  20.3154469   9.7115889  36.0272026  65.0223083
   9.7097130  36.5301323  64.2078781  10.2334013  35.2499771  64.8226471
  83.8001556  47.6585503   4.8341508  83.9335480  47.0989990   4.0690761
  82.8784332  47.9124718   4.7873936  36.1991234  20.5441513   1.3268235
  36.6020889  20.9306011   0.5493242  35.6043053  19.8780155   0.9823098
  19.0981312  59.2456856  22.5869770  19.8963737  58.8747597  22.2108727
  19.3729420  60.0881004  22.9489822  62.9233627  36.7328758  38.2044220
  62.3391380  36.8449059  38.9543266  62.3617325  36.3811607  37.5136986
  82.3987656  26.4672508  12.4928017  81.7209320  27.0722237  12.7941065
  82.8498383  26.1955776  13.2921486  19.5128956  35.1724854  19.9243832
  20.2281933  34.5936737  20.1881218  19.1447048  34.7580147  19.1440754
  85.1248932  25.3596458  32.7763367  85.6180801  26.1503487  32.5577316
  85.3024368  25.2159538  33.7058868  50.6784821  71.4844666  40.0849380
  49.8117638  71.0864563  40.1663208  51.1233101  71.2588654  40.9019203
  33.2969437  44.6413422  20.2758675  33.8419914  45.0215988  20.9647522
  32.7552719  43.9948540  20.7284966   2.9543402  39.9923897  22.5771503
   2.6764326  40.4144936  23.3900642   2.1512816  39.9115372  22.0625725
  82.8340607  24.1043377  57.3345108  83.7032242  24.3352089  57.6623611
  82.9090500  23.1832657  57.0850372  39.0543442  53.5322876  30.7565823
  38.9835396  53.7791901  31.6786747  39.6225662  54.2001419  30.3727551
  53.0664482  36.1037827  28.9542046  53.1338310  36.6782341  28.1915112
  53.0462914  35.2199211  28.5873051  87.0155716  24.2265091   4.6695485
  86.7279968  25.0416336   4.2583241  86.2403641  23.9034557   5.1288095
   5.3189731  70.2224121   7.1579185   6.0166359  70.8693390   7.2627344
   5.6333079  69.6412582   6.4653292  77.6930542  48.1616669  45.5649261
  77.2235184  48.4004822  46.3641319  77.8197174  47.2154922  45.6352158
  53.0194130  55.6797905  15.8281050  52.7495880  55.8761177  16.7252560
  53.5678139  54.8993683  15.9082813  56.5253983   4.4371414  70.4928970
  57.4416389   4.4055796  70.2176819  56.0502434   4.7200084  69.7115860
  19.7262955  53.7733688  50.1823807  19.0374527  53.7667160  49.5177879
  19.7951221  52.8614807  50.4651375   1.4497772  32.2442741  86.9145889
   1.6539363  31.7660770  86.1109238   2.0531797  31.8866596  87.5659332
  76.4330978  12.7761889  40.1000328  75.6117249  13.2510033  39.9730377
  76.3051071  12.2897453  40.9144135  61.9240456  21.5776825  16.6094322
  62.5965080  20.8964977  16.6131535  62.0733719  22.0572071  15.7945766
  67.1285095   8.3343096  35.2433701  67.7785110   8.3307781  35.9460220
  66.8847656   9.2549458  35.1472015  17.6292553  65.7447128  29.9085255
  18.5522385  65.8870087  30.1184940  17.1527328  66.2136002  30.5935860
  21.0351448  16.1509418  28.2746296  21.1301498  16.4400654  29.1821613
  21.3797131  16.8769684  27.7546387  27.2789345  45.0875397  18.6368446
  26.7143173  44.7837791  19.3475971  28.0674419  45.4055367  19.0765762
  23.2133141   0.6333349  79.7692032  23.6303883  -0.2083169  79.5850754
  23.9163990   1.1760701  80.1260452  58.6420403  37.5637245  42.3404770
  59.0173416  37.1624451  43.1242828  57.9073105  38.0837555  42.6660194
  85.2625122  18.1494045  66.3472214  86.1065521  18.6007175  66.3593063
  84.7129822  18.6530762  66.9476929  31.7278538  18.5841427  54.0987892
  31.7702236  17.6945953  54.4497032  32.2518196  19.1064281  54.7061691
   0.4179575  10.1930695  78.1920471   1.2324476  10.1973915  78.6948547
   0.3788602  11.0617628  77.7919540   4.2597437  22.3205490  85.4828415
   5.1686282  22.0835590  85.6672211   4.1975584  22.3063869  84.5277710
  16.8418961  50.4803505  17.5810509  16.8813934  51.4367218  17.5759163
  17.3024616  50.2259026  18.3806553  47.3485909   5.8311415  42.2861557
  46.9135971   5.2452312  41.6667023  48.0338364   5.2936883  42.6834145
  59.5559044  43.3075142  16.4028797  59.4190712  42.6825638  15.6908817
  59.7834167  44.1263428  15.9624338   7.3842187  52.5706291  55.1781006
   8.2989826  52.6049843  54.8983536   6.9968495  53.3735542  54.8295441
   6.9454246  30.8557053  32.5691719   7.7191687  30.2973919  32.6455727
   7.1553369  31.6289158  33.0929184  58.6710434  35.0019913   6.5962467
  59.4280624  34.4488640   6.7891221  58.7974358  35.2723198   5.6867523
  67.1930161  27.2650547  20.9437141  66.9349365  26.5510063  21.5266075
  67.9526520  26.9253845  20.4706268   3.3599381  55.7349281  56.9869881
   3.3882992  56.6720276  57.1800461   3.8867705  55.3321342  57.6772308
  56.9703598  59.0658836  39.1832314  57.1331673  59.5224037  38.3578110
  56.1191940  58.6455116  39.0605965  31.2238979  64.3432007   4.2589798
  30.6333504  64.5390320   3.5315614  31.5980167  65.1910324   4.4986682
   0.7579826  49.9396896  70.5085068   1.5202848  50.4771004  70.2932968
   1.0358621  49.4213524  71.2637177  75.9624710   4.8850908  41.4278488
  76.8072052   5.2078476  41.1140289  75.9717712   3.9503212  41.2220535
  53.4549065  27.4214916   3.9088995  53.4343300  27.6521111   2.9801245
  52.7721786  26.7576561   4.0060349  81.1846619  68.5232773  11.7468176
  81.8485489  68.7809143  11.1072025  81.5477676  68.7924728  12.5905714
  23.7759190  14.8932047  76.1019287  22.9334126  15.1656933  76.4654694
  23.7773628  15.2443390  75.2114563   2.3042347  23.0960369   8.2383137
   1.8863273  23.8342934   7.7949629   3.2290721  23.1670837   8.0019665
  75.9670944  59.8520737  78.2007751  76.1695099  60.7858582  78.1432343
  76.6936188  59.4798698  78.7006302  66.1439209  66.4899521  54.0288849
  66.7847366  65.8425827  54.3230095  65.9798660  67.0322342  54.8004074
  86.4738083  13.7626600  55.3756256  86.3121872  14.2890472  54.5926628
  85.6754990  13.2461891  55.4860039  38.3928032   0.6729789  73.0465393
  38.6344643  -0.2315653  72.8474655  37.4445038   0.7010651  72.9193726
  39.6293030  70.4367447  57.9364204  38.8564148  70.5965195  57.3948059
  39.3658409  70.7081146  58.8157272  74.6333542  25.5086803  21.3071022
  75.1063232  24.8880386  21.8614845  74.1912003  24.9613991  20.6580925
  54.5239639  38.1813431  32.4544373  55.4424019  37.9826164  32.6366692
  54.5513535  38.7695999  31.6998272  64.1377640  65.5778275  17.4678459
  64.7948761  65.9381256  16.8723507  63.4601402  66.2523651  17.5132160
  21.8723736  59.9541588  67.8737488  22.1358318  60.8451538  67.6436386
  21.2571678  60.0659370  68.5984955  17.4243507  63.5434074  82.3234406
  17.6338577  64.1130829  83.0635834  18.0150318  63.8291702  81.6265411
  14.9245434   5.9099946   7.4342165  14.2552662   6.5901875   7.3591394
  14.5506744   5.1549344   6.9799719  56.5370712  25.3360329  26.6488552
  55.9127998  24.9641857  26.0257626  56.2226753  26.2274342  26.7998180
   3.6261971  17.0237770  19.5781345   3.1057441  17.2970314  18.8226929
   3.2721913  16.1667023  19.8154869  64.4074936  51.8750801  12.2955561
  63.7900963  51.2381592  11.9358578  63.8971405  52.6800842  12.3834925
  80.6952362  11.6360245  19.2180119  80.8513184  12.3066616  18.5530949
  81.4211197  11.7358818  19.8339214  32.9619675  11.9359331  30.0934830
  32.4234123  11.6053381  29.3745270  32.8523331  12.8861542  30.0575504
   7.8827848  54.3337402  51.0289497   7.9298129  53.9154015  50.1692924
   7.0607190  54.8237991  51.0121880  24.6193314  61.6041870  27.8513584
  25.1851730  60.8713646  28.0943108  24.2765865  61.3667374  26.9897461
  20.4566669  68.0140915   1.8761872  20.4649563  68.7178574   1.2274392
  19.7282410  67.4525299   1.6110836  39.7432442  54.3245049  -0.1427909
  40.2325706  54.0673561   0.6386599  39.2530785  53.5396004  -0.3875262
  37.1837196   8.7695713   6.9251881  37.8680496   9.0463505   7.5345478
  36.3831520   9.1674099   7.2673120  47.4927559  46.5975990   4.6613865
  47.0231438  46.6502342   3.8289645  46.9945602  47.1610260   5.2534847
  20.8796749  27.7509651  13.2834053  21.2455215  26.9148655  12.9947443
  20.0319347  27.5225754  13.6647282  16.1582451  57.7086220  55.5563393
  16.6191330  57.9852676  54.7643280  16.1977596  56.7524796  55.5348244
  53.6616745   0.1625949  52.0350761  53.4380074  -0.0691902  51.1337013
  53.4170914   1.0847344  52.1129875  20.6411228  23.9210167  19.0259190
  21.4898071  23.4885654  19.1205482  20.0925808  23.5224895  19.7015743
  84.4393311  32.5633163   5.7379575  84.5246658  33.5034943   5.5797925
  83.4962463  32.4176674   5.8128600   6.3883324  31.7993336  71.0310135
   6.0799470  32.6870461  70.8490829   6.2256145  31.3182583  70.2196426
  58.6870537  67.2766724  13.8997250  58.1907539  66.4592590  13.9416599
  58.5036736  67.7112198  14.7326555  37.9104919  68.8910294  25.6922741
  38.4427567  68.8625259  26.4873314  38.5445213  68.8342896  24.9774189
  18.2752075  50.1639290   7.6387291  18.6466808  49.7030602   6.8865085
  18.0442696  51.0287399   7.2996092  67.9850464  14.5378389  70.3502731
  68.8354797  14.2790384  69.9952698  68.1820602  14.8693399  71.2263565
  46.1074867  68.6110916  41.6839409  46.6555977  68.0393982  42.2215042
  45.3281746  68.0880890  41.4958611  16.9946289   6.7053723  30.0853825
  16.1961880   7.0751362  29.7085533  17.0971870   5.8604569  29.6473961
  57.9638748   0.0167139  57.6115227  58.4265327   0.1965206  58.4299660
  57.7562790   0.8819486  57.2586708  15.7814779  52.9748077  77.7668381
  16.7132111  53.0377007  77.9769669  15.7485933  52.4197006  76.9877319
  67.2044144  23.1845074  56.5296516  67.1476822  23.5731010  55.6567192
  66.3784409  22.7125835  56.6358833  77.1465530  31.3126717  16.5985146
  77.6584015  30.5639496  16.9045467  77.6707840  32.0761414  16.8404408
  63.8639183  57.0630188  77.4790878  63.9190865  57.2541924  78.4153748
  64.1658173  56.1580200  77.4012222   2.1035836  61.3449478  56.4920959
   1.3768836  61.0068741  57.0153999   2.4395118  62.0846100  56.9983444
  76.7893906  54.2560310  39.0444450  77.6117630  54.2620850  39.5342407
  76.5357819  55.1774597  38.9907990  66.4915085   4.5746379  51.7465973
  66.2304153   4.5596104  50.8258209  66.7927780   5.4709034  51.8955307
  79.2509232  27.2494984  37.2940979  78.8368607  26.6252117  37.8899574
  79.5748138  26.7120209  36.5712967  57.6517067  13.3839006  79.4723511
  57.2414246  13.6975765  80.2782669  57.1967468  12.5652065  79.2749100
  10.5493431  58.5259819  26.1748734  10.3409758  58.3897018  25.2506199
  11.4802732  58.3143539  26.2442551   0.0758683  46.4403801  21.4145145
  -0.1133719  46.5313721  22.3483982   0.2910620  47.3274002  21.1262035
  19.8957882  62.7662849  15.7628889  19.3020496  63.5168839  15.7454023
  19.7761269  62.3463478  14.9110870   6.9318061  55.5859871  43.5822411
   6.5174670  56.3059196  44.0578957   6.2001710  55.0796661  43.2292786
  72.5875549  51.1377335  20.9926949  72.9180298  50.2413826  21.0524921
  71.6755905  51.0762291  21.2768898  31.9948483  39.9926338   5.4672074
  31.6873932  39.1601486   5.8259153  32.8443489  39.7862968   5.0773330
  73.8266983  16.0285187  39.9228210  73.4819107  16.7666683  39.4203415
  73.5586777  15.2550306  39.4267235  41.7344360  57.9463158  53.7885284
  42.0782318  58.6502953  53.2385750  41.1114883  58.3802834  54.3714828
  60.8009758  71.6417084  82.8825684  60.3484230  70.8130951  82.7250061
  61.1068802  71.9157257  82.0179443  23.3358936  56.6176949  15.8616362
  23.5504036  56.5567780  16.7924995  22.4608727  57.0052490  15.8423510
  62.9696045  66.2416992  35.5630035  62.3795624  66.9726410  35.7468681
  62.9924316  65.7413025  36.3786697  55.8585854   8.3216562  24.0655994
  55.7026062   7.7321973  24.8034611  56.3820152   9.0333300  24.4340782
  37.5168724   0.9486496  69.1407700  36.7209396   1.2286096  68.6887207
  37.2424698   0.1963701  69.6651840  17.8549137   1.6686323  58.1233635
  18.0335522   1.0481718  58.8300095  17.7164574   1.1194338  57.3517151
  70.9563828  46.0373917  72.9251251  70.0302582  46.0278130  73.1668549
  70.9838486  46.5238838  72.1012344  84.3629456  43.8375969  55.6320877
  84.3637695  44.6434860  55.1155815  85.2778778  43.5563889  55.6386604
  66.2296066  60.4059143  39.1397896  66.4201813  60.6865044  38.2447014
  67.0779114  60.4257812  39.5827599   0.9578051  60.2691689  63.9746284
   1.0594984  60.7979736  64.7659912   0.3080168  59.6071739  64.2107849
  83.8474350  12.4403944  40.2348061  83.2511215  12.0129900  39.6200180
  84.5917587  11.8422709  40.3015747  84.6096497  14.9191895  27.9062214
  84.8256073  14.1086369  28.3673058  83.7237778  15.1327095  28.1992722
  62.9527397   8.7595367  30.1616440  63.8979263   8.7822990  30.3111057
  62.8036308   7.9366140  29.6960297   4.8265429  70.2526779  39.7858963
   4.7333012  69.6575928  40.5298119   4.9264541  71.1180954  40.1825180
  83.5212402  39.8558807  64.8192520  84.1158829  39.6679459  64.0930939
  83.1438599  40.7090874  64.6051178  66.7105179  16.3055611  68.2989807
  67.2041931  15.6445265  68.7843170  66.0740967  15.8034077  67.7900162
   8.0697651  62.5248032  80.1342621   8.3279467  62.7160378  81.0359344
   8.1524715  63.3625374  79.6786423  16.2463512  24.6976547  12.9073172
  16.7509708  25.5110340  12.9093018  16.8802414  24.0219402  13.1477823
  14.5746260  19.4557304  71.3082886  13.7636414  19.8907471  71.5715256
  14.7237492  18.7965412  71.9861221  11.2498999  25.5718746  21.8877468
  10.4954796  25.7112331  21.3153305  12.0024996  25.5715427  21.2962875
   7.8751440  17.1528034   4.7685676   8.5308857  16.6592827   4.2759500
   7.0628166  17.0277309   4.2779431  64.5024796  15.4099407  66.5033722
  64.8377075  15.4300995  65.6070175  63.6122437  15.7547445  66.4339600
  83.7570572  57.3178368   3.1483617  84.1991043  57.0330353   3.9481826
  84.4461441  57.3267326   2.4840453  34.7485161  70.8876038  22.3564301
  34.2806625  71.0066757  23.1829720  34.0923462  71.0640259  21.6822281
  70.5686417  29.9044647  69.6475449  70.5102615  29.4208469  70.4715195
  71.5082550  30.0017910  69.4930038  13.0093317  37.4842796  61.7951660
  13.2115326  36.9887085  61.0015945  12.8861799  38.3835144  61.4911232
  67.3240585   5.5939856  54.8315201  67.0662308   5.9276185  53.9721909
  67.7532578   4.7589111  54.6453209  30.1280613   6.4728513  42.1417961
  29.3828754   7.0699091  42.0750618  29.7337112   5.6130743  42.2884407
  31.2218208   7.2070231  36.2099304  30.9641781   7.6314197  37.0283051
  31.1571445   7.8982615  35.5509644  72.3792114  52.7325478  28.6764431
  72.7966537  52.3855553  29.4648399  72.9324570  52.4262238  27.9578915
  57.1638641   3.5997159   0.6185638  56.8930092   2.8633366   0.0702799
  56.8136292   3.3944457   1.4854147   3.2593398  44.5867195  81.6613846
   4.2119684  44.6756248  81.6326370   3.0629740  44.4095764  82.5813293
  70.9857407  57.3114166  14.2603531  70.4279861  57.4960518  15.0160322
  70.3980408  56.9073906  13.6219139  41.3221664  11.7020378  67.2072067
  41.9926071  11.5503111  67.8733368  41.0688362  10.8253393  66.9183197
  67.7908478  27.0415993  50.2931290  67.6535873  26.1226406  50.0631142
  67.9248657  27.0338421  51.2408676  11.7576923  21.5753899  31.7267723
  12.6314325  21.8318481  32.0217972  11.6351414  20.6938152  32.0789642
  65.1569443  18.7849827  -0.2263097  65.6931000  19.5393620  -0.4706110
  65.1499939  18.7959728   0.7308019  17.6984940  67.6717911  41.8360481
  17.2994709  68.3730774  42.3510323  17.3577900  66.8659210  42.2242889
  27.7351685  24.8550720  82.2934799  26.7941971  24.7259045  82.1746521
  28.0714493  24.9945660  81.4082108  71.3320770  63.7546692   9.7373238
  71.5826569  62.8634109   9.9804392  70.4075394  63.6869164   9.4988518
  70.8422318  40.3058662   7.5627136  70.7156067  40.0983086   6.6369076
  69.9596329  40.2968521   7.9330826  59.0692101  48.7866669  87.2097015
  59.7008781  49.0866890  86.5560837  59.0970230  47.8317986  87.1490326
  33.5922775   3.0251508  13.7746754  34.0597572   2.1899037  13.7669840
  34.2198029   3.6474648  14.1423330  66.8206482   1.7650008  48.8639908
  67.5128326   1.1548014  48.6095085  66.1691360   1.2184341  49.3033485
  57.7097282  16.7198238  79.0738068  57.3184013  17.0577278  78.2682571
  58.6398964  16.6273136  78.8677368  76.8883057   9.1292276  16.6749992
  77.4194565   8.5272789  16.1536884  77.4235535   9.3140335  17.4467411
  22.9750748   2.1640360  67.4520264  22.4734573   2.2358944  68.2640915
  22.8007584   1.2758496  67.1406250   7.3780732   4.8456907  22.8066387
   6.4562621   5.0556335  22.6569023   7.3984203   4.4710937  23.6872597
  63.5746155  45.9478989  86.8323975  62.6672440  45.7499161  86.6006470
  64.0616379  45.8281822  86.0171051  69.3037338   1.1518428   5.6882553
  68.7980347   0.3784571   5.4385076  68.6633682   1.7357289   6.0947576
  85.1088181  46.2482567  71.9243622  85.5211792  45.6501045  71.3011398
  85.7818298  46.4055214  72.5865936  14.0841722  22.0290432  32.6286850
  14.7991047  22.1525097  32.0042953  14.4949503  21.6056252  33.3824806
  49.5924988  15.8319483  75.9275436  48.7084351  15.4970798  76.0776215
  49.4770050  16.5349903  75.2883072  40.6289711   4.6275544  35.3798103
  40.4070549   3.7040796  35.4988861  39.8078003   5.0382524  35.1091881
   3.7642376  55.3012505  76.1669922   4.5180831  54.7910995  76.4631271
   3.0905766  54.6471863  75.9809418  54.5805397  37.8383369  80.0953979
  53.9689178  37.1024513  80.0704269  55.2800522  37.5889854  79.4914627
  73.8850327  15.6198645  67.7454147  74.0104370  14.6964455  67.9640503
  74.4585495  15.7679996  66.9935074  12.2651386  22.4183159   5.6757846
  12.7520933  23.0054569   5.0975351  11.4502678  22.2409420   5.2059383
  37.3726540  19.2468891  20.4014168  37.0772133  18.4766884  19.9158916
  36.6039391  19.5258026  20.8989277   9.5487070  68.6242447  10.0800409
   9.0189180  69.3272095  10.4560661  10.1897984  69.0751724   9.5305910
  24.6371059  28.7458134  35.8650169  23.9598217  29.2615166  35.4273338
  25.4564610  29.1868649  35.6405983  74.7911072  57.4652328  52.0467110
  74.8678818  56.6232376  52.4954681  74.9413147  58.1164398  52.7319832
  57.3358612  35.6531944  85.8799591  57.7874374  35.8465271  86.7014999
  57.2474022  34.7001114  85.8738022  43.2709045  46.7105255  81.2498398
  42.7340393  47.4092026  80.8758621  42.7464104  46.3663521  81.9728088
  41.3357506   5.8039727  77.7805939  40.9884224   6.4377518  78.4082260
  40.6017609   5.6207542  77.1941452  84.3061371   0.9347324  17.9497738
  84.2001038   1.8337017  17.6385765  83.4199600   0.6543688  18.1785145
  69.5765381  25.6952744  16.3510227  68.7407150  25.2287788  16.3475971
  69.7921677  25.8071747  15.4251652  48.9780579  29.0958176  35.8684196
  48.4329529  28.5133419  36.3973923  49.5289383  29.5517445  36.5047302
  42.3814278  29.1692963  25.8602028  43.0246391  28.8345623  25.2353287
  42.6534348  28.8046780  26.7024021   4.7032890  52.1912079  59.9563293
   4.9623137  51.5769234  59.2694550   5.3460131  52.0566940  60.6527786
  85.7124329  16.7991314  55.4500809  85.2007217  17.4595318  55.9172554
  86.3929138  16.5397892  56.0713081  84.9531937  44.2737656  51.3450851
  85.6139908  43.8772125  50.7773438  84.4370956  43.5338326  51.6650352
  68.9215240  15.4748278  49.2584038  69.7731628  15.7740650  49.5768280
  68.6626663  14.7896366  49.8746376  36.6685143  54.9689102  71.0344086
  37.5189285  55.2437096  70.6916046  36.1048965  55.7337914  70.9181366
  20.1013794  63.8971252  44.0573997  19.9225769  63.0877914  43.5786057
  19.2534981  64.3386078  44.1066093  84.0715714  55.7565460  24.0121098
  83.8431396  56.6154823  23.6567459  85.0087433  55.8156586  24.1977005
  13.5877943  13.4709778   3.6712816  12.9947758  12.8906603   3.1940060
  14.4379168  13.0332394   3.6275954  33.9256134  50.2360306  11.2005739
  33.8357315  49.8624229  10.3238926  34.8699417  50.3313637  11.3246355
  17.4392242  51.6330681  41.5651894  18.0233364  51.9751740  40.8884277
  16.6339169  51.4122467  41.0972672  49.8622093  32.8181725  39.5505447
  49.0828819  33.3503571  39.7107506  50.5879593  33.4416466  39.5788460
  59.1065903  13.5016699   7.0421033  58.7996674  14.3928461   7.2089348
  59.2912636  13.4838076   6.1030564  76.1734467  56.5110474  13.9711933
  75.5296783  55.9493484  14.4028063  76.9331665  56.4957542  14.5532761
  10.5151224  45.9328156  16.0126762  11.0150595  45.8878059  16.8277035
  11.1454363  46.2415161  15.3617992   1.0426873  16.8761711  74.7464294
   1.6064968  16.2377300  75.1831741   0.3488301  16.3503437  74.3485641
  80.2163620   4.3422942  85.0982208  79.7117538   4.2853270  85.9096146
  81.0177841   3.8513229  85.2796097   2.5591674  42.1074753  38.7556305
   3.4037576  42.2819824  39.1708946   1.9184499  42.2261925  39.4567871
  19.8968086  19.4480515  15.8997040  19.9202175  19.3308716  14.9499912
  19.8051338  20.3929367  16.0222607  62.2259827  40.4698334  85.7726898
  61.6370125  40.9680595  85.2060165  63.0218964  40.3590355  85.2526093
  68.5127640  31.2011967  42.9423599  69.0122528  31.8686619  42.4720039
  68.1973953  31.6475086  43.7282219  83.3966217   5.9030814   1.0877006
  83.4980240   6.6668806   1.6556436  84.2749786   5.5265288   1.0336078
  52.6870384   2.9248030  54.3833504  52.0217552   3.2147770  53.7592125
  52.2606506   2.9943948  55.2375069  70.8527679  60.0324249  56.7135696
  71.6166916  59.7846642  57.2344017  70.9378662  60.9789047  56.5988159
  53.4454536  21.2216339  69.8627472  53.4542656  20.2769680  70.0168991
  54.3698730  21.4684830  69.8353882  49.9345589  62.0770607  36.4558067
  49.0159874  61.8754921  36.6342125  50.4163361  61.3264847  36.8033104
  60.9473152  44.8169327   7.2656193  60.0007286  44.7130280   7.1686139
  61.1743279  45.5216522   6.6589365  12.6558113   1.9718013  86.8349762
  13.3886051   2.4454598  87.2285461  12.8927832   1.8886404  85.9113083
  57.6858597   8.5608721  16.5282669  57.4349709   8.5800228  17.4518032
  58.5012360   8.0597486  16.5119228  63.3177032  34.3783035  56.4176788
  63.6330070  33.7444839  55.7734032  63.7195549  34.1025047  57.2415047
  81.8615952   4.3767743  41.8585014  81.1320419   3.9210436  42.2783775
  81.7083359   5.3019419  42.0503540  59.5939255  46.2821465  87.7127762
  58.9053612  45.6217728  87.7903290  60.2824745  45.9809952  88.3055954
   6.4247622  28.9054661  70.2267914   6.3872137  29.3957767  69.4055557
   5.6170912  29.1408310  70.6834106  13.5571375  42.8968849  31.6359863
  13.9846354  42.3205872  32.2695160  13.9870939  43.7438431  31.7544250
   1.3561519  62.4632797  66.1105652   0.5101575  62.3157196  66.5333557
   1.3315871  63.3809471  65.8394394   3.3449233  16.9914856  29.0850410
   2.9924288  17.1388988  28.2074032   3.1650047  17.8055782  29.5552673
  82.1850815  38.5390587  33.0829964  81.9606552  38.7214394  33.9954681
  83.1135864  38.7617035  33.0156097  36.5014687  69.5026016  53.6732597
  35.5824432  69.2964096  53.5026360  36.9876633  68.7884598  53.2611313
  28.0888500  52.7331467  22.8551464  27.8932648  52.4473991  23.7475166
  27.3623581  53.3121071  22.6243935  82.2257309  25.7073746  42.7926407
  81.2686920  25.7239799  42.7977066  82.4573822  25.0515404  43.4502487
  72.1854095  60.7926483  29.4793663  71.9443436  61.6846123  29.7294025
  72.6676025  60.4544258  30.2339058   0.7744452  60.4517860  32.4643326
   0.7282518  59.7761726  33.1408234   0.9557019  59.9704247  31.6570721
  41.7666702  17.7395859  10.3523893  41.9081917  18.6262016  10.6842251
  42.6353264  17.3376961  10.3648386  84.1196899   9.5522013   6.2064338
  83.3091583   9.8156977   5.7707334  83.8307190   9.0258350   6.9518642
  65.7321243  59.1894341  52.3335457  66.1697159  59.7899170  52.9370041
  65.0054855  58.8274879  52.8407211  82.2662735  65.0999069  32.7319107
  83.1118774  64.8959656  32.3324203  81.8172073  65.6384354  32.0803299
  31.0087051  65.5785599  38.0157051  31.6519337  65.7821503  37.3367081
  30.8817177  66.4053802  38.4809685  14.3534698  18.7587013  35.3084793
  14.9265270  18.3576317  35.9619179  13.5221319  18.8867893  35.7653198
  38.7252731  62.9724770  16.6841850  38.1368561  63.4947929  17.2293339
  39.5932274  63.3420258  16.8464127  40.4714508  64.4396973  71.8275146
  41.1400566  63.7900238  72.0446014  39.9840393  64.0486679  71.1024170
  73.3938293  67.0764771  60.6081505  73.3081284  67.7196274  61.3118820
  72.5919418  66.5563660  60.6600494  73.4553528  36.2909546  77.3261719
  73.9773865  36.6918449  76.6311874  73.9147186  36.5210304  78.1338120
  33.2403221  16.7656040  27.8782597  33.5111465  17.5823936  28.2974758
  32.4292908  16.9883804  27.4212742  85.2902832  59.2113152  54.1586418
  86.0367737  59.6457863  53.7460632  85.6040421  58.3278427  54.3516655
  75.9027710   0.9400694  48.5511398  75.4752502   1.7467589  48.8387299
  76.0151672   1.0519691  47.6071739  72.9012680  63.1592445  78.5911713
  73.6913147  63.5058937  78.1765747  72.3099060  63.9099998  78.6449661
  35.1231651  57.0231171  67.8021317  35.3081779  56.9396858  68.7375641
  35.9843369  57.1181030  67.3951950  24.2532368   3.1817501  75.9433899
  24.7985306   2.8361921  76.6501236  24.5011539   4.1040177  75.8786469
  70.4026413  17.1521816  76.5821304  69.6784897  17.0328655  75.9676361
  70.0103607  17.6027412  77.3300247  23.7058849  20.4949951  84.8606186
  24.4381504  19.8817787  84.7974930  24.0828819  21.2776718  85.2625198
  33.0541306   1.3127966  89.0226135  32.2256622   1.7750125  88.8952332
  33.5242729   1.4320461  88.1973953  17.8628902  56.9521942  13.1028700
  17.0450363  57.4232445  13.2624254  18.3313770  56.9965630  13.9364071
  84.7824707  28.1865788  54.4684334  84.5031281  27.4386997  54.9965210
  85.5622635  27.8766651  54.0078850  35.4998589  21.1774445  82.0835648
  35.7450333  21.0260658  82.9963608  34.5667953  20.9668217  82.0480804
  37.0390472  28.1862850  37.0589600  36.2358284  28.4337311  36.6008759
  36.7606316  27.5208302  37.6881561   0.2882201  54.0950661  18.6654167
  -0.2270380  53.7019310  17.9610138   0.1437410  55.0365868  18.5710926
  66.6484070  61.8708267   7.7286420  65.9049072  61.3300438   7.9950972
  67.3957672  61.2728767   7.7400413  21.1126175   2.8482738  79.5863800
  20.2489624   2.5905738  79.2640152  21.6434250   2.0554793  79.5092316
  68.8175049  70.5155182  32.6638565  69.3125763  70.9429932  33.3627167
  69.4738007  70.3050537  31.9996243  79.2481766  65.2803421  76.1816254
  79.3455505  64.4225540  76.5950699  79.8136749  65.8585663  76.6935883
  29.0408077   6.2205048  15.4853697  29.3588867   6.2968292  16.3849430
  28.2195587   6.7121806  15.4791832   5.0774651   6.4745326   7.9595203
   4.6742725   6.5347428   7.0934706   4.3573036   6.2351599   8.5428724
   4.4803414  59.0360146  79.4602356   5.1127348  59.5796356  78.9903564
   4.9452643  58.2156448  79.6247559  77.2410736  61.0478058  75.1312485
  77.5376282  60.8140106  76.0108032  78.0386810  61.0492554  74.6020508
  24.3176517  10.3792648  72.1973114  23.9461212   9.7565241  72.8221207
  24.2067604  11.2331247  72.6154709  66.6705856  55.3223877  73.5095673
  67.5638962  55.4590988  73.8250656  66.7730103  54.7785721  72.7285385
  77.0266266  49.4057045  62.5456886  76.0711746  49.3520851  62.5242043
  77.2120209  50.1465988  63.1226959  20.3289204  43.5300789  17.7829075
  20.6261997  44.0278091  17.0212479  20.3121758  42.6211052  17.4833794
  84.8430786   0.4722541  75.8351440  84.7840805   0.9221138  74.9923019
  84.0046387   0.0190861  75.9239731  41.5769577  11.4909716  25.4877472
  41.3336639  10.9538050  26.2417297  40.8222466  11.4367065  24.9014912
  58.9289093  31.7333317  21.2646370  59.8684807  31.8841934  21.1613007
  58.8467140  31.3113804  22.1198750  43.0660858   8.1772366  84.3263397
  42.6800690   8.4484310  83.4934692  43.4314232   7.3102565  84.1499786
  28.2291336  39.1321983   7.7699580  29.0781250  38.7448463   7.5568762
  27.6119366  38.6933289   7.1845579  19.6120472   4.9060731  10.1686487
  19.9407310   5.6510882   9.6655064  19.4163418   5.2682800  11.0327873
  46.3120270  61.1633949   2.5544198  46.8051186  60.4028091   2.8619888
  45.4101601  60.9889870   2.8235888  74.2974014  37.5957832  42.0050735
  74.4452667  37.0325470  41.2453804  75.1746521  37.8626823  42.2797203
  45.4893494  30.5873337   9.5076275  46.2009773  31.2247543   9.5668621
  45.6126480  30.1691990   8.6554594   1.7653143  28.0024662  63.4186058
   1.7526847  28.7613964  64.0017853   2.5576887  27.5248871  63.6641502
  33.4524193  21.8345585  15.3864813  32.5412674  21.6012135  15.5642052
  33.8361168  21.9777546  16.2516422  78.5435410  21.5821533  15.1751986
  78.3709946  22.3138351  15.7677345  78.7353058  21.9956741  14.3334980
  72.2735367  19.1947155  46.8484802  72.9917221  19.6021729  46.3643188
  72.6598587  18.4077606  47.2327805  15.9818621  70.7161865  39.8415451
  16.2260361  71.2339783  40.6086807  16.7739372  70.2258148  39.6215668
  49.3934784  35.1155434  16.9030781  49.4291115  34.2016411  16.6206818
  48.5847282  35.1778297  17.4112892  22.6382790   1.8804048  84.3498535
  22.7534523   2.8306212  84.3423767  22.2524929   1.6926240  85.2055054
  33.4133224  35.7617874  22.8867188  32.9555168  35.5786057  22.0662975
  33.0461731  35.1357460  23.5108185  74.3138809  31.9315166  66.5615463
  73.7583923  32.3796730  67.1993790  73.9091568  32.1225433  65.7154160
  70.8912048  43.6318398  76.2116547  70.2265854  43.0724907  75.8096085
  71.1974869  44.1909790  75.4976578  70.6443863  50.5264587  46.4571114
  69.7834244  50.1666756  46.6704903  71.1737595  50.3593559  47.2369003
  81.3752441  32.3806839   1.6501616  82.2556152  32.1474380   1.3555820
  81.2836609  33.3058243   1.4222131  21.1362648  64.4050751   6.3364735
  21.4820004  65.2935104   6.4224062  21.5615597  63.9135551   7.0391569
  69.5837021  38.0740585  67.4515915  70.0385284  38.9135170  67.5199280
  70.1367188  37.5483742  66.8736115  59.8221359  24.9843159  28.2699242
  59.4928703  25.0615902  27.3744678  59.3015099  24.2803040  28.6566353
  25.4633446   1.6266173  18.9167175  25.3831882   2.2200654  19.6634617
  24.5628586   1.3720365  18.7153625  39.7977753  23.1877270  27.1895123
  40.1402359  22.9014721  28.0362759  39.4392967  22.3926983  26.7949791
  66.3063049  68.0150070   9.8654423  65.4168472  68.3602829   9.9421339
  66.2722244  67.4316177   9.1073380  83.8985367  44.2891045  32.6224174
  83.0281601  44.5535049  32.3244781  84.5019913  44.7858849  32.0698929
   6.1807833  27.4281673  23.7298279   5.7340360  27.1311512  22.9370937
   6.4107957  28.3393593  23.5480080  16.7730827  52.8447914  64.8161087
  17.6243477  52.8240433  65.2533112  16.9517174  52.5324860  63.9290962
  68.6298904  67.3264847  11.5602360  67.8079224  67.4316025  11.0811214
  68.3688049  66.9655991  12.4074821  32.6241112  56.8388290  33.4054108
  32.0124168  56.6867104  34.1257744  33.4003639  56.3297119  33.6387939
  46.3885002  31.9260311   6.1204367  45.9182281  32.6896210   6.4551196
  45.9803658  31.1810513   6.5616455  50.5340347  59.7167931  53.4885406
  51.3250389  60.2015762  53.7241936  50.6273117  58.8749390  53.9344292
  61.4393120   3.5234802  23.2357941  61.1490364   3.4124088  22.3304558
  60.6312294   3.5177553  23.7488213   0.9206917  39.6597557  50.3224030
   1.5029786  40.4127159  50.4235420   0.0663435  39.9765968  50.6155472
  45.2313309  53.1094513  28.1349831  45.4671021  52.3362160  27.6223888
  44.4266739  53.4304581  27.7279034  34.0847397  56.4813423  21.4054508
  34.5864258  56.4288597  22.2189560  33.4924164  57.2217216  21.5366802
  18.4541702  63.2906609  35.9879913  18.6510372  64.2269211  35.9581451
  19.1507530  62.8829193  35.4734497  68.6860275  49.3825150  26.3292809
  68.5070801  50.3228226  26.3353348  67.8208618  48.9742661  26.2967606
  18.3160877  56.8199921  59.9693604  18.9794903  57.3289986  60.4352379
  17.6505032  56.6315269  60.6309586  83.5450821  34.3681183  73.9328995
  83.3041306  35.2928581  73.8778763  82.7407684  33.8975983  73.7140045
  19.1260719  33.9453316   5.5621796  20.0769653  33.9135780   5.4571676
  18.7930393  34.1098213   4.6799870  11.7375660  31.7118301  47.2461014
  12.3906822  31.2806187  47.7972145  12.1051188  31.6717834  46.3631897
  23.8139381  50.6596489  47.5083885  23.8838043  49.7686501  47.1656418
  23.8615589  50.5551414  48.4586716   8.0121031  56.6762886   6.3955245
   7.4435711  57.3092422   6.8341265   8.5244427  57.2007141   5.7801228
  22.5201511  48.8255386  77.2058792  21.7354107  49.3726845  77.2382584
  22.4431019  48.3447952  76.3817520  53.2883072  22.0162601  27.6947975
  52.4503593  22.0366459  27.2325649  53.0946426  21.5761223  28.5224495
   4.5335608  19.9803581  40.7051888   4.8495998  19.0982800  40.9008675
   5.3155689  20.4597473  40.4315491   9.1730757  35.0287590  79.8817368
   9.8672457  35.2616653  80.4982681   8.6526556  35.8273354  79.7941513
  78.7536621   9.9692888  52.6310425  78.3444519   9.3196573  53.2026672
  79.6349716  10.0807610  52.9875565  53.4759216  66.4857483  85.3292084
  52.8709412  65.8222351  85.6608505  53.5929375  67.0907059  86.0617065
   6.4830270  34.9575233  25.8888702   6.5012746  34.2924538  26.5770397
   7.3700328  35.3172073  25.8798141  50.4057617   6.0081310  67.5657959
  50.1758080   6.6082511  66.8564224  51.3223343   6.2053804  67.7587357
  14.3266439  51.2011681  26.5626698  15.2825069  51.2150116  26.6112995
  14.1297293  50.5291481  25.9101009  14.1688709   5.2217145  31.5243225
  14.3494320   5.3045902  30.5879669  14.6619663   5.9362359  31.9274940
  54.0044479  40.1317825  87.3896790  53.8477631  39.3988762  87.9851074
  53.4853897  40.8498383  87.7519073  64.3356552  17.8742771  44.9301338
  64.3001556  18.7944126  45.1915245  64.4251328  17.8992062  43.9774513
   7.2817454  50.9616051  58.8337975   8.1888428  50.7391472  59.0433655
   7.3419094  51.7910995  58.3599281   8.7788229  65.3724060  39.0879784
   9.5176287  65.5955582  39.6541939   8.6081982  64.4482803  39.2699203
  29.0269127  69.0478134   2.0128541  29.6918449  69.0856018   2.7003641
  28.2073040  68.8882675   2.4808497  22.8538113   2.1179080  54.0120430
  22.2719154   2.0706329  53.2534943  22.2724609   2.0210254  54.7662811
  61.7433739  38.3116455  56.2788467  61.6529770  38.1090660  55.3477058
  60.8434410  38.3708496  56.5995483  46.6986313  64.9398956  49.8471603
  47.5873985  64.9394913  50.2025833  46.4859123  65.8664093  49.7350998
  14.5479765  60.3120651  31.6952724  14.4750814  59.4982147  31.1967125
  14.7196894  60.9830971  31.0346165  35.5989761  30.7770729   7.2202806
  35.0470619  31.5196991   7.4654808  34.9947166  30.0365582   7.1679325
  33.2660370  41.2480888  83.6589127  32.3851738  41.6223946  83.6732941
  33.1642761  40.4137039  83.2010040  67.3361588  15.3376198  44.3575897
  66.4038696  15.2852459  44.5681229  67.7532120  14.7245693  44.9629555
  43.4326401  37.7008934   9.5549049  43.0166283  38.5501518   9.7029657
  43.9903717  37.8376579   8.7890968  50.2252617  52.7459793  29.8405685
  51.0887260  52.5605774  30.2097340  49.6101341  52.3626442  30.4657917
  18.1950970  14.8557482  52.5648041  18.5837784  14.4733143  53.3515091
  17.2593498  14.6713400  52.6460609  53.5110359  23.7736187  14.9719362
  53.9394379  23.7425632  14.1165190  53.1927986  24.6731663  15.0479116
  37.2469215  67.2154617  51.7268372  37.0476379  66.5824814  51.0370216
  37.6770592  66.6992798  52.4085770  85.1246567  28.1854610  69.2872696
  85.3410187  27.3434753  68.8866653  84.8910751  27.9683285  70.1897812
  85.6666718  34.5166168  62.5912056  85.2397079  33.6620331  62.6513863
  85.4960175  34.8070602  61.6952438  67.3094101  27.1325722  47.0957108
  67.5661163  27.7949181  46.4541245  68.1378784  26.7784863  47.4189835
  39.2602501  61.5189590   8.9665365  39.4295311  60.5787315   8.9069786
  38.8775291  61.6388359   9.8356657  51.7893944   7.4609146  59.5342712
  51.3505249   7.4679637  58.6836395  52.5486679   6.8920321  59.4073410
  49.6939011  61.3798943  43.4712982  49.2702637  61.3970146  44.3294754
  49.8424759  60.4506798  43.2960281  81.1812973   1.9542004  68.4098511
  81.8573227   1.3631246  68.7412872  80.4219742   1.7866064  68.9680252
  53.5232620   5.0350618  23.9261723  53.1988449   4.8207536  24.8008480
  53.3627701   4.2445450  23.4108486  29.8467979  62.9969254  55.1357384
  30.2608776  62.3030205  54.6226463  28.9864559  63.1122208  54.7323151
  54.0502586  48.9065628  38.9391556  54.5016174  49.7230225  39.1533928
  54.7520638  48.2992592  38.7048874  66.5112610   7.3149586  78.0734100
  65.8617859   7.2065845  77.3786621  66.0722351   7.8564758  78.7293472
  69.7869949  48.6374321  42.8605347  70.4999084  48.0281868  43.0523758
  69.1967010  48.1437454  42.2912712  10.1817865  29.9694710  88.1022568
  11.0722733  29.7290955  87.8463593  10.2913523  30.4653454  88.9136353
  38.8714752  49.9293785  32.8138771  38.1010361  50.4237366  33.0936470
  39.2408142  49.5818024  33.6256714  18.7836418  19.9938126  32.4160957
  18.8427029  19.9961128  33.3714714  19.6892319  19.9006195  32.1203690
  28.3810272  43.7804451  16.4883213  28.1082344  44.2922630  17.2498074
  28.3117409  44.3894501  15.7531033   9.8180323   7.5175657  53.5778046
  10.2025919   8.0715618  54.2570953   8.8745489   7.5724721  53.7296486
  46.5901756  33.7526817  38.7159042  47.3861656  34.0151329  39.1782379
  46.8987732  33.4437027  37.8641205  40.3524933  55.5261269  74.2806931
  40.8989754  56.3039780  74.1687088  39.4849243  55.7977715  73.9810791
  76.7903442  30.7792110  66.4536667  77.1669769  30.7676144  67.3335800
  76.0991821  31.4399586  66.4976654   2.6430383  60.3716927  84.0794983
   2.2192504  60.2107391  84.9225464   3.4000809  59.7859383  84.0762863
  41.1450500  14.3828201  13.9758673  41.7470055  14.9363718  14.4733257
  41.0073051  13.6172085  14.5336266  48.1138573  34.4835014  32.3770599
  48.3765297  34.8840256  33.2058029  48.9366379  34.2084961  31.9725437
  63.9128914  63.0784492   1.7640861  63.4616547  62.7448807   0.9886181
  64.8427658  63.0140533   1.5463408  64.5776062  27.2488117  17.1762295
  63.7475128  27.6762772  16.9653931  64.4516525  26.3375072  16.9118519
  13.6031380  30.8344669  31.8337021  14.1650124  31.5792007  31.6194572
  12.7365351  31.2186489  31.9665012  46.9804420  70.7918091  27.1343365
  46.1795273  70.7377625  26.6129494  47.0914307  69.9120255  27.4947510
   2.6715176  68.1188660  75.2728653   2.4483123  67.6159821  76.0561371
   2.0317235  67.8390427  74.6181946  11.1169310  61.3837395  63.8181534
  10.3940954  60.7940521  64.0326538  11.8963966  60.9373932  64.1489716
  10.5421162  37.4626656  62.8171768  10.4384184  38.2868347  62.3415489
  11.4608021  37.2262650  62.6892624  12.1012945  62.6875610  83.2995682
  12.1499310  61.8853455  82.7796478  12.9054613  63.1606712  83.0857544
  57.1676407  40.0420418  14.1540337  56.4502678  40.1673279  13.5328169
  57.8012505  40.7232475  13.9287863  11.8465548  67.5810089  59.8116608
  11.2299900  67.6735687  59.0853577  11.3321857  67.7919922  60.5908546
  73.4070816  12.9192657  68.3859100  73.8912048  12.0935478  68.3927307
  73.2745743  13.1268635  69.3108902  74.8857269  21.3288174  26.4388275
  74.5734177  22.0288639  25.8655682  75.0426483  21.7594643  27.2791557
  51.8182831  34.2471886  84.0800934  51.6604385  35.1882248  84.1560364
  50.9849739  33.8441238  84.3237381  49.8262367  65.4534836  73.9307556
  50.2855759  65.9720383  74.5913162  49.1810532  64.9502029  74.4274216
  61.0754547  63.8644791  63.9524078  60.9095192  63.2210808  64.6414185
  61.6468964  64.5132980  64.3631592  70.2651978  23.0692043  22.7667160
  69.3786545  22.7154217  22.8381939  70.7472382  22.6537361  23.4817352
  65.4597855   3.7660630  75.6830139  65.0866089   3.0939648  76.2533264
  65.9474945   4.3387094  76.2750015  33.7101173  11.2846212  70.5507812
  34.1298065  11.7131701  71.2967300  34.0858917  10.4043636  70.5377274
  64.6147308  65.2415237  75.5977859  65.0024261  65.9547729  75.0906448
  64.2577820  64.6457596  74.9390869  82.3729553  46.6209373  68.1061935
  81.7266693  47.1841049  67.6802826  82.4123306  46.9407043  69.0075378
   5.4414668  64.7104797  43.9369469   6.1963143  65.0322495  44.4298019
   5.2828879  63.8338127  44.2869949  40.0083733   0.9600475  88.3790283
  40.0314293   1.5844007  89.1042099  40.9065399   0.6356179  88.3136520
  34.5058060  21.9932842   2.9333446  34.1688232  21.3870659   3.5930209
  34.8644485  21.4278030   2.2493563  80.3427734  65.2495346  29.9657955
  80.7935486  64.4202499  29.8066845  79.4231491  65.0622330  29.7775211
   6.7809672  31.2857456  80.7674408   6.1658506  30.9063797  80.1397858
   7.6445665  31.0986271  80.3994522   8.9244947  31.8921719  17.8582783
   8.7392979  31.2855797  17.1413555   9.2282782  32.6896973  17.4247990
  56.6606026  25.4564915  63.8931198  57.0876427  26.1965351  63.4616051
  56.8189011  25.5994549  64.8262482  14.5309696  11.4389420  26.8306408
  14.2324476  11.2758722  27.7253609  13.8310719  11.9589014  26.4356499
  62.7232208   5.9728665   1.4815199  62.4449158   5.0877795   1.7168926
  63.2935753   5.8507228   0.7225679  72.1110764  71.5663910  47.6677322
  72.9652328  71.4966431  47.2413788  71.5224380  71.0586395  47.1092339
  51.7872734  31.2808113  87.6731873  51.8545265  31.7888088  88.4816742
  51.3875504  30.4538155  87.9424973  28.3606396  52.1695137  73.7343674
  27.6193619  52.2759247  73.1381989  27.9646149  52.1345139  74.6050949
  53.0344849  51.4333954  22.6459274  53.5670586  52.1641083  22.3318386
  52.1440887  51.6495590  22.3689709  41.0894852  17.8832283  13.1354599
  41.7348480  17.3586063  12.6616354  41.1521034  17.5794010  14.0409985
  37.7473373  70.2803116   3.7511177  37.1944695  70.7106934   4.4033022
  37.3040543  70.4406128   2.9180298  70.1381989  52.3934402  55.8776741
  69.3822861  52.8369255  55.4927750  69.7630692  51.8081169  56.5356255
  69.0389557  62.0955544  68.7350540  69.7834091  61.7430305  68.2474670
  68.4483795  61.3499756  68.8426132  73.0938873  41.0188103  10.6384325
  73.4330521  40.6500549  11.4540415  73.3571777  41.9387398  10.6637726
  45.0429420  10.3834600  77.4549789  44.6146393  10.3749628  76.5989914
  45.8349075  10.9042025  77.3213730  37.0535240  28.1673126   4.2084889
  37.7609329  28.3657513   3.5949550  37.4973755  28.0006657   5.0400271
   4.0824265  52.2351608  53.1483917   4.0654454  52.1765366  54.1036415
   3.1634467  52.3297195  52.8978577  72.3691559  23.8856602  26.4996643
  73.1562576  24.4280853  26.5493622  72.2750778  23.6848278  25.5685101
  36.0694962  63.1428680  80.9593353  36.1545906  63.7292747  81.7110825
  36.3186226  62.2826271  81.2972031  54.9775658  14.5794268  21.5033340
  55.0629539  15.5306606  21.4393425  54.9289398  14.4060202  22.4434395
  31.1284256  14.0639992  59.1231384  32.0006256  14.1571302  58.7399559
  30.6734524  13.4578333  58.5385056  73.0329971  52.5292320  80.6278152
  73.6010437  53.1704826  80.2007904  73.3591461  51.6815605  80.3256454
  41.6630745  60.3553848  10.6126947  41.2620392  59.7184753  11.2040892
  42.1054764  59.8229485   9.9516191  66.5924530   9.4150019  38.6098595
  66.3961029   9.9802074  39.3569984  65.8964233   8.7579498  38.6171417
  32.4716415  57.5956879  41.9589882  31.7036209  57.4840851  42.5192757
  33.2023239  57.6897354  42.5701256  26.2206421  26.4733181  14.9475336
  25.8816910  26.6628819  15.8224106  25.5959225  25.8488503  14.5787563
  68.5664062  63.1132469  72.7590637  69.2062378  63.2542038  73.4569016
  69.0907211  63.0639534  71.9597549  30.7144814  29.6343746  26.7556534
  31.1363487  29.5046787  27.6050301  29.8593655  30.0086517  26.9676056
  82.0883942  31.5399876  82.6656036  82.3062286  32.3380394  83.1471558
  82.5378265  31.6366539  81.8260193  44.7878761   1.5960923  43.4750595
  44.8363495   1.0391239  42.6980972  43.9923630   1.3111781  43.9247437
   7.1216950  60.6194000  71.9820938   7.9368486  61.1210251  71.9707642
   7.3941545  59.7241592  72.1834488  63.0980110  35.5651512   0.1261300
  62.8380928  34.8692474   0.7297807  62.5795937  35.4043159  -0.6622909
  11.2780504   4.2094135  62.4829674  11.9524269   4.3242993  61.8134537
  10.5345945   3.8330431  62.0119553  71.9091644  65.2920761  46.1517410
  71.5603333  64.4012756  46.1196442  72.3374329  65.3509674  47.0057602
  59.9928627  13.8289433  31.8831425  59.3650360  14.1340094  32.5381241
  60.1840057  14.6041994  31.3552475   4.9662123   8.4667969  87.3675537
   4.5291572   7.6338744  87.1901932   4.2961378   9.0035219  87.7908249
  27.1857491   9.3003798  58.8895226  26.9653397  10.2102585  59.0889511
  26.8298397   8.8010893  59.6245499  54.2172852  45.0134583  74.5420532
  53.4505234  44.4519577  74.4279022  53.8592644  45.8506050  74.8374176
  77.2568130  69.7105484  60.0824623  78.0695877  70.0330658  59.6930885
  76.8499832  69.1893387  59.3903236  56.9043694  32.5201340  17.2308655
  57.5630684  33.1645432  16.9718666  56.9692917  32.4815178  18.1850815
  25.7204742  63.0257072  20.0793858  25.6270981  63.7836800  19.5023365
  26.6087322  62.7084885  19.9162750  78.5057831  22.3951092  57.3740540
  78.4441376  22.8289433  56.5230408  78.9102478  21.5489101  57.1827736
  46.1863251  32.1631355  33.4056969  46.2629547  32.7959747  32.6916428
  46.4794006  31.3354111  33.0246391   0.0193861  63.9066772  81.3120575
   0.6932529  63.3354874  81.6806717   0.0593010  64.6999130  81.8462982
  33.6793060   4.2383189  82.1477661  33.6632805   4.4865017  81.2234421
  33.9847527   3.3311617  82.1469269  85.9449234  12.7041483  25.6041679
  85.8025436  13.1377420  24.7627678  86.8486099  12.9195929  25.8347416
  34.1288414  64.9333496  15.9506550  34.6122932  65.6774979  15.5918455
  34.5751991  64.7318268  16.7730808  45.1295090  14.3879175  80.1823425
  44.7137909  14.7385578  80.9700394  45.9032631  13.9260921  80.5052261
  74.2850266  22.3878880  71.4276352  74.2700653  23.2017841  71.9312057
  74.3550339  21.6987534  72.0882645  81.4463272  58.7784042  41.8328094
  81.2027130  59.6237793  42.2099380  82.2886581  58.9395943  41.4076881
  35.6999092  43.4397392  15.6029701  35.0016403  43.0385170  16.1203403
  35.3420029  44.2853165  15.3325405   6.1560583  58.3346519  45.1088829
   6.3100410  58.3728409  46.0528412   5.5751410  59.0742950  44.9308472
  59.3877144   6.4370146  86.2882690  58.8423462   6.3640661  87.0715256
  59.3550835   7.3658667  86.0593567  56.4690666  61.3772469  37.4155998
  57.2836456  61.8002129  37.1439514  56.2404289  60.8050842  36.6830750
  79.9622574  65.8134918  14.3529739  79.3828735  65.8847046  13.5943718
  80.7704773  66.2467728  14.0785818  37.2573776  29.2039795  46.6174850
  37.1665115  28.2588673  46.7388802  38.1025009  29.3091774  46.1805267
  18.2618752  59.4962959  11.1093016  17.3319054  59.6016159  11.3100386
  18.4167652  60.0889854  10.3738031  35.9720955  24.1619301   2.9855604
  36.3555260  24.0573254   2.1147726  35.3605881  23.4301014   3.0674903
  31.9714928  18.9744854  15.9115868  31.8605919  18.0247536  15.9556818
  31.6993656  19.2064323  15.0236797   7.2195578  48.0879478  69.7687454
   7.1116576  48.7596779  70.4420700   6.3622622  48.0320206  69.3466721
  74.5823746  54.2297173  27.0068722  74.2598801  54.6875572  26.2305908
  74.1954498  54.7040977  27.7427273  57.0503616  45.5289612  74.4377365
  56.9712524  46.0654755  75.2264862  56.1741638  45.1670341  74.3053818
  69.2885513  31.2121067  81.5576401  68.4651108  30.8180161  81.2697754
  69.1105194  32.1524277  81.5759964  64.7441406  48.2418861   6.1324730
  65.6868134  48.3115540   5.9816394  64.3932800  47.9096222   5.3061972
  23.2925358  30.0628109  76.2559128  23.3759460  29.5196285  77.0396347
  22.7008419  29.5716343  75.6859283  36.8336792  62.3648796  44.1311722
  36.2810326  62.8227234  43.4977760  37.0964622  63.0427322  44.7538223
   8.9552336  27.8186359  69.6553192   8.9789143  26.9574375  70.0724564
   8.1562262  28.2252998  69.9906464   5.9189162  67.8141556  71.7556381
   4.9657965  67.8345566  71.6697388   6.1221800  68.5426941  72.3422775
  75.6708145  54.0065155  83.0499725  74.7578049  54.1308060  83.3092041
  76.0746002  54.8651772  83.1760330  80.3133469  46.8643074  44.5681992
  79.7319794  46.4035721  45.1731491  81.0506821  47.1439171  45.1107750
  55.1546974   1.9401695  37.5604248  55.1134262   0.9857982  37.6212845
  54.5982170   2.1567490  36.8123245  63.0270882  63.4041519  24.7202988
  62.3626747  63.4659004  25.4065723  63.4813805  62.5810356  24.9001141
  32.1042709   0.4477814  66.4991684  32.4627609   0.2128892  65.6432800
  31.2069530   0.7254923  66.3149719  45.3634338  64.3552170  75.7019272
  45.3092003  65.0393219  76.3692245  46.2985573  64.2793503  75.5121307
   8.8765240  68.9056091  36.7376862   8.7945795  69.2657089  37.6207733
   8.4269075  69.5388489  36.1781387  74.8828125  23.6491795  30.4732933
  75.5645142  24.1614456  30.9081402  74.8587265  23.9920368  29.5799294
  31.7331467  13.7466707  37.3995628  31.7685146  14.6863527  37.5783844
  31.3015785  13.6810474  36.5476990  56.0117149   3.0709574  48.3719330
  55.9820709   2.2529359  47.8757553  56.2135620   3.7404120  47.7182388
  68.9265976   3.9856820  50.3578835  68.0033188   3.7357690  50.3214684
  69.3978119   3.2043498  50.0685539  74.8431091  60.6267357  64.8868713
  74.4116135  61.4807472  64.8602600  74.5078659  60.1649590  64.1183624
  55.9689903  69.2304230  84.8280869  55.3267136  69.1313934  85.5308762
  55.5552483  68.8241577  84.0665131  67.2532349  12.4036598  58.3639946
  67.3282013  13.2976389  58.0302086  67.8177032  12.3884573  59.1368980
  23.4703140  34.0589142  22.2272930  22.8767090  33.7793655  22.9242268
  24.2288074  34.4174042  22.6881695  39.2995186  59.2243271  58.4315948
  39.0641327  59.1676750  59.3576698  40.2302170  59.0020180  58.4069939
  23.2670269  47.9308128  21.3177891  23.9645519  47.7287827  21.9413853
  22.6272793  47.2290955  21.4383945  43.0628128  22.0416813  76.4655685
  43.7621269  21.8050976  75.8562927  42.3011208  21.5499573  76.1585388
  30.0651321  49.1589165  12.5887575  29.8419914  49.1772346  11.6581097
  31.0165081  49.2623749  12.6090288  61.4152679  57.0637093  38.6830864
  61.6595993  57.7022476  38.0131607  60.6707726  56.5944862  38.3065338
  19.3632545   7.3000121  44.8544807  19.9332943   7.0607157  44.1237144
  18.4764996   7.2160373  44.5039864  70.0086441  43.9827881  88.3494720
  70.4464722  44.6878471  88.8263702  69.0754318  44.1399879  88.4930954
  80.4391022  62.4024353  48.4704247  79.7144852  62.9810677  48.2330704
  80.1371994  61.5277138  48.2255707  39.3948898  20.2360134  26.0756779
  39.7911453  19.7106495  25.3805485  38.5005608  20.3963451  25.7745037
  56.9310188  45.2071342  57.0657387  57.8715706  45.1365242  57.2288589
  56.6391983  45.9094734  57.6469383  22.9922886  54.8169937  64.9835205
  23.2636051  55.4381676  64.3076782  23.6770306  54.1481438  64.9828873
  80.2827072  22.1987629  32.6752396  79.3725281  21.9949551  32.4601555
  80.4155960  23.0850468  32.3389778  37.7495193  52.1504745  66.8824005
  36.9442482  52.3476677  66.4039841  37.4740257  51.5561790  67.5803604
  44.3471642  41.4494781   4.9871721  44.3580322  42.4050560   4.9325533
  43.9198303  41.1681786   4.1781659  33.5753365  61.3104134  37.1002235
  33.0909386  61.5105629  36.2992668  34.4323654  61.7161980  36.9695473
  26.7794571  57.4378395  81.8705215  26.6773338  56.5518608  81.5228882
  26.1179829  57.9537392  81.4095154  28.9347591  63.5835342  84.0754852
  28.6262531  62.6778259  84.0481262  28.3650589  64.0114059  84.7146988
  58.9924240   3.9718142   7.9007792  59.7434731   4.0263371   7.3098588
  59.2993736   4.3694820   8.7155657   8.5226946  24.5114937  19.8988914
   8.1300383  23.9037285  20.5255299   8.3265276  25.3793545  20.2518330
  36.5600777   6.2123394  76.5625610  37.3785629   5.7200670  76.4994354
  36.1795769   5.9384003  77.3970642  69.1248627  11.3006802  60.2969513
  68.5754089  10.7604017  60.8647804  69.6867142  10.6742020  59.8407898
  71.6546631  46.1290741   0.2147088  72.1758347  46.4667168   0.9431363
  72.2838669  45.6587067  -0.3321814   2.4277329  37.1176071  25.5553761
   1.7802281  37.0100060  26.2520771   1.9524362  37.5617027  24.8531628
  18.5041161  18.1381283  60.1734200  18.1127911  17.3050079  59.9107323
  18.1378212  18.7778759  59.5628586  85.0372467  14.4405117  68.0049286
  84.6309128  14.9953632  67.3391495  84.6593246  14.7418985  68.8311081
  29.4615421   5.0793848  74.8695374  28.8627472   5.7697673  75.1542282
  29.1245365   4.2845430  75.2829208  70.6559067  42.5416870  21.3403187
  70.3676147  43.4029160  21.0379868  69.8701477  41.9968529  21.2958641
  48.7381210  39.8454819  19.3800259  49.0685844  38.9868774  19.1157875
  48.7760239  40.3726845  18.5819950  65.7005768  19.9433098  27.3552284
  65.2721405  20.6992073  27.7568417  65.2975693  19.1859951  27.7798328
  65.1312332  12.0332870   8.5051546  65.0943909  12.2034569   7.5639234
  64.2148819  11.9547033   8.7703943  54.7468872  67.6096649  41.5407257
  55.0732231  67.2364502  42.3595352  55.1728096  67.0940170  40.8559456
  60.2488899  18.1885986  16.5314484  59.4781342  18.7136765  16.3159065
  60.8948822  18.4273338  15.8666716  29.2439899  11.0241756  55.0861244
  29.2903652  10.0968637  55.3188744  30.1514549  11.2725697  54.9099426
  33.5186844   4.0029221  77.1147842  33.1517372   4.6871409  76.5549393
  33.7071037   3.2796252  76.5168152  80.2516022   4.4212031   0.6266128
  81.0302811   3.8725483   0.7208017  80.5952911   5.2945910   0.4387253
  53.1425705  62.9161148  76.8080673  53.1459732  62.7956009  77.7576447
  53.9626656  62.5200539  76.5134277  79.4961243  62.8772507  15.6213207
  79.0619278  62.5095215  16.3910465  80.2709274  63.3174286  15.9708290
  31.4329720  56.9283714  56.0116005  32.2974701  56.6530991  56.3167191
  30.8205738  56.5042648  56.6127129  59.5253258   2.6254478  36.4193230
  58.8121986   3.0966542  36.8501892  59.8291435   1.9985006  37.0757256
  58.7193909  45.5393143  65.7339554  57.9608269  45.7969131  66.2578354
  59.2466164  45.0011101  66.3243713  81.3234329  56.6903000  25.3256454
  80.4128113  56.8496017  25.5738888  81.2668076  56.2445107  24.4804840
  81.8185196   4.1645579  46.2503510  81.3259811   4.9107642  45.9085655
  82.2664185   4.5072203  47.0237846  59.0636520  25.0747948  25.7682285
  58.9465675  24.4833031  25.0248165  58.1775055  25.3634605  25.9865074
  40.6506577   2.6168423  57.7747345  39.8383102   2.4758823  58.2609978
  40.4154320   3.2458200  57.0926170  37.9962463  58.8495674  70.1981735
  38.0566444  59.6539879  70.7134247  38.1909065  58.1502800  70.8221436
  75.4721603  12.7179651   7.7860122  74.5191422  12.6299305   7.7704258
  75.6726532  13.2837458   7.0404077  40.0600815  66.6392212  42.2799950
  40.1937866  65.8182983  41.8062477  39.5449867  66.3915024  43.0478096
  81.9859390  63.6149483  17.0745735  81.6913681  64.3300781  17.6385269
  82.9412079  63.6725960  17.0939159  50.1845436  68.8574448  11.7522335
  49.6713867  69.0410233  10.9653387  50.5447388  69.7069473  12.0068703
  50.7050819  15.8676643  88.4972382  49.8516273  16.2848186  88.3796539
  50.7531738  15.2186193  87.7953415   0.5887920  44.8931313  81.4502487
   1.5413821  44.9082718  81.3576508   0.4023757  44.0539017  81.8711700
  19.9405785  45.6699219   4.9258866  19.5650940  44.8058167   4.7568617
  20.8752537  45.5048409   5.0498281   8.0932980  67.9586334   0.2107666
   7.3100586  68.3811646   0.5632392   7.8819532  67.0250549   0.2098240
  22.2689724  56.5693893  23.3756828  22.2269077  57.1253128  24.1537647
  21.9458733  57.1251564  22.6664848  57.3833351   1.1742221  53.7810211
  56.8064728   1.2631798  53.0223732  56.8619652   0.6925148  54.4231758
  20.5488625   4.2086258  43.8687515  19.7765217   3.7957499  43.4824142
  21.0504971   4.5275555  43.1184998  82.4508667  57.5713844  64.5865860
  82.3752747  57.2215233  65.4743500  83.3730240  57.4515915  64.3596497
  12.3422718  40.3001480  21.0097256  11.9457531  41.1710854  20.9878960
  12.4639874  40.0692444  20.0888023  31.4164047  10.3955202  78.4105835
  31.0747433  10.5614767  79.2891922  32.2367325  10.8875370  78.3757095
  53.0200882  12.2021570  66.3849640  52.7666321  13.1083298  66.2093430
  52.4677048  11.6816254  65.8017426  20.0026989   6.3032303  53.9001350
  19.7179356   7.2070255  53.7648773  19.1925869   5.7934122  53.8940735
   6.4966340  25.1774273  30.3591728   6.7320666  25.2314396  31.2853928
   5.5620461  25.3830853  30.3372154  77.1924896  41.3062210  69.6225204
  76.4142685  41.6914978  69.2198257  77.9262009  41.7618027  69.2097931
  55.7946014  12.0044918  29.2240143  56.5924149  11.4930172  29.3586388
  55.0974922  11.3508587  29.1689281  78.0627594  34.6766357  17.0166512
  78.5866776  33.8987122  17.2079086  77.6068497  34.8659210  17.8367443
  40.6832123  55.6713753  54.9514427  41.2357483  56.3442421  54.5537186
  41.2008972  54.8686676  54.8890533  25.0984058  57.9038506  30.9128342
  24.5062199  57.2633286  30.5187778  24.8640556  57.9074860  31.8408966
  15.4054098  27.7013531   3.3268626  15.7108583  27.2264404   4.0997744
  16.1687088  28.1996326   3.0347593  24.4164715  48.1095123   9.6367235
  24.8497601  47.3518982  10.0298061  24.5547562  48.0029030   8.6955843
  50.3447456  50.5942154   4.7490764  49.6446686  51.1018562   5.1594772
  51.0756569  51.2081604   4.6778517  55.7366180  21.6441460  16.8349304
  56.1618004  22.4414654  17.1507397  54.9600410  21.5520954  17.3869152
  67.9990082  36.9379005  58.5129776  67.9056168  36.1752281  59.0838013
  67.1636124  37.3987198  58.5903625  48.8133049  18.5955830  65.5423813
  48.6992645  18.8338242  64.6223450  48.0307350  18.0879345  65.7571106
  24.4632301  62.9201584  86.7031326  24.2561092  62.3954315  87.4764328
  23.7509251  63.5572090  86.6481476   2.8042979  19.0113335  34.2433701
   2.6885803  18.1653862  34.6760521   3.4451385  19.4717941  34.7851562
  68.6139221  68.9255600  77.8293533  69.2137604  68.6409302  78.5188599
  67.8749390  68.3201828  77.8898392  49.1411095  21.4074097   2.1453009
  49.3994255  22.2626171   1.8016089  48.6350327  21.6085491   2.9324846
  81.7053833   7.2149510  38.9169426  81.4399872   6.3856745  39.3145561
  81.5832291   7.0799341  37.9772186  12.3315935  57.6108818  49.5349846
  11.5928526  57.1839561  49.9688377  11.9280376  58.2553596  48.9535904
  25.4111671  71.1870499  67.3559723  25.0434170  71.2982559  68.2326889
  26.0427494  70.4739456  67.4498520  24.4800491  11.3288651  87.0421524
  24.9041004  11.8062143  87.7552795  25.1763763  11.1885338  86.4005432
  78.9371414  43.4374924   9.6754904  79.0737076  42.5697250  10.0557003
  77.9865265  43.5177803   9.5972090  10.4410591  63.5053062  50.7182922
  10.2627707  62.5648575  50.7187309   9.8842545  63.8543167  50.0223083
  17.3682194  36.2555885  30.0575562  17.7678833  36.3028297  29.1890697
  18.1102982  36.2167931  30.6609173  17.6968155  51.5503922  67.7279129
  17.7744961  50.7060699  67.2837067  18.2376595  52.1450882  67.2082443
  13.8105049   9.6539078  85.7539291  13.8812590  10.1394081  84.9320297
  12.8701639   9.6138124  85.9282303  53.9182625  54.7147522   2.9036429
  53.8096085  55.6650848   2.8676715  54.7000351  54.5430222   2.3786957
  43.7045174  36.6310539  23.6143169  44.5101013  36.9721184  24.0028248
  43.9050102  36.5471764  22.6821156  14.9606981   6.7046223  79.0672684
  15.8171482   7.0012918  79.3750153  14.7995520   5.8947849  79.5514450
  48.8279419  65.0908508  40.7697029  48.8502655  64.1345749  40.8051682
  48.6420517  65.2922440  39.8525772  60.6432037  55.4743919  22.0810127
  60.2927780  55.5910149  22.9640942  59.9286919  55.7411766  21.5026283
  75.0117416  55.8888283  67.2226715  74.8249588  56.8257217  67.2824402
  75.5870895  55.7113609  67.9667892  79.5008850  54.9954872   7.6616230
  80.1995239  54.6041756   7.1372094  79.3817444  54.3890686   8.3925791
  70.7155609  12.1590729  44.7367477  71.5666428  12.2350073  44.3053284
  70.7281189  12.8371086  45.4122772  30.8810005  23.0334110  27.6281471
  29.9443607  22.9882069  27.4360695  31.1312256  23.9264698  27.3913727
  84.5310593  48.6567993  18.9426575  85.0010605  49.3832397  18.5332413
  84.7479477  47.8966560  18.4028683  39.6661682  14.0575705  60.9548607
  39.0284767  14.5620756  61.4598923  39.2836876  13.9959021  60.0795670
  82.1286240  26.4470310  17.4315662  82.8718414  25.8866940  17.2082443
  81.4080048  25.8372345  17.5899544   9.2382641  39.5952263  41.7685623
   8.5491858  39.2514458  41.2000389   9.9458771  39.8339615  41.1697960
  56.9045677  64.9718018  14.4000597  56.7433891  64.8876648  15.3398333
  56.0372505  65.1111679  14.0198336  57.7825623  67.1593628  44.2883263
  56.8945541  66.9043884  44.0379982  57.7481995  68.1136932  44.3540039
  58.0538940  53.9012375  16.9056625  58.6527405  54.1162987  17.6207600
  57.2643547  53.5816383  17.3423672  38.6618271  24.8188877  38.0739441
  39.2218018  24.1664486  38.4946365  38.0715218  25.1113911  38.7683640
   6.7920361  32.7040787   6.7339630   7.5697513  32.4903450   7.2494321
   6.9292397  32.2590714   5.8976774   3.0648839  57.4879951  15.4869909
   2.1834300  57.7443199  15.2157564   3.4763460  57.1616859  14.6867065
   9.1742887  39.1862030  70.9013672   9.7820663  38.5527039  71.2828293
   9.6316147  39.5228653  70.1308212  65.0792389  52.0802231  25.1289158
  64.1393890  51.9620476  24.9912949  65.1862946  52.0613518  26.0799236
  77.7932892  37.1661148  64.5869141  77.7709427  36.9900131  63.6463165
  78.1084824  38.0674095  64.6544189   7.1072078   8.9524565  82.4053192
   7.5461879   9.0829897  83.2458496   7.1055827   8.0033913  82.2807999
  20.4679012  30.8675690   4.8393555  21.1923008  31.4282570   5.1170349
  20.6079712  30.0452251   5.3087850  51.9411507  69.6152573   0.1077106
  52.4397125  69.3563766   0.8827251  52.2022209  70.5220032  -0.0531655
  13.6276226  70.0730515  35.5955315  13.2862749  70.9599609  35.4810486
  13.4527941  69.8657684  36.5135155   8.8535023  23.0510464  14.1224966
   8.4194298  23.2626820  14.9489489   8.7349167  22.1062622  14.0247478
  18.6471558   5.4249282  16.5027142  19.0249634   5.3210478  15.6293869
  18.5409279   4.5301523  16.8257046   4.9523778  57.2462959  54.4641914
   4.6294713  57.5317154  55.3188820   5.4466166  57.9958649  54.1323662
  24.0011749  36.4119186  25.6060715  24.2913895  37.3112755  25.4538803
  23.4159145  36.4736099  26.3609848  22.0381660  50.9521217  33.8274765
  22.6197186  50.4659500  34.4119949  21.8058014  50.3237686  33.1438065
  28.0847569  60.0080757  45.0693016  27.6025906  59.7719154  45.8617516
  28.7798023  60.5901833  45.3763733  36.1611023  12.8662176  29.0362892
  36.7678223  12.9624586  29.7703609  35.8246231  11.9739380  29.1190643
  63.3215446  19.2978878  78.5960541  62.6867828  19.5185909  77.9144440
  62.8637276  19.4781551  79.4171219   5.5254726  61.9233665  44.3370438
   5.8690214  61.8263741  43.4489021   4.8804302  61.2213135  44.4223366
  26.1531677  25.4560928  29.6677475  25.8611679  25.5880947  30.5697136
  25.7141514  24.6524601  29.3890533  28.5004559  70.7830734  70.4309311
  29.3182526  70.7002640  69.9404373  28.7774334  70.9393311  71.3337555
  35.1536789  39.1014252  17.3849869  34.9266663  39.0731773  16.4555264
  36.0488358  39.4399757  17.4027214  63.9660416  43.4955788  75.5948334
  64.1160889  43.0969887  76.4520645  63.0164452  43.4636307  75.4787445
  26.2065678  17.0753117  75.9553223  26.3903027  16.2433052  75.5191574
  25.4092350  17.3958168  75.5336914  75.6233521  47.4879036  89.0413971
  75.6447220  47.9433746  88.1997833  75.3475647  46.5972557  88.8247986
  66.7275238  22.9168644  70.9484100  66.7447891  22.0953751  71.4394150
  67.2472229  23.5226612  71.4767609  46.6407394  66.3171158  70.4721527
  47.5032158  66.0347214  70.7764893  46.7031517  66.2906036  69.5173645
  75.1601944  30.6794415  74.7372513  76.0265045  30.9595032  75.0327301
  74.5555573  31.0574245  75.3758240  54.6430550  50.6553078  12.7111244
  54.9160309  49.7841873  12.9989834  54.0671005  50.4912491  11.9644012
  80.9232788  23.5640469  86.0689087  81.5320816  22.8500195  85.8798370
  80.4165192  23.2542744  86.8195496  52.0071487  69.9313583  19.1586761
  52.3392639  70.3698807  19.9420204  52.4316940  70.3862915  18.4313335
  47.2420807  42.2744827  67.8934555  47.8867455  42.8726921  68.2713242
  46.4047775  42.5653076  68.2548065  28.7850170  27.2946301  26.4992065
  27.8284149  27.2856483  26.5318012  29.0045033  28.1561813  26.1445408
   0.1536456  20.8160572  79.8811951  -0.4043173  20.8489170  79.1041336
   0.3388508  21.7334404  80.0820389  59.5335159  63.8128090  19.7994614
  59.3108482  64.6449051  19.3820019  60.4780159  63.7255249  19.6708698
  41.5888138   6.4974718  32.2826538  41.7943306   5.7397103  31.7351189
  40.6896286   6.7261944  32.0473213  77.2124100  26.4008904  49.9648781
  77.3378525  26.8724957  49.1414185  78.0989761  26.2562084  50.2954865
   3.4326730  33.3179359   2.2537298   3.8359385  33.6649857   3.0494471
   4.1640024  33.1953125   1.6484593  86.5268707  59.3049126  47.7639084
  86.0299759  58.4960403  47.8865929  85.8821259  59.9358749  47.4438667
  47.3509750  21.2856407   4.5428772  46.5460358  20.9074364   4.8968067
  47.9689674  21.2601700   5.2734017  68.5002823  66.5764542  59.5006676
  68.2315063  67.4705582  59.7117729  69.0734711  66.6719360  58.7400284
   0.7813734  41.2589989  86.0964966   1.4206395  40.5545387  85.9901733
   0.0198496  40.8338585  86.4909210  61.8432388  30.5190315  74.6675034
  60.8947525  30.6464691  74.6866226  62.0452309  30.3618050  73.7451630
   1.7420788  70.8182907  24.4912682   1.2737108  70.5406113  25.2785130
   2.2155836  71.6057434  24.7595081  27.7716007   3.3031070  37.4859238
  27.0351067   2.8862307  37.9331665  27.3953323   4.0856724  37.0831299
  50.0208092  42.0133095  26.4246311  49.0769730  42.0651932  26.2739277
  50.1586342  41.1354828  26.7805157  50.0486069  63.4112816  27.5444069
  49.6977196  63.9714661  26.8520889  50.4083214  64.0221863  28.1875515
  58.3107986   0.1075181  45.6216888  57.6137047  -0.1903207  46.2061386
  58.2309036   1.0613767  45.6202202  84.4884033  69.9051132  24.4048901
  84.4251785  69.3660355  25.1933231  85.1332169  69.4557114  23.8585472
  49.4034424  40.2989388  77.2512360  49.1544571  40.6585083  76.3997955
  49.5133400  39.3614235  77.0924454  70.1015167   9.9738379  65.0382080
  70.2684174  10.6908998  65.6499252  69.7516251  10.4020681  64.2569122
  46.5162354  44.7399902  78.4506226  46.7614746  44.2206039  77.6848984
  45.5969543  44.5215797  78.6037521  70.6125793  17.9131813  81.0005493
  70.1905441  17.3679218  81.6644821  71.5345688  17.6578369  81.0316086
  79.6691742  36.6591110   6.9090619  79.8626556  37.4427147   7.4236093
  79.4407349  36.9926682   6.0414300   6.0456848  12.1676884  20.7529774
   5.7093987  12.7920723  21.3958530   6.8726525  12.5492249  20.4583817
  53.8329735  67.3541489  69.0376816  54.7132683  67.7027893  68.8970871
  53.9766388  66.4718933  69.3800659  23.5885487  15.2667065  40.3610573
  23.9109745  16.1069698  40.6869850  23.9404736  14.6211061  40.9739037
  62.7568779  25.0485592   2.0757933  63.3500671  24.3202610   2.2600257
  63.1673012  25.8040600   2.4965110  70.5301361  30.1342621   1.8660480
  69.9276581  30.2645035   1.1337324  70.3791504  29.2303982   2.1425743
   0.7594475   9.0199165  65.9681778  -0.0885328   9.4128885  65.7614594
   0.6526781   8.6717968  66.8534164   9.9943981  34.6079865  34.0656128
   9.2285461  34.8885803  33.5646400  10.0065413  33.6555328  33.9712143
  75.5216980  56.5366974  61.8248329  76.2589188  56.4369278  61.2225227
  74.8730927  57.0362396  61.3288383  74.1416855  27.7451878  36.8289452
  73.6855927  27.8575859  37.6629601  75.0385590  27.5187321  37.0750465
  22.9322014  37.2273254  10.4092035  23.8253975  37.0404701  10.1202078
  22.6991959  38.0386086   9.9578009  36.1666946  25.4446049   9.9025822
  36.8580551  25.5720501  10.5522070  35.9900513  24.5040493   9.9221821
   1.6872488  37.2098999  45.6037483   2.0230772  36.4670715  46.1054039
   1.5306966  37.8901062  46.2587585  19.5436726  29.1176682  79.0888824
  19.6273499  29.8016434  78.4244995  19.3023891  28.3333340  78.5961075
  40.8009796  48.8814507  42.1465988  40.3150673  49.7051315  42.1875458
  40.8884125  48.7012253  41.2105904  19.3536034  67.9857864  53.3252563
  19.4714584  67.4004822  52.5770798  19.8100891  67.5496826  54.0447502
   9.7873173  56.5157051   9.8533278   8.9030209  56.1497002   9.8362293
   9.6540012  57.4608154   9.9256268   6.3948884  45.8565254  19.9638500
   5.8128657  45.3680344  19.3817368   6.6349988  46.6362724  19.4632778
  20.5373344  66.3350906  30.2951660  20.9566803  66.7575684  29.5455685
  20.1960850  67.0601196  30.8187313  83.2579803   2.8709402  64.8344421
  83.2597580   3.6459486  65.3962173  82.7329330   3.1261764  64.0758896
  22.1083679  66.9440842  32.6775589  22.6659412  66.3471069  32.1785965
  22.6398563  67.7325211  32.7876434  83.1982651  53.8180008  32.4070396
  82.5121765  53.1635895  32.2756348  83.0092010  54.4966583  31.7590351
  66.2014236  13.8015976  81.5209427  66.0176392  13.5901222  82.4362183
  65.4048004  14.2315397  81.2098465  48.4653282  46.8185425  25.1355209
  47.5141869  46.7575874  25.0469341  48.7719841  45.9156189  25.0522995
  66.7356415  11.2963572  15.6736784  67.0665283  10.8221760  16.4365005
  67.4841690  11.3456936  15.0791168  83.9722748  43.3163071  46.5300674
  83.4896164  42.5407753  46.2440262  83.3786316  44.0462799  46.3541183
  24.7173061  71.3183289  84.7176437  24.1928959  70.5252151  84.6072464
  24.3277416  71.9492340  84.1123123  43.9227638  60.4907188  50.0513725
  44.4759254  61.2535744  50.2195663  43.2647705  60.8041229  49.4308434
  10.6492462  53.9420280  12.1674843  10.6846619  54.2930222  13.0573053
  10.9542513  54.6610222  11.6140862  64.4277573  38.7491531  52.0609703
  65.1234589  39.1757240  51.5606995  64.8244324  38.5627594  52.9119377
  79.1487198  66.6040039  68.6349640  79.0671463  67.5539780  68.7193756
  79.5585785  66.4738541  67.7798004  15.6597366  62.7543602  30.9112453
  15.3388577  63.2904243  30.1860542  16.2145939  63.3461533  31.4193287
  54.4436836   0.9081371  18.5810566  54.4415894   1.8609037  18.4890594
  53.9604797   0.7446547  19.3910065  47.2188988  29.4693489  25.7369709
  48.0796661  29.7478561  26.0496216  47.0572701  30.0120640  24.9652405
  65.8845139   1.0094781  38.8045197  65.9609146   1.9427644  38.6060982
  64.9464493   0.8282017  38.7460861   0.8523385  10.1896429  44.4409943
   0.3740234  11.0108461  44.5553246   1.6695372  10.4459610  44.0135384
  66.2622070  40.8380661  52.3302956  66.8777847  40.1605148  52.0506134
  66.1610947  40.6960602  53.2714844   7.0347786   5.8133845  37.8088417
   6.9173107   6.3587551  38.5866585   7.8860526   6.0758758  37.4586067
  75.8414078  16.7851410   8.8957424  75.7167053  17.2599640   9.7174635
  76.7248459  17.0223122   8.6137638  74.0306702  70.7844238  58.3782845
  74.2103577  69.9293289  58.7691269  74.2476578  70.6749573  57.4524536
  81.2214432  69.3624802  16.8868713  80.8371811  68.8936081  17.6276398
  81.3247528  70.2611694  17.1997967  59.7042236  35.1725883  25.5229778
  59.8252678  34.3404579  25.9802952  58.9818497  35.5972824  25.9856243
  80.0969009  51.3690796  10.0842905  79.2208328  51.4925079   9.7188997
  79.9449387  50.9724045  10.9420710  50.5804596  57.0134811  54.5649376
  51.0443802  56.2446480  54.8964615  50.2581100  56.7460327  53.7042465
  36.8057137   7.8558640  51.3441124  35.8634300   7.9325662  51.4939308
  36.9736366   8.4135361  50.5844841  49.4842072  12.4667912  53.4812851
  48.6712036  12.8541880  53.1569633  49.6661034  11.7489634  52.8747635
  10.7162504  67.7589798  83.5493164  11.5343742  67.2621689  83.5583649
  10.3448086  67.5929947  82.6828842  68.0292816  19.4548359  85.5763168
  68.5805588  19.5748558  84.8030624  67.2127686  19.9053993  85.3606186
   5.3188300   6.1348057  57.6824837   6.2467084   6.1790934  57.4515877
   4.8947735   5.7767630  56.9026031  73.1657639  24.3370495  23.8578529
  73.9923325  24.0896244  23.4433689  73.0712967  25.2699871  23.6656685
  48.7133331  21.7726746   8.7026606  48.7806015  20.9415226   9.1726513
  47.8680573  21.7274055   8.2557888  79.3299103  35.9326897   3.8405399
  80.2319412  35.6280327   3.9393399  79.3506699  36.8427010   4.1366453
  38.1697693  14.0045357  86.8257828  38.8719292  14.1272106  86.1869202
  38.2313614  13.0824785  87.0752792  58.8815918  62.1318817  68.6102524
  59.4373436  61.3991089  68.3448944  58.0595551  61.7231636  68.8812485
  77.8714447  29.6539497   5.1718035  76.9969788  29.9284325   5.4478512
  78.1206589  30.2884579   4.4998507  75.0591888  46.4739151  10.5302496
  74.7114944  45.5821114  10.5247717  75.2312164  46.6695786   9.6091881
  59.1840439  41.7062302  18.8985443  59.4495583  42.3407326  18.2328568
  58.4821815  41.2041206  18.4844112  14.5025578   7.4281907  18.5137577
  14.1579762   8.2877111  18.7560768  14.6884708   7.0003505  19.3495922
  72.2707977  49.1755371  68.8600464  72.7882004  49.8068161  69.3600616
  71.5813370  49.6999969  68.4528351  69.2273788  27.9474697  35.5998993
  70.1600723  27.7741337  35.4723511  69.2020340  28.7478695  36.1242561
  86.0269089  52.3604317  69.4345932  86.6175461  51.6072311  69.4425049
  86.5562897  53.0834770  69.7710266   6.2698007  64.1984406  31.9762897
   7.2143116  64.1875687  32.1312523   6.1360259  64.9209976  31.3628960
  36.7972069  51.1709938  69.3462296  36.9370346  50.4619942  69.9739227
  36.2795792  51.8173409  69.8263702  71.8320007  60.4847679   7.8041754
  72.2998962  60.5604935   8.6357832  72.3482208  61.0073509   7.1904569
   1.8556851  49.2784615  54.9505196   1.2663672  48.6565704  55.3773537
   1.4166451  49.4994087  54.1291428  60.1217041  35.4566345  87.1929398
  59.8243179  36.3525810  87.0345993  61.0480347  35.4656334  86.9519882
  42.6744766   1.6071352  30.5051556  42.2162704   2.4465535  30.5458641
  43.1455650   1.6315576  29.6722622  24.5377007  60.2263298  23.2634315
  25.3856201  59.9776611  22.8954258  24.0519047  60.5884323  22.5224094
  45.1192207  55.4196434   3.9714160  44.4015541  55.7382927   4.5188203
  44.7159653  55.2567940   3.1187162  85.6129303  32.2307777  36.4244881
  85.1119766  31.6364155  36.9830704  84.9563446  32.8182640  36.0503349
  75.8528214  19.1250954  56.2134857  76.5916290  19.2458115  55.6169739
  76.2017975  18.5818176  56.9200974  48.3899765  67.4834061  20.4569798
  49.0271835  67.7749329  19.8048992  48.6662140  67.9088669  21.2687111
  41.8035164  30.3184280  80.4400406  41.7598915  31.0966091  79.8843765
  41.3793182  29.6321964  79.9248962  16.4608078   2.8331339  64.3683243
  16.7743626   3.6449525  63.9697418  16.0880566   3.1062653  65.2065887
   3.2229028   8.6079788  37.1694221   3.8683186   8.5003395  36.4707947
   2.9243267   9.5132351  37.0822716  66.1402359  45.7265091  28.2906609
  65.4248581  45.6826935  28.9251270  65.7224731  45.5559654  27.4464951
  81.4346542  16.7809067  40.7308235  82.0503769  16.3404064  41.3165512
  80.5885468  16.3780632  40.9258881  85.8559952  62.2399712  79.1109390
  86.2964706  62.1803856  79.9586792  86.5675201  62.3317261  78.4772568
  67.2429352  37.1311569  78.3112335  66.6730957  36.6401749  78.9032135
  67.5638504  36.4770889  77.6903915  51.8043518  52.4848480  57.6397400
  52.4983444  51.8423843  57.4919205  52.2403564  53.2095146  58.0880585
  22.4461441   8.6026402  59.7572441  22.4825783   8.5984297  58.8007469
  22.5762939   7.6875153  60.0059204  32.0746727  11.3220444  54.7242355
  32.2112846  11.1467142  53.7932014  32.4409065  12.1959829  54.8596382
  56.6514473  -0.2845626  18.1404953  55.8776779   0.1619923  18.4841595
  57.3630295   0.3448357  18.2577000   5.8855939  24.4406891  64.0344315
   5.8674707  24.3585472  64.9879303   6.7963448  24.2672348  63.7963562
  11.3705101  39.5214424  40.2727280  11.6419525  38.6084824  40.1775627
  11.5845728  39.9239388  39.4310608   5.6973166  49.2621613  46.8880844
   4.7923703  48.9505615  46.9025764   5.7720032  49.8171196  47.6644058
  13.6437292  51.5506020  78.9515381  14.0206337  51.3891869  79.8164825
  14.2972956  52.0859871  78.5016022  70.8665771   7.2363439  12.2810879
  71.4291153   7.5457010  12.9910698  70.2876587   7.9755211  12.0947933
  65.6766281  39.2463608  46.1183777  64.7383423  39.4159050  46.2026291
  65.7283096  38.3718376  45.7326775  69.2357864  67.6557007  54.4935036
  68.5711594  68.2969971  54.2420273  69.3071136  67.7448044  55.4438744
  34.4095421  64.5808792  25.6314564  34.2951546  65.3938065  25.1392097
  33.8276901  63.9554634  25.1995621  62.3281670  58.4848366  30.8568268
  62.0281410  57.8240738  31.4810162  63.1695824  58.1534081  30.5431232
  71.6926880  61.3244247  80.4946594  72.2540131  61.8071671  79.8879395
  71.5684433  61.9213600  81.2325363  35.9761963  20.6289520  27.1963577
  36.3688889  19.7560387  27.2031364  36.5903130  21.1639557  26.6935024
  28.8242645   7.1492019  21.4520931  28.1577148   6.7336559  20.9050407
  28.3827724   7.9087110  21.8321762  77.3255768  15.0959187  58.4676895
  77.2843323  14.1662245  58.6917458  77.8955841  15.1321154  57.6995735
  24.9156647  52.2633095  43.6883430  24.9302578  52.2548370  44.6453934
  25.3067913  51.4270782  43.4354286  36.9846840  45.1489868  29.1636009
  36.1652031  45.6436348  29.1608105  37.6103096  45.7194595  28.7170696
  11.9917231  53.8535576  51.9395103  11.2573099  53.2869148  51.7033310
  12.7556210  53.2771759  51.9176979   3.4851351  63.2315865   2.5828962
   4.1141386  63.7487259   2.0797505   2.8892260  62.8731270   1.9251506
   5.5796976  32.3431625  76.7619095   5.2577724  31.5918045  77.2599640
   5.1517887  33.0986862  77.1647873  48.9542465   6.6961918   9.1869583
  49.1155281   5.7621889   9.0533228  49.5415306   6.9407320   9.9021711
   6.2430658  67.3521042  86.7000809   7.1465821  67.2903519  86.3901215
   6.2612214  66.9563980  87.5714722  36.8498421  14.9922304  77.6493378
  36.7284393  15.9229851  77.8369293  36.0498848  14.5766935  77.9712524
  83.0818405  19.0141563  87.6603546  83.2343674  18.1300182  87.3267975
  83.7126160  19.1132450  88.3734741  53.3146973  60.1875420  42.8628960
  53.4161568  61.1391602  42.8439598  53.1130714  59.9863091  43.7767258
  30.1748791  12.2059412  63.5246773  31.1027145  12.4159908  63.6306648
  29.9852409  11.5935116  64.2354507  78.4167633  70.7294388   3.3690951
  78.1552353  71.1836624   2.5681474  79.1297302  71.2605972   3.7237539
  85.3966599  34.3154068  59.8789291  85.7533035  34.7911682  59.1288033
  85.4669037  33.3930244  59.6329422  44.2572250  44.3967896   1.4088521
  45.0904427  44.6775246   1.0304804  43.5945663  44.7357025   0.8069780
  54.3817215  32.9552803  37.7908745  54.2284203  33.8616066  38.0578995
  53.8678207  32.8513451  36.9900398  79.4375381  69.1294250  49.3849373
  80.3044128  69.3312759  49.7371063  79.1305618  69.9572144  49.0151215
  81.6255264  21.3049812  73.4557724  80.6698303  21.2673607  73.4940262
  81.8278122  21.3087311  72.5201950   7.6523933   7.8170490  27.5381088
   7.3273888   6.9294658  27.3871155   7.0620213   8.3772383  27.0342445
  25.3112717  61.6901131  52.2477913  25.7260838  61.0014839  52.7673607
  25.8847542  61.7957687  51.4887199  53.2523003   8.2098064  46.1200905
  53.2430153   7.8180590  45.2467728  52.3708839   8.5658226  46.2322769
  40.1191139   3.9870589   7.5195270  40.6594048   4.4188385   6.8578010
  39.4629135   4.6420169   7.7575679  18.3996868  17.3806438  83.7582779
  18.6060238  17.2910099  84.6886673  17.4433327  17.3627911  83.7222366
  51.3186188  38.7866249  16.3718586  51.6137924  37.9969864  15.9184542
  50.7758331  38.4616127  17.0901775  66.6166916  61.0401726  36.5104828
  66.8393860  60.7794571  35.6168022  66.0790100  61.8249130  36.4040985
  13.3946476  64.0452042  69.3075180  13.8098297  64.8940125  69.1546021
  12.8571386  63.8978271  68.5293198   1.5202819  55.6887512  60.4445686
   2.2290556  55.2405090  60.9060364   1.0814712  54.9968376  59.9496574
  78.2117157  34.0565567  62.8859444  77.5654526  34.3305206  62.2351570
  78.5599670  34.8759842  63.2373619  17.1412315  60.7758904  55.5815887
  17.7485199  60.1495552  55.9754639  16.6124592  61.0903702  56.3148918
  23.1199474   8.0821676  43.2041550  22.6381855   8.8752632  42.9693413
  22.5882835   7.3668041  42.8551254  59.3002090  35.0962563  83.1918716
  58.4436226  35.4903526  83.3567200  59.1866531  34.6090622  82.3758011
  27.5698948  67.6875305  65.4299469  26.9940243  67.2096863  64.8330612
  27.8727093  67.0257416  66.0516968  44.7766342   3.4505527  84.4659805
  44.7515373   2.5313876  84.2000122  45.6824722   3.7194772  84.3131104
  56.5606995   4.6297865  53.2364960  57.2154884   4.6638441  52.5391273
  56.3929443   3.6958120  53.3621254  62.7530937  60.1511002  15.5185251
  62.8954086  61.0452919  15.8290129  62.4537621  60.2559433  14.6153975
  86.5148773  46.6183815  10.5522442  86.2335663  45.9028397   9.9820728
  86.6931610  46.1982460  11.3936300  81.4514008  48.1948700  16.1236286
  81.5617523  48.0132179  17.0569324  81.5143738  47.3370667  15.7035828
  43.1657677  68.4675140  49.8777924  44.0564919  68.3975983  49.5343437
  42.7060471  69.0152969  49.2415352  64.8300247  27.1435719  11.3910961
  65.5165100  26.7188931  11.9055071  64.5437241  26.4714527  10.7726154
  39.6538925  51.6548843  49.8646011  39.9102592  52.0816383  50.6821518
  38.9550056  52.2075653  49.5148392  14.1893444  44.5594559  56.1391296
  14.1671124  43.9767799  55.3800316  15.0809755  44.4779167  56.4776230
  78.0723953  30.1959229  68.7473755  77.8643417  30.0415668  69.6688538
  78.9654617  29.8669586  68.6451187  27.3709011  71.7761154  35.1341743
  26.8911095  71.0474472  34.7403755  27.9534130  71.3627930  35.7714195
  18.0722275   1.6796497  33.2174416  18.8193245   1.5664352  33.8050308
  17.4636822   0.9842250  33.4670219  47.6193008  53.4694901   9.3364687
  46.9981155  54.1340599   9.6343069  48.4165115  53.9597206   9.1355658
  75.5110321   0.8642061  74.8375320  74.8394623   1.3742049  75.2904358
  75.2599716  -0.0475189  74.9857101  78.3711777  52.3765945  52.6858444
  77.5787506  52.6021881  53.1730766  79.0770645  52.8163528  53.1597366
  58.7911987  68.5378189  33.1184654  58.8143501  68.3764572  34.0616837
  59.1092262  67.7236481  32.7283134  61.3076210  58.4088478  61.2643204
  61.0004234  57.5109940  61.3896942  61.8408775  58.3708725  60.4703255
  57.1938667  50.6946831   7.6910686  57.1688232  51.4399567   8.2912092
  57.0001335  49.9365807   8.2424107  62.2076225  54.4510460  54.3450966
  62.9268341  54.1423950  53.7939987  61.5234261  53.7902145  54.2382965
  33.8494225   0.0623752  43.7144318  33.2386780   0.5710413  44.2477989
  34.5856628  -0.1174176  44.2991180  53.0117912  38.9620857   6.6763225
  52.6908798  38.1241951   6.3428698  53.9308281  38.7992210   6.8886309
  11.8132410  64.1443329  85.8498840  11.8353872  63.7232361  84.9905777
  12.5499916  63.7592468  86.3243790  70.8772507  32.6810570  23.2525024
  70.3373947  32.0010986  23.6555462  70.2997131  33.0976067  22.6128387
  69.7328949   2.9021606   9.7304935  69.1848068   3.4389720   9.1580753
  70.3397980   3.5235808  10.1326647  15.6040354  59.5605698   5.4830928
  15.3027458  60.2906990   4.9423847  15.5598412  59.8924294   6.3798361
  46.3130913   6.1556745  86.8133392  45.9453087   6.9889989  86.5191650
  45.6042137   5.5243125  86.6904297  66.0123138  54.5037117  53.3038750
  65.3517609  53.8530006  53.0662117  66.2533646  54.9145737  52.4736214
  58.8478241   3.9606106  24.3387928  58.5072021   4.6949458  23.8279514
  58.6281471   3.1862025  23.8208504  36.6579666  16.4241352  85.5285568
  35.7343674  16.4077320  85.2777100  36.7409210  15.7300386  86.1824570
  43.1447525   2.3983681  11.5705652  42.7619705   1.6260959  11.9868622
  42.5581665   2.5917940  10.8393097  12.6030083  18.6478329  31.4033985
  13.4559202  18.3207836  31.6894283  12.6634579  18.6712551  30.4483967
  12.0106668  58.5169868  78.3567200  12.8121748  59.0185356  78.5059280
  11.8799591  58.5506859  77.4090805  24.4549103  28.1772289  30.0676308
  24.5814705  27.6386528  30.8487511  23.6022301  27.9075851  29.7263660
  86.6920090  39.1785927  37.5606422  86.0887680  38.5536995  37.1583481
  86.3632736  40.0362549  37.2912369  60.2292442  59.2966194  84.4960709
  61.1600800  59.1199760  84.3598022  60.0205307  59.9832878  83.8627014
   0.8589389   2.8994997  50.2196655   1.5992413   3.2214205  50.7340088
   0.0869966   3.1583359  50.7229958   5.9167247  10.9066362  37.0965004
   5.9939356  10.0612402  36.6542625   5.8821287  10.6875639  38.0276527
  62.8255005  63.0839767  54.2823868  63.4297905  62.5611000  54.8093224
  62.6707687  62.5549622  53.4998055  39.9763489  20.1082363  78.8638229
  40.9274979  20.0127716  78.8145218  39.6732712  19.9520359  77.9694138
  86.7522430   2.9182951  57.3151627  86.4817886   3.4531307  56.5688133
  86.3355255   2.0697057  57.1652451  65.6957245  33.8639908  77.4314194
  65.2380676  33.6026001  78.2304535  65.2670822  33.3653107  76.7358551
  56.8686790  51.0561867  20.8371582  56.0288429  50.6456528  21.0429878
  57.2147598  50.5412140  20.1082802   9.0256376  53.4939575  62.7825584
   9.8336897  52.9926186  62.6732826   9.2896738  54.2686234  63.2789612
  51.0061951  44.5131454   6.8904519  51.0502625  44.2221527   7.8012824
  50.5101700  45.3311119   6.9240708  28.9481335  17.6166706  73.1550446
  29.2498512  17.0364532  73.8540039  28.0480824  17.3388233  72.9849243
  86.2779694  56.8559074  25.2397633  85.5889893  57.4780769  25.4730816
  87.0769653  57.2347794  25.6062374  58.8436737  45.5277290  77.6351547
  58.4076805  46.3105698  77.9717560  59.4901657  45.8622055  77.0135422
   8.7781162  12.2371845   6.8507485   9.2450428  13.0410643   7.0787616
   8.0385914  12.5322371   6.3194485  28.4425774   2.4864151  49.3056488
  27.7700291   2.8061907  49.9070282  28.3001404   2.9840868  48.5004997
  73.0548325  29.7818298   6.5503802  72.6551590  30.4945049   7.0489650
  72.5052414  29.6969757   5.7712879  57.7088814  68.7063828  16.1416740
  56.9156456  68.8784409  16.6490250  58.4030380  68.6404877  16.7974453
  57.5676003  65.1920624  72.2563248  57.0571136  64.8276520  71.5332489
  58.3744087  64.6770401  72.2633438  42.3775711  57.6795044  88.9184570
  42.3994026  58.4420547  88.3402939  41.7586021  57.9194260  89.6080551
  54.7463875  56.4876862  55.3101768  53.9663620  56.6484413  55.8411674
  55.3247604  57.2251434  55.5047798  81.9127121   0.0705407  14.8652210
  82.3011017   0.1888894  15.7320423  81.8815994   0.9523928  14.4942741
  51.2558136  54.6158905   2.4424379  51.8823357  54.0770187   2.9254692
  51.7468071  55.4040909   2.2102773  43.2991791  28.5232716   5.5154328
  43.8780174  28.5941353   4.7563825  43.1750793  27.5817032   5.6349287
  30.2752457   1.9305309  87.7335129  29.6150570   1.7112312  88.3909988
  30.0847301   1.3471482  86.9989395  20.1065426  55.5870514  75.4411545
  19.5222168  55.7633972  74.7037964  20.8222561  55.0763588  75.0627670
  85.7355576   7.2792478  83.5055237  86.2239990   6.5512023  83.8897247
  86.1300888   8.0618858  83.8903046   6.4538417  55.7199478  68.2885132
   6.8914709  56.5054855  68.6166077   5.6013827  55.7211685  68.7238846
  28.4848633  68.8747177  17.6236610  28.6058502  68.3427277  16.8371658
  27.7032146  69.3964996  17.4419823  79.1621246  21.2591438  19.6669312
  79.0947571  20.4510479  20.1755333  80.0401077  21.5894928  19.8573322
   2.3621292   4.9994159  28.1018944   1.8135189   5.6071954  28.5977402
   1.7875302   4.6656032  27.4129562  80.3474960   9.8407793  23.2043438
  80.3300095   8.9620914  23.5835953  80.9753036  10.3218813  23.7434464
  56.1922569  46.9359093  28.8669090  56.6177711  46.1629410  29.2379761
  55.2934074  46.6552238  28.6951027  12.6515398   8.2696104  51.5580788
  13.0191422   7.7263169  50.8609924  13.1188326   9.1017771  51.4848137
  50.3648682  20.7508240  84.7701416  49.7568016  20.1458778  84.3452530
  51.1859360  20.6414165  84.2904510  47.1977501   6.5867724  69.4580154
  46.8144341   5.7490816  69.1980667  46.5126228   7.0145679  69.9716568
  75.1098099  62.7412186  89.0978012  74.3400955  63.1496315  88.7016068
  75.8530884  63.1551514  88.6591339   2.0630085   1.4509580  60.8220673
   1.9875684   2.2283058  60.2686501   2.9881380   1.2103605  60.7722664
  63.2747993  55.2357635  40.0339775  63.7380142  55.8199310  40.6343231
  62.8878822  55.8201256  39.3820229  48.1589661  15.8652582  26.8830509
  48.9717789  15.9718132  27.3772335  47.4967384  15.6787357  27.5485554
  15.7319822  63.2785568  20.7724915  16.5068455  62.8520737  20.4065285
  15.1792240  62.5561333  21.0704765   8.5687294   1.5187116  26.0867386
   8.8724937   2.4104125  26.2565289   8.2000704   1.2283390  26.9210091
  39.1831169  24.7776432   5.9937181  38.4466019  24.3427773   5.5639892
  38.8526382  25.0059948   6.8625503  16.0235691  20.9561958  17.3617973
  16.3113194  20.7559166  16.4711132  15.4352560  21.7044849  17.2608700
  45.3113022  10.2731771  59.3216896  46.2254181  10.4816914  59.1289482
  44.8376198  10.5144920  58.5256844   5.3989215  70.6089783  32.4510612
   4.6131563  70.3867950  32.9505043   5.9429860  69.8228455  32.4982872
  31.8275356   6.8094096  66.0121078  31.5963573   5.8940163  65.8544846
  31.0401840   7.2994943  65.7751923  13.9519958  28.7795620  29.7892475
  13.4186993  29.4907513  30.1442623  13.3213539  28.0935211  29.5704556
  65.5086365  12.8945074  73.3180008  65.1185303  12.5465755  74.1198654
  65.9024506  13.7253408  73.5841827  64.5363617  12.5742989  29.7728901
  65.3822250  12.4732733  30.2094097  63.9024391  12.6266327  30.4881744
  44.0056992  36.1121826  87.7910080  44.2291489  36.5583763  86.9741745
  44.6331940  35.3917503  87.8497925  58.5869102  40.4080772  87.1590195
  58.1286774  39.8386688  87.7771072  59.1709251  39.8203850  86.6796646
  52.5116386  50.5071182  51.1303024  52.1525841  50.9223442  51.9144554
  52.7385063  49.6206398  51.4112282  14.0542908   6.9779711  37.0900040
  13.6940260   6.1209116  37.3177986  13.7249470   7.5648298  37.7707100
  18.1261635  38.7869377  37.2711830  17.9035263  39.5303955  37.8314819
  18.8707294  39.0921822  36.7528381  63.5369606  33.4418945  84.4019928
  64.4363937  33.1665382  84.5792847  63.2747269  32.9267044  83.6390686
  11.1098938  36.2945709  46.4880104  10.2367382  36.6859665  46.5132980
  11.0877848  35.6159058  47.1626625  76.0362549  62.7671280  23.0907173
  75.8232880  63.6186905  23.4724522  76.5369034  62.3178444  23.7716942
   7.1158924  42.7687721  86.4995804   6.4145441  42.2373276  86.1228790
   7.8613868  42.1716919  86.5625610  13.0080662  38.1048584  25.5265198
  13.5255032  38.3089485  24.7475224  12.9382944  38.9379311  25.9927349
  10.0172729  47.5406570  51.0800781   9.4251328  46.8530998  50.7753334
  10.1168423  48.1223717  50.3264694  83.0070648  38.3516121  42.6197395
  83.9530945  38.4268646  42.4948502  82.6606674  38.2002792  41.7403412
   7.6995163  40.2120857  46.0594215   7.2394266  40.8602486  45.5261002
   7.2787046  39.3804092  45.8415642  77.7468643  61.8601151   7.2986965
  77.1001282  62.4688683   6.9417849  78.5157166  62.4028282   7.4735117
  27.8077679  10.1040421  33.8205376  26.8825264  10.1709614  34.0564995
  28.2686195  10.0920210  34.6594086  31.9353981  59.3089867  87.7705994
  32.0318260  59.3428726  86.8188705  31.0000038  59.4449310  87.9215546
   2.5840213  42.0027466  34.7097549   1.8331420  41.9794197  34.1165695
   3.1224647  41.2573128  34.4439735  50.1806984  11.6703978   1.4126676
  49.2456818  11.5325127   1.2611318  50.2234268  12.4743643   1.9303961
  62.4842911   2.7054455  27.5903988  62.7931976   2.6811845  26.6847401
  61.9547653   1.9135804  27.6841412  70.3066559  17.6058865  58.9584465
  69.9599228  18.1123486  59.6929550  70.6241837  16.7948399  59.3554459
  10.1750784  31.4779530  34.3508835   9.7216635  30.6367245  34.2962570
  10.2347336  31.6573963  35.2892189  27.7886772  29.3745060  23.4338646
  27.1116009  28.6990185  23.3949471  27.7100697  29.8406544  22.6015434
  74.5482330  26.9880772  28.9981232  74.0499649  27.0282021  29.8144264
  74.0956879  27.5939064  28.4112606   6.5214491  17.4656754  23.2054787
   6.7967496  17.7008476  22.3194008   6.6214204  16.5144424  23.2428112
  10.8942490  16.5580425  25.7796707  11.8311615  16.7520809  25.7518044
  10.6291199  16.7847157  26.6710510  68.1004333  10.1040535   5.2907753
  68.5744324  10.6357193   4.6513309  68.1947632   9.2061892   4.9727001
  36.3134041  35.9543991   4.9753671  36.5591850  36.3465500   4.1374874
  36.2544746  36.6953506   5.5784860  39.5047112  67.6181870  60.7202187
  39.9075050  66.7678299  60.8959274  40.2244453  68.1628723  60.4015770
  57.4745064  12.3829556  15.2068844  56.9136200  11.8120975  15.7320137
  57.6888580  11.8620405  14.4329767   0.8986112  27.3740196  43.3088112
   0.2001559  27.7002048  43.8762550   0.7586364  26.4276619  43.2764931
   2.1136274  10.5036707  22.3288078   2.3024979  10.7125502  21.4139690
   1.1621774  10.4037113  22.3601570  10.5599394   3.6036601  68.0112076
  10.6471729   3.6886370  67.0617828  10.0777054   4.3861475  68.2784119
  48.2579155  18.3644047  74.5390778  48.2417717  19.0769043  75.1780701
  48.3215256  18.8043480  73.6913528   9.0577202  36.2789688  74.1543427
   9.9938736  36.2939301  73.9552841   9.0152369  36.0925522  75.0922546
  76.0688705  26.1588783  77.1939011  75.1442032  26.3379021  77.0231247
  76.5162735  26.4218559  76.3895950  52.2942810  15.8770447  44.0040550
  52.5133286  15.5631590  43.1267128  52.7763252  15.2968321  44.5933037
   8.4804831  59.9914474  87.6081238   7.7124891  60.3513489  87.1644058
   8.6010113  59.1270332  87.2150726  83.9790115  63.7934494  23.6829338
  84.7806625  64.0761566  24.1230068  83.7722931  64.5074463  23.0798492
  20.4101543  15.5748339  59.8842888  21.1284237  16.1160774  60.2119713
  19.9679470  15.2606287  60.6729317  51.5938492  70.8724670  78.5017014
  52.3508072  70.2890930  78.5557556  51.9207306  71.6472244  78.0443878
  74.5451660  48.5997620  62.2157936  73.9203720  48.5902290  61.4906960
  74.1403656  48.0515556  62.8879852  40.0394020   0.7882282  54.0918999
  39.6229897   1.3829316  54.7157288  40.3816566   0.0758763  54.6319466
  41.7654648   9.9178371   2.4223485  41.9825554   8.9857035   2.4374826
  42.2972298  10.2760983   1.7116402  24.2344379  60.5365257  32.3788147
  23.5351830  60.7937965  31.7779102  23.7960873  60.4240341  33.2222748
  40.1433258  71.4383926  50.8609428  39.5488892  71.7570801  51.5401459
  39.6038017  70.8587952  50.3231583  14.9187956  46.7988663  45.1413116
  15.2426424  46.9043121  46.0358696  14.8403854  47.6927452  44.8080482
  70.5274429  70.3289566   3.7375324  69.5861130  70.5001144   3.7665694
  70.6088181  69.5237350   3.2264221  72.9736023  41.6290627  39.3311958
  72.6826477  42.5302505  39.4706154  72.7390366  41.1738281  40.1398849
  38.7095337  70.6701279  46.8601761  38.4963226  70.1289597  47.6203842
  39.2086792  70.0897827  46.2854652  36.8101540   3.4917088  57.3091278
  37.4639320   3.1647704  57.9271202  36.3750763   4.2052069  57.7758865
  66.1408310  17.3534832  58.4572258  66.4117813  16.4679089  58.2151985
  65.9660416  17.3020687  59.3969269  47.5003242  35.7690201   9.4638424
  47.0829391  35.8243866  10.3234673  47.5011292  36.6696053   9.1395302
  85.1509933  36.1522026  42.9471359  84.4940796  35.7827568  42.3570442
  84.6413498  36.5738945  43.6389961  36.3262634   9.0817318  85.6614532
  37.0076485   9.6931639  85.9409103  36.2577896   8.4542103  86.3810120
  84.7936630  44.6754074   7.4191461  85.1956100  45.2743797   6.7899384
  84.3990631  45.2482185   8.0767202  10.0008039  70.6218872  81.5886841
   9.7752714  69.8078003  81.1385345   9.4655867  70.6129990  82.3822174
  51.7418518   2.4955175  64.6921616  52.6163521   2.8575842  64.5493851
  51.3148918   2.5565822  63.8376389  47.6947746   9.5650721  13.3865938
  47.1433334   9.7340393  14.1505270  48.5885620   9.6984825  13.7021561
  38.0619469   1.2257389  64.4577484  37.8523331   2.1597037  64.4594116
  38.2157555   1.0131452  65.3782806  58.1898308  17.4800434  61.5081215
  58.5870895  16.6913605  61.1388016  58.0053940  18.0332718  60.7490730
  31.4956779   7.2950153  68.8198242  30.8310261   6.6349835  69.0168762
  31.7974300   7.0753508  67.9383926  27.0782776  46.2764664  56.7336235
  26.2501736  46.0654182  57.1648254  27.0619640  45.7689323  55.9222183
  82.1468658  26.5481071  83.2143402  81.6764145  25.7152176  83.1796570
  82.1967773  26.7563286  84.1472855  34.3918304   2.3938930   5.4480958
  34.7661819   3.0391371   4.8483024  34.4860611   2.7894239   6.3146453
  48.8943329  70.7699890  73.7587128  49.2451324  70.1383438  73.1308594
  48.8768883  70.2965240  74.5904388  83.3035889  62.0120506  33.7309570
  83.1565704  61.4391365  32.9783707  84.2052536  62.3163376  33.6278038
   6.3227806  34.1879883  43.7779922   6.5546288  33.2646980  43.6779327
   6.6788421  34.4331551  44.6320076  62.5357933  40.9386253  42.7798653
  61.9887505  41.3890305  42.1363487  62.1639786  41.1871719  43.6261597
  48.2376518  57.4883652  42.5225410  49.1466064  57.7873268  42.4970093
  48.3002357  56.5336227  42.5505867  55.3509369  62.7524490  73.4990768
  55.0693474  63.5348511  73.9731903  54.5638313  62.2107506  73.4419708
  23.6091805  60.2558823  25.6898632  22.9446125  59.5826263  25.5438995
  23.9376488  60.4619141  24.8147106  20.8608971  -0.2064995  77.5120621
  21.5430832  -0.0104903  78.1542740  20.2603664   0.5369217  77.5660858
  86.0393829  23.2339878  26.1486702  85.6341400  23.8365383  26.7723217
  85.5218658  22.4318924  26.2197361  74.9639206  14.8159018  42.8606911
  75.2903442  15.1060848  42.0089417  75.0274734  15.5912638  43.4183693
  61.5336914  60.2269936  80.3308029  61.5385895  60.4044800  79.3902206
  61.3571320  59.2885170  80.3965378  61.8895149  53.7888680  36.4321709
  61.3702507  53.2470856  37.0263634  61.3136330  53.9425468  35.6831894
  55.7569313  30.4229603  33.4546547  55.3753662  30.4045277  32.5769882
  56.6741791  30.6566086  33.3121910  81.5802002  49.4191437  39.5206947
  81.2892380  48.5359955  39.2934875  80.8036118  49.9656029  39.4001732
  32.1553802  15.0236187   1.2497010  32.8428802  15.2623587   0.6279462
  31.4841423  14.6009769   0.7139335  79.6397629  28.3830185  40.0904045
  79.7483521  28.4792271  39.1442642  79.3025055  27.4943867  40.2036476
  49.7510109  57.1059113  80.2048035  49.8400078  56.2602730  79.7652512
  49.5570412  56.8833237  81.1153336  51.2802963  21.9726353  79.6655197
  50.9834480  22.4618778  78.8982162  51.6766968  22.6340294  80.2326660
  85.0289841  45.2945251  87.5821609  85.8036652  45.1237450  87.0465012
  84.6153183  44.4374886  87.6851501  37.9267845  64.3126450   2.8568127
  37.1410942  64.8492889   2.7522037  38.0859566  63.9487076   1.9859256
  57.6914101  61.7875328  20.7242928  58.4605217  62.3561020  20.6864948
  57.1135750  62.2082787  21.3609295  46.7466164  40.0871315   4.9410200
  46.5296783  39.1638985   4.8113728  45.9256439  40.5513306   4.7774491
  75.4204788  36.1251717  53.0462875  74.5920715  36.5953903  52.9521027
  75.3962402  35.4575920  52.3607368  13.8085184  24.0075626  12.3176746
  14.7473402  24.1792641  12.3909092  13.7482452  23.2502766  11.7353363
  72.4547806  49.9695473   2.2172799  73.0725784  50.5670242   1.7958834
  71.5933838  50.3374290   2.0200572  23.9673519  12.0104256   1.9027849
  23.4107494  12.6283484   2.3766994  23.4995995  11.1770144   1.9563186
  27.2746334  49.1611176   0.5713189  26.7300892  48.5538940   1.0722997
  28.0787735  49.2408333   1.0843834  65.3084869  37.2773247  75.5178146
  65.7844467  37.2579651  74.6875610  65.9189453  36.9023972  76.1526413
  18.7704582  29.3892803  28.2278099  17.8188400  29.4886799  28.2556438
  18.9110012  28.4441433  28.1712990  21.8988419  13.9201412  26.9785461
  21.8298454  14.8745365  27.0030575  21.0729599  13.6106663  27.3505363
  11.6582222  11.1451044  75.9699631  11.3247032  11.4818869  75.1383514
  12.5725765  11.4273233  75.9932327   3.1592910  40.8331223  48.1371536
   3.7315254  40.0811348  48.2897758   2.9516027  41.1577797  49.0133362
  33.5197411  51.0461502  39.0796013  34.4687576  50.9780464  39.1842880
  33.3863525  51.8899307  38.6477699   0.5857835   7.8604512  68.5411148
  -0.3378238   7.8403192  68.7916641   0.8224499   6.9403205  68.4245758
  65.0488052   8.3486156  62.6223984  64.8655167   7.5584106  62.1142502
  64.1850815   8.6928835  62.8497543  14.2105837  21.2646961  21.1300488
  14.8353806  21.5631618  21.7909412  14.7387590  21.1351070  20.3423500
  85.0018005  68.0618591  71.4352951  84.7290726  67.4536743  70.7482986
  84.6615829  67.6783218  72.2436142  44.0125160  29.0025444  18.4099503
  44.1265259  28.6667652  17.5208569  44.6768761  29.6864090  18.4947300
  64.8914261  15.9965219  53.1727066  64.5177689  16.4721260  53.9146042
  64.2214890  15.3544321  52.9378967  59.2599182  40.8338623  36.4340858
  59.6094170  39.9535332  36.2958679  59.9058189  41.4140053  36.0309944
  79.9920807  21.2141438  82.0427475  80.5420074  20.9784431  82.7899170
  79.6910782  20.3755493  81.6929092  26.3845806   7.9293990  24.0025177
  25.5991268   8.0119028  24.5433369  27.0724430   7.6728830  24.6167469
  83.5356979   5.9149132  82.5201645  83.7703171   5.1267419  83.0100327
  84.2534180   6.5250311  82.6900635  67.1830063  56.9392090  77.9257355
  67.5181808  56.9334679  78.8223114  66.8517075  56.0517654  77.7882004
  25.1695919   2.2447505  55.6006088  25.8105812   2.8637414  55.2510147
  24.4922848   2.1947916  54.9260788  67.4300613  70.1996231  45.7098236
  68.3380966  70.2242737  45.4079933  67.4202881  70.7600327  46.4857635
  80.9465256  41.7485275  54.7245941  80.7072601  42.5841179  55.1255608
  81.7851181  41.5214767  55.1263885   1.2611901  12.8238544  68.0429459
   1.8085881  12.0851040  68.3090897   0.3821480  12.4537334  67.9621506
  55.4608269  31.3968544  13.0426722  55.1282043  31.7223988  12.2062416
  55.4453125  30.4440746  12.9521065   3.8376219  51.3952141  62.5232620
   4.7800546  51.2809715  62.4007797   3.5035834  51.5860672  61.6467781
  58.4601021   5.6154661  36.5169601  59.1796570   6.0322781  36.9910240
  57.6779785   6.0839329  36.8086014  73.5985031  36.6236343   4.3623371
  72.8671722  37.2193336   4.1994610  73.2699127  35.7636833   4.1001348
  27.7991428  58.7858162  70.6211929  26.8477840  58.7969322  70.5162048
  28.0565815  59.7062988  70.5695572   0.3493941  31.3948822  26.7431583
   0.6095656  31.0078220  25.9072590  -0.6075408  31.3922825  26.7207851
  39.3410034  16.8501892  28.6942558  38.9536476  16.3327522  29.4002628
  39.8347893  17.5363083  29.1433086  58.2280045  44.8186569   6.6648974
  58.1133156  45.6459198   6.1972289  57.3734818  44.6466560   7.0604215
  27.4301510  12.1381731  13.1351881  27.1723938  12.2118845  14.0540781
  26.6273155  11.8824368  12.6810017  65.2252121  53.6094780  42.5132828
  65.3634033  54.3743782  43.0719070  66.0388184  53.1103554  42.5850372
  69.4692078  58.6822853  10.2291918  68.8255539  58.1383667  10.6831760
  69.7511826  59.3185883  10.8863344   8.5776091  40.5004158  52.1753006
   8.0027599  41.0188065  51.6122284   8.2822208  40.6963806  53.0644455
  14.2539177  70.1863708  25.3379955  13.8529081  70.0314178  26.1932220
  13.5662785  69.9699326  24.7082825  47.4256706  52.4915161  71.7373428
  47.3479881  53.1428413  72.4344635  47.8275566  51.7333946  72.1615829
  12.6799803   9.2451792  56.8963470  13.1023340   8.4151039  57.1173096
  13.3923225   9.7985764  56.5761108  17.0265331   6.0644212  43.7187233
  16.2581615   6.6302428  43.6433411  16.6661777   5.1870437  43.8475037
  83.6069107  65.2327957  50.6747131  83.5168839  66.1386642  50.9705658
  84.3296661  64.8816528  51.1948586  14.0891371  27.7953548  16.5608025
  14.2075043  26.9157581  16.2022896  13.1416063  27.9309330  16.5548038
   1.7335387  18.0830383  49.5207214   1.4396579  18.9217796  49.1652260
   2.3103626  18.3196507  50.2470284  21.4383011  52.2166710  12.1179848
  21.4092712  51.2710838  11.9721947  21.6684361  52.5836639  11.2644119
   6.4614935  54.5940361  62.4030190   7.1024265  53.9433479  62.6894493
   6.2270069  55.0669060  63.2015419  15.9233274  11.3197622  73.0847473
  15.5510807  10.7159805  72.4420090  16.8235970  11.0172997  73.2041779
  24.6754742  27.1818886   0.9905974  25.5095730  27.6456127   1.0645616
  24.8776455  26.2826519   1.2489243  16.1663666   2.7973893  22.5649548
  16.0059376   1.9620640  22.1259480  16.6918850   2.5680945  23.3314304
  31.6212406  22.2942829  31.7197800  30.7948780  21.9146900  32.0185547
  32.2869606  21.8827438  32.2708549  26.0102749  52.9724083  78.3155594
  26.5712395  53.2153015  79.0521393  25.6501446  53.8030052  78.0046768
   9.2590990  46.8702316  27.4060593   9.1861887  46.9680023  28.3554573
   8.6791964  46.1384010  27.1954117  35.6320686  50.0666924  18.9253693
  35.0202827  49.7670212  18.2529526  35.1301613  50.6970634  19.4420433
  49.9952202  40.9188347  29.2156181  50.7574158  41.4412498  29.4653664
  49.9067383  40.2736893  29.9171810  79.4002914  49.7636223  84.1305313
  80.3139725  49.4871864  84.2013092  78.9806747  49.4064217  84.9131927
  22.0507221  36.8234367  33.2223816  22.0101242  37.1896973  32.3389587
  21.9824581  37.5835304  33.8001633  40.7921867   7.6117325  26.9362068
  39.8880615   7.3066459  26.8606243  41.1375084   7.5606389  26.0449295
  11.8877611  46.3767395   9.3564205  12.7529202  46.0030594   9.1888018
  11.3855515  46.1825104   8.5650349  17.0603905  23.1563244  36.8873138
  17.1639862  24.0674973  37.1616592  17.0847893  22.6562958  37.7031593
  26.9441700  12.8439341  54.8017235  27.1105747  13.6713409  55.2533226
  27.7766552  12.3738251  54.8486252  72.9140854  26.6096592  56.5371742
  73.4511642  26.5180244  55.7501640  73.5019531  26.9994316  57.1842651
  76.7419052   7.3491082   4.4793983  75.9601135   7.7964725   4.8032713
  76.8569870   7.6820850   3.5893903  59.7345848  34.8302040  19.8887825
  60.4736404  34.4420700  19.4203987  59.9839935  34.7820816  20.8116646
  12.6626816   4.1228390  33.4698868  13.2077732   4.0547485  34.2537689
  13.2683620   4.3931270  32.7797241  78.5133362  15.3103399  30.8318157
  77.7809525  15.8658199  31.0988159  78.3214035  14.4573154  31.2213554
  24.2508583  30.0461197  10.1050482  23.5244732  30.4615879   9.6403065
  24.9899940  30.1100082   9.5002098  42.1443977  57.5500565  29.9117260
  43.0638962  57.5278282  30.1767845  41.7102699  58.0600891  30.5955620
  51.3097153  68.5402908  49.2259941  51.5114784  68.7814026  50.1300888
  51.0047836  67.6346893  49.2819748  13.1345139   0.1132927  75.8881607
  12.9066067  -0.5538306  75.2406769  13.7776089   0.6670057  75.4453659
  31.0442352  12.3321400  72.4373550  31.8570404  12.0770683  72.8738327
  30.9357109  13.2578850  72.6551819   8.9948988  52.4395714  14.9028530
   8.0624857  52.6143570  14.7752304   9.0462608  51.4916878  15.0257998
  11.2447166  45.7773705  76.7364426  11.0430498  44.9146042  77.0986481
  10.7290926  45.8256645  75.9314346  27.1094265   4.0213132  18.0391445
  27.9841194   3.6604035  18.1836777  26.5160427   3.3638902  18.4023571
  62.2831039  33.5106583  24.6198692  62.2998352  33.3524017  23.6759892
  61.4764404  34.0049171  24.7655907  74.8062515  46.3584785  55.5002556
  74.3552017  46.0147552  56.2713814  75.7362671  46.2454720  55.6965675
   5.6616626  35.9950523  11.2039871   5.7178197  35.1833420  10.6998005
   6.3553629  35.9185753  11.8590927  77.9382401   0.8584699  76.8501740
  78.4339981   0.0472976  76.7385712  77.5510178   1.0227412  75.9903412
  55.2613907  20.1519737  66.3031158  56.1247025  20.4715786  66.0408707
  55.4223480  19.6610584  67.1089249  58.0655670  57.7355080  17.5839615
  58.2972527  57.1199379  18.2793961  58.9062538  58.0142670  17.2209644
  81.3864136   3.2725706  62.9900475  81.1353836   3.6836271  62.1628532
  80.7506332   2.5670724  63.1095581  19.1158524  38.8002281  17.4959106
  19.9356003  39.0360298  17.0615826  18.6126900  39.6142654  17.5160465
  78.8446121  25.0555744  59.4360313  79.0689468  25.2481956  58.5256462
  79.3858185  24.2988300  59.6611099   6.3268290  54.8493080  32.3432121
   7.2562690  54.6354218  32.4246101   5.8771176  54.0130463  32.4642715
  21.9848824   3.2449820  49.4176674  21.2868938   3.0400038  48.7955513
  22.1220245   2.4301176  49.9008026  37.1162567  22.9288883   8.1667156
  36.9319458  23.5844612   7.4940453  36.8419151  22.0998421   7.7747321
  49.0231438  65.3529739  71.2993774  49.3082848  66.0866318  70.7546921
  49.1637802  65.6526337  72.1975174  48.9403839  25.7588120  86.8561859
  48.8282509  25.4752769  85.9488449  48.0809364  26.0952568  87.1099319
  55.6415291  15.8372402  45.1046944  55.0955849  15.0680447  45.2675285
  55.4008179  16.1193333  44.2222481  80.2615967  20.8352757   7.3153124
  81.1614151  21.1134739   7.4860868  80.3147659  19.8821087   7.2454562
  67.4419403  37.0517502  13.9260778  66.8582458  37.3181610  14.6363964
  67.9234161  37.8476791  13.7004471  83.2010422  47.2537422  36.1802940
  82.3891296  47.1376038  35.6867867  83.3567810  46.4023094  36.5889931
  18.2682438  26.1830063  68.1504440  18.9844017  25.8006611  67.6433334
  18.0837250  25.5351048  68.8304520  28.7259140  19.7246170  25.7386150
  29.5733242  19.4300003  26.0722694  28.6199055  19.2586174  24.9092541
  17.0251846  60.4937973  63.5429306  16.3103085  60.8592148  63.0217247
  16.9385052  59.5463829  63.4374542  21.6951218  58.0092583  25.5781937
  21.9369640  57.3626289  26.2412262  20.9179153  58.4391174  25.9351311
  37.8633575  61.3449402  11.1236200  37.0819817  60.8803024  10.8239574
  37.6914101  61.5323792  12.0464058  58.3075180  39.8797340  24.9428177
  59.0383644  39.2628212  24.9817581  57.5855331  39.3726044  24.5716171
  23.7900200  50.6375542  87.8137131  23.8282318  51.5500298  87.5270767
  24.3060246  50.6178703  88.6196747  78.6390152  45.8141136  46.4777946
  78.5344391  44.8655853  46.4030304  78.6883011  45.9761200  47.4198990
  77.0881958  39.9430122  49.5549049  76.3563538  39.5904617  49.0485916
  77.8685989  39.6363716  49.0932007  61.6851997  19.9962006  53.2546616
  60.7756729  19.6988106  53.2781143  62.0787849  19.5064278  52.5325508
  72.1848145  31.9416885  62.1195869  72.2973557  31.2735252  61.4434776
  72.1730270  32.7693100  61.6388206  52.3754501  -0.3061882  42.5581207
  53.2942429  -0.0380625  42.5455666  51.8928604   0.5008396  42.7371407
  27.5282612  53.7455177  25.8876286  27.3624153  53.1444054  26.6138458
  26.7383862  53.6945496  25.3493633  83.9901962  38.5394287  72.2997589
  83.3352127  39.2368050  72.3297043  84.4993820  38.7228088  71.5102463
   2.1410625  16.9240665  64.4527512   1.3436852  16.4047089  64.5561447
   2.4240761  17.1092472  65.3482056  14.2131863  71.5288773  14.1521873
  13.3456602  71.1527328  14.0033760  14.8082142  70.9586258  13.6653795
  18.3071442  27.2232056   6.9323936  19.0882244  26.9610500   6.4451380
  18.4894905  28.1201077   7.2126594   3.0722620   2.4146588  82.2870178
   2.9394855   1.9071227  83.0876465   3.3440626   1.7679428  81.6357803
  46.1831398  22.0915298  79.8487167  46.1299934  21.3317509  80.4284897
  45.6743736  21.8405457  79.0777435  52.7282753  24.4325752   5.7438569
  52.9273949  23.7556324   6.3906417  53.5847473  24.7540321   5.4621654
  82.4125137  69.4650803  60.1083412  81.6423264  69.0647964  59.7048264
  82.1471634  69.6377487  61.0116730  85.8255615  69.7385483  50.7955132
  86.3684158  70.3943710  50.3579788  85.1413956  70.2463226  51.2317543
  55.9326591  66.2882614  28.2935066  55.3334045  65.5997543  28.5817318
  56.6031342  66.3232956  28.9757595  12.3126936  49.6979294  62.5499535
  12.4493704  50.1665802  61.7265968  12.4103107  50.3683128  63.2261848
  56.0784645  18.0664158  46.9801979  56.2473602  17.3172245  46.4088669
  55.1576195  18.2798176  46.8294182  18.1920166   7.2727585  60.2100372
  18.7750225   8.0029612  60.4177361  18.6699638   6.7633352  59.5556030
  33.2871552  45.5532494  10.9668570  34.1790123  45.8810654  10.8512421
  32.7547913  46.0976791  10.3868418  76.6199417   0.8200603  53.1619225
  75.6849899   0.6516151  53.2790718  76.8007965   0.5509164  52.2613220
  50.8821831  47.8319740  61.4037056  50.6825218  46.8980675  61.4684105
  50.9495773  48.1259918  62.3121338  84.0817261  35.0587196  37.4170189
  84.9671097  35.4125671  37.5014000  84.1498718  34.4066315  36.7196159
  36.9205017   3.4275692  63.6184692  36.4576759   3.7103763  62.8297729
  36.4356995   3.8312123  64.3383789  65.0988998  69.7839355  19.5864372
  64.6585541  69.0580139  20.0284348  64.4164352  70.4457474  19.4747581
  28.5910702   7.0426569  38.7760124  28.8191204   6.1253142  38.9267006
  29.2417717   7.5363259  39.2751198  17.9264698  60.0491638  50.4937935
  17.2374592  60.6354485  50.1811180  17.5363560  59.5993614  51.2432747
  42.5984192  59.9872513  36.6641922  41.7533684  59.5557785  36.5378876
  42.7580605  60.4471817  35.8400497  52.4197998  23.1390343  75.5178070
  53.2235756  23.6241131  75.3310623  51.8886299  23.7453079  76.0340652
  68.9630203   8.7676229  78.7323685  68.4401703   8.3364248  78.0564041
  68.8140640   8.2448301  79.5202332  11.4280529  27.0323582   5.8488994
  10.9266300  27.0769253   6.6630373  12.3400545  26.9686165   6.1324868
  81.0063171  53.6190147  25.2573376  81.2726440  52.7772446  25.6271076
  80.5607910  53.3918839  24.4411583  86.3884888  14.9805117  52.8651886
  86.4315643  15.7459526  52.2920609  86.2531204  14.2430687  52.2701378
  26.2845783  60.2752151  17.9813099  25.8343563  61.0714111  17.6991711
  25.9204845  59.5849724  17.4270229  14.7829638  21.1740322   2.6593714
  14.8579063  20.2669945   2.3628998  14.6821117  21.1080799   3.6089561
  51.5733223  31.5723057  72.1087189  51.3272171  31.5832558  71.1837616
  51.3240852  32.4376755  72.4331360  39.3161926  54.6724548  26.1517220
  39.1474037  54.6527710  25.2097263  39.3869514  55.6033669  26.3629684
  38.3801346  15.3146944   3.7993419  38.0715027  14.4092627   3.7651017
  38.8311157  15.4457178   2.9652667  30.4991703  68.7081985  62.0276718
  30.7326851  69.6233749  61.8722267  31.3391609  68.2521820  62.0796471
  83.7456894   0.2261232  87.8517685  83.2258835   0.9832544  88.1215591
  83.1077881  -0.3809192  87.4765244  60.2195969  31.9538841  10.3477459
  60.8998489  32.2972565  10.9270411  59.4425735  31.8889065  10.9029427
  69.2754211  14.5907736  66.5350800  68.8421097  15.2299547  65.9694748
  69.7180710  15.1195869  67.1988983  21.5674801  21.0764084   5.7670012
  21.3998833  21.9128304   5.3327899  21.1156616  20.4301109   5.2244215
   6.6930451  39.2683182  34.3769531   6.3703642  39.5894508  33.5349426
   6.6070023  40.0166245  34.9675980   7.4794025  23.3746662  36.1128883
   8.2441835  23.0071831  36.5559425   7.5034690  24.3072147  36.3273773
  27.3168564  45.5672417   9.4795961  27.3779888  46.4235992   9.0563393
  28.2262421  45.2919312   9.5955725   8.4336033   8.5726547  66.0088882
   8.1022129   9.0014153  66.7979279   7.8376012   8.8544216  65.3149033
  14.7400703  54.0199356  17.7678204  14.8550329  53.3428078  17.1011028
  13.7916174  54.0920258  17.8749275   9.0811424  21.6960869  83.8377151
   8.2985096  21.5483341  83.3067780   9.4279985  20.8192444  84.0022430
  68.5092545  71.3413239  48.0531654  69.2910690  71.1110992  47.5511703
  68.4979858  70.7170029  48.7786484  52.7835655  46.7677155  35.8209763
  52.9418755  47.4690437  35.1890678  53.4125252  46.9319229  36.5235977
  21.7948513   5.9984016  27.4676399  22.4375134   6.7070160  27.5005798
  22.1274891   5.3446069  28.0825691  81.4134216   7.5559440  61.8746796
  81.5839005   8.0577011  61.0775566  80.5559769   7.8611989  62.1710587
   9.8095131  40.8891411  26.5856171   9.3543587  40.1626358  27.0113564
  10.7208548  40.7964706  26.8632870   9.4248381  30.1659756  47.3233109
  10.2427483  30.6113186  47.1021233   8.9293804  30.8114796  47.8273735
  43.7733994  32.9257240  18.2087555  43.4710922  32.9380493  19.1168785
  44.5288162  32.3379059  18.2157497  14.7895861  60.6331673  21.2997074
  13.9229984  60.2705116  21.1160259  15.2999105  59.8867722  21.6138649
  61.3433151  37.6929550  19.5846519  61.0462227  36.7846680  19.6392708
  60.6151695  38.2047234  19.9369698  50.0618172  67.8370972  18.0923920
  50.9355621  67.7750092  17.7064552  49.5857162  68.4318466  17.5128860
  56.0988426  33.1036530  27.8624687  55.7657394  33.8315506  27.3376484
  56.7878799  33.4924698  28.4012451  31.1388836  13.7837629  14.4659405
  30.7159595  13.5218973  15.2837381  30.8614349  13.1236334  13.8307381
  37.2849731   1.0534669  34.5433006  37.4614716   0.8975734  33.6155205
  37.5767632   0.2534169  34.9803505   3.6363056  62.7741547  46.1573143
   2.7872577  62.4537086  45.8529091   4.2002573  62.7288094  45.3852158
  43.0158577   5.2564487  19.1153908  43.8371124   4.7679877  19.0590134
  42.5815125   4.9057856  19.8929596  25.4019814  35.5386505  82.6555099
  25.5230656  34.8353996  82.0175323  25.2616901  35.0860176  83.4871750
  85.5428696  23.4376564  54.9217415  85.7884979  23.7124462  55.8051376
  86.3181992  23.6185741  54.3903618  37.5118294   0.3801780  52.7491074
  37.4780350   1.0231283  53.4574203  37.6521149  -0.4567915  53.1918678
   5.1519241   3.6887317  30.9726200   4.4876137   3.9075007  31.6261215
   5.7088494   3.0411570  31.4047241  66.6763229  69.6909714  68.4277267
  67.2420959  69.1478577  68.9765091  66.3538818  70.3727646  69.0171432
  58.0353432   4.7735548  20.7639103  58.6983376   4.8986988  20.0849342
  58.1890793   5.4870591  21.3831921  64.8503113  63.7389336  56.6963310
  65.0414581  63.6610718  57.6310158  65.6997986  63.9154205  56.2920341
  36.5248756   8.1269646  43.9823761  36.4433556   8.9883280  44.3918114
  36.0754509   7.5326548  44.5832443  79.7709351  66.1768646  63.7786789
  80.3407822  65.4874115  63.4378395  79.8632507  66.8951340  63.1527367
  42.4478035  69.4456100  52.0628815  42.8541298  68.9661255  51.3409195
  41.5070267  69.3491669  51.9150085  44.5874977  67.9115982  58.7498360
  45.1944656  67.4429474  58.1769638  45.0237808  68.7440491  58.9312782
   3.4341567   4.3393350  55.9514275   3.4670429   4.5441771  55.0169830
   3.6557224   3.4094369  56.0007248  86.6558762  18.2567825  41.4930725
  86.0422821  17.7316895  40.9792519  86.9980011  18.9005585  40.8727989
  83.7409439  16.6048164  31.9661179  83.4446640  16.5827789  32.8760414
  83.0924072  16.0858345  31.4904194  74.1105270  45.1376801  88.2677307
  74.3059235  44.2886314  88.6641769  74.3022614  45.0175514  87.3376617
  26.9167671  22.5887508  12.9121590  26.8879070  22.4912395  13.8639421
  26.0313091  22.3696613  12.6219902   7.7699451  34.6080894  45.9228745
   8.5540733  34.2620697  46.3490715   7.2375751  34.9493294  46.6414642
  31.4567451  54.7834282   5.0927405  30.9805756  55.6105690   5.0197620
  31.0362473  54.2078209   4.4539223   8.0032129   1.3706776  68.1450195
   8.2390642   1.9683856  68.8544922   7.8762641   0.5255215  68.5760956
  20.0637131  59.3972092  54.6375732  20.9453201  59.1135368  54.3956413
  20.1151409  59.5623016  55.5790253   2.9424319  46.6957169  87.8252182
   2.3728249  46.0633583  88.2632828   2.3823764  47.1064339  87.1665192
  28.4860153   4.4370217  41.7105751  28.7992306   4.2869916  40.8185997
  28.3547077   3.5592809  42.0691299  77.9779587  23.7794018  16.8636532
  77.9859467  23.5469723  17.7921715  78.2012329  24.7100620  16.8477898
  47.4773407  67.7565308  78.4989471  48.4275246  67.6479263  78.4591064
  47.1497879  66.9005051  78.7749252  71.3668594   4.8441520  25.3780308
  72.0370865   5.3343072  25.8542423  71.2596359   4.0358782  25.8794575
  33.1093330  49.2322884  20.9544010  33.5848541  48.7896309  20.2514305
  33.7863770  49.6980743  21.4452076  77.3118515  65.6695557  70.3527298
  77.9529800  66.1068802  69.7924423  77.5550079  64.7444077  70.3180466
  13.0326529  43.1312599  39.6436539  13.0686636  42.3805199  39.0509224
  13.9361410  43.4441147  39.6890793  78.2677917  70.9673462  86.3726349
  78.3228302  70.1260605  86.8258972  79.0166473  70.9676437  85.7764435
  76.4123917  47.1056366  71.6537170  75.8990555  46.3296013  71.4290314
  75.8134537  47.8385468  71.5110779   7.6953783  20.8036098  51.5817070
   7.1056695  21.2661610  52.1771240   7.1167116  20.2651844  51.0418243
  76.0710831  25.4895191  70.3167191  76.1873169  24.7638893  69.7033768
  75.9748688  25.0681553  71.1707840  64.1793900  22.3564835  28.6168976
  64.1946716  23.3135586  28.6190777  64.7098846  22.1067486  29.3734970
  25.1349049   0.1334245  37.3242416  24.9307842  -0.7180267  36.9374619
  25.0054626   0.7579450  36.6104813  37.0242081  58.3557968  76.4642639
  36.1277390  58.6706009  76.3482056  37.5698662  59.1295624  76.3236389
  75.7055359  16.0296497  65.6505508  76.4930878  16.3159504  65.1879196
  75.1005707  16.7673531  65.5727921  66.2407227  52.0501022  46.0092468
  65.4261780  52.5476799  45.9373131  66.0633850  51.3968887  46.6860733
  68.6314240  44.0532150  48.4338837  67.9861679  43.9277496  49.1296844
  68.1184616  44.3499794  47.6822014  60.4597397  38.0908051   8.3781080
  60.3865738  37.3086243   8.9249802  60.6004562  37.7524872   7.4938173
   8.6380701  17.7331448  14.5227861   7.9525862  17.1966095  14.1246977
   8.4943848  17.6449165  15.4650183  34.3624229  59.7326508  88.9185486
  34.8092346  59.8086815  88.0754471  33.5088272  59.3563004  88.7041550
  21.7062092   1.8968641  28.5140877  21.8783073   1.1672577  27.9188671
  21.1457062   1.5238223  29.1944618  54.7969742  29.9801083   6.6881833
  55.2342339  29.1511116   6.8826060  54.6017952  29.9342022   5.7522187
  58.3818588  38.4637985  73.3561630  59.0075188  38.0995560  73.9823456
  57.6081734  38.6675987  73.8816223  24.1130772  63.4294853  63.6986542
  23.8923054  63.8512344  62.8682213  24.3319855  62.5289497  63.4591789
  13.0575237  62.0056801   7.2072520  12.4119663  62.7093430   7.2731748
  13.9023876  62.4555664   7.2008781  74.1600647  57.6520882  43.7302780
  73.9789429  56.7855492  44.0943260  75.1022263  57.6487312  43.5612907
  26.4291992  45.0106812  81.1581192  26.7700062  44.8197098  82.0319672
  26.2186699  45.9441376  81.1818619  11.0531769   8.3903656  35.1078377
  11.2370472   9.2790937  34.8035583  11.3884268   7.8248425  34.4121208
  20.9836159  61.9179306  50.4300385  20.3574600  61.9057884  49.7061501
  20.4514408  62.1024246  51.2039757   0.7121330  16.8512917  30.8669319
   0.2871676  17.1178398  30.0517082   1.2523978  17.6024418  31.1121216
  57.5503540  64.2207260  54.9100647  57.8731956  65.1194229  54.8441467
  57.8597336  63.7958069  54.1100883   7.0698485  58.2304115  52.2257156
   6.7960362  57.4339104  51.7709160   6.6020870  58.9350166  51.7774315
  10.1891727  49.8053703  11.9362059  10.9578819  50.0915756  12.4295664
   9.5800743  50.5415421  11.9934921  50.4725304  20.4259892  32.2990379
  49.8300896  20.2996101  31.6008015  49.9547691  20.7100067  33.0523567
  21.4691467  34.6806946  28.5751286  21.8511143  35.5376167  28.3853474
  20.5931511  34.7185898  28.1911659  77.2851562  26.4128151  21.4782143
  77.8699875  25.6556549  21.5083523  76.4155807  26.0383339  21.3373528
  56.0471725  68.6372070  18.5671387  55.3573914  68.5663147  17.9072838
  56.3627167  69.5374298  18.4880085  10.9362001  23.3448124  45.2541122
  10.5295477  24.2112999  45.2461128  11.8634977  23.5138798  45.0874786
  59.3273125  57.2053032  75.3488922  59.1017838  57.2655144  76.2771988
  60.2189484  57.5494537  75.2962189  23.0519314  12.8375130  73.6354294
  22.7147942  13.7178717  73.4694824  22.7685318  12.6367064  74.5273895
  79.1580048  59.5254097  20.3069172  78.8271790  60.4139137  20.4386044
  79.4210205  59.2358284  21.1805305  19.0776901   1.3408431  69.7859497
  18.7630558   0.7928368  69.0669785  19.1435318   0.7437040  70.5311508
  11.0543919   4.4944053  76.4460678  11.7290573   4.9881625  76.9121857
  11.3375874   3.5823286  76.5104828  66.0268402  19.8932724   3.1740527
  65.2043381  19.4646168   3.4106474  65.9192657  20.7974453   3.4692352
  51.2365875  10.2530699  34.3581848  51.8331451  10.6786013  33.7423363
  51.3791466   9.3164816  34.2213974  25.4729309  61.3127289  62.0840874
  26.2836418  61.5798569  62.5172424  25.6191063  61.5107765  61.1590805
  83.3600540  41.7179260  28.3388538  82.4729843  41.9146461  28.6399155
  83.2340393  41.1723213  27.5625381   0.5255695  66.8364563   0.0719272
   1.0704376  66.0867157   0.3111647  -0.3676791  66.5571747   0.2727719
  44.3782997  70.9606628  41.8683167  43.8483543  71.3478546  41.1715584
  44.9299011  70.3187943  41.4211273  73.0711136  65.7265854   3.9413548
  73.0552902  66.6811600   3.8722343  73.4100876  65.5556641   4.8200541
  13.6212702  34.6584320  63.8575096  13.1231956  34.2522354  63.1481743
  13.0568666  34.5731010  64.6258850  19.4195747  36.0629768   7.8267169
  18.9479923  35.2381096   7.7107849  19.7810650  36.0098991   8.7114429
  28.0341244  41.9355049  80.6093597  27.6104641  42.0296173  79.7562027
  28.1828613  42.8342094  80.9033585  36.2939491  60.4124908   1.5851722
  35.5999336  59.9831963   1.0848923  35.9706879  61.3019638   1.7286191
  65.9044647  46.8101044   9.6939898  65.4050293  46.4665680  10.4347868
  66.5982895  47.3335571  10.0950270  18.5106754  38.5934753  12.9137001
  18.1295147  39.4016876  13.2568359  18.0725842  37.8960915  13.4015188
  66.1716232  47.3337173  33.0950203  66.4924316  47.0300789  33.9442024
  65.8303833  48.2111969  33.2677116  63.7578125  43.3706970  56.2856483
  62.8571739  43.0496864  56.2405472  63.8379478  43.9648857  55.5394936
  55.8652039   5.7337251  19.6931610  56.7234230   5.4889274  20.0392342
  55.4020348   6.1067772  20.4431839  52.4955711  32.9149742  28.4274311
  52.2382088  32.0356712  28.1502552  53.3315811  32.7894859  28.8763981
  21.3264217  66.0913925   8.9876156  20.4287663  65.7851028   9.1165857
  21.2567024  67.0460434   8.9919167  24.0275822  55.0295906  77.5067978
  23.5658169  54.8434525  76.6892700  24.1716614  55.9757462  77.4904251
  54.4657478  11.0390959  18.8915691  54.6202164  10.3317938  19.5177441
  53.5963173  10.8574495  18.5347385  37.0317154  71.0788498  81.2126160
  37.0884552  71.5703735  80.3932190  37.0027275  71.7509384  81.8935623
  57.1747780  48.0740356  70.2091904  56.9706268  47.7732010  71.0946579
  56.5201950  47.6490669  69.6549759  78.8096619  55.9673042  20.5009346
  78.1845932  56.2285385  19.8247147  78.5815811  55.0592384  20.7000008
  57.1122932  21.9553242  19.6784821  57.5704613  22.2941456  18.9093819
  57.8026123  21.5697327  20.2179375  55.6763649  45.7529488  64.1105423
  56.3772850  45.2113075  63.7478104  56.0010300  46.6498566  64.0306549
  18.5968361  26.0576782  81.4897614  19.2159443  26.7432404  81.2388763
  18.3388958  25.6530991  80.6614990  18.7863560  43.5195770  25.5460529
  19.0711117  42.6933975  25.1554451  18.1296864  43.2643776  26.1940422
  56.9787216   5.8985634  10.2819452  56.1794968   6.4237571  10.3224649
  56.8683395   5.3541999   9.5023842  10.4507923  49.8516235  55.7113380
   9.5890770  50.2681465  55.7250137  10.4766140  49.3820000  54.8776627
  71.3203659  54.8430519  56.3869667  72.2553024  54.7419815  56.5656052
  71.0633469  54.0154419  55.9804764  11.9127522  23.7723598  84.6794586
  11.1596079  23.1950111  84.8046570  12.4477854  23.6412582  85.4622650
  68.1430359  35.3807335   2.0662639  67.9222946  36.2419167   2.4210443
  67.5314941  35.2568054   1.3403906  86.2522202  26.4272995  40.6928673
  85.9138870  27.2565708  41.0306168  85.6119614  25.7744045  40.9757576
  63.5184364  19.0801888  17.4821072  63.9281464  18.7148132  16.6979713
  63.3004494  18.3165054  18.0164299  81.6128082  17.6504822  45.3885078
  82.4004517  17.6585464  45.9323730  80.9180298  17.3562679  45.9775314
  15.9254179  62.0203857  36.3387070  16.6636524  62.6239548  36.2553635
  15.9631462  61.4849586  35.5461617  10.6653051  19.4100628  22.8746643
  10.2557135  19.2973175  23.7324257  11.4419365  19.9420166  23.0481606
  20.9744606  22.0901814   3.0929923  21.7694073  22.6140194   2.9935808
  20.5339470  22.1602993   2.2460783  77.2428894  59.1034241  64.8583603
  76.3934402  59.5446014  64.8637314  77.3757629  58.8507309  63.9447289
  83.1971741  62.4758720  79.1025848  84.0899658  62.4311943  78.7602997
  82.7372284  61.7587090  78.6662827  30.7072144  65.6642761  24.6484222
  30.3861065  65.3792496  23.7929211  29.9794350  65.4938507  25.2463551
  64.4328156  52.9626846  37.1039963  64.4463806  52.6050606  36.2162170
  63.5817375  53.3949318  37.1751137  74.4688339  55.1190338  44.7731972
  75.0869293  55.0823326  44.0432358  74.5814819  54.2825661  45.2247086
  72.8058090  32.8596458  20.6382389  73.0459824  32.0980835  21.1660347
  73.4711609  32.8942108  19.9509659  73.9986572  63.8741798  37.7645226
  74.2314072  63.0546188  37.3281975  73.2421951  64.1990585  37.2762070
  85.9748611  50.6183891  73.2319183  86.6700363  50.7168045  72.5813293
  86.3274384  49.9947128  73.8667068  43.7439842  45.6005211  21.4669170
  43.0609360  45.6093597  22.1374416  43.9901772  46.5197372  21.3636761
  68.0703049  66.6176987  64.4494400  67.6066055  66.7974777  65.2673035
  68.1017685  65.6624603  64.3969421  21.6649342  59.8504677  18.8085594
  21.8484650  59.3939896  17.9874763  21.2387657  60.6644058  18.5400124
  84.1673126   3.1680496  23.9853840  84.9086075   2.5817897  23.8336697
  84.5324173   3.8874369  24.5005665  40.8564034   6.8426170  14.9135380
  41.4810867   7.5458288  14.7360697  40.8327370   6.3331943  14.1035004
  29.9167843  34.8689232  86.6135406  29.0526180  35.2770767  86.5600739
  30.2014999  34.7907600  85.7030182  64.0193787  12.3846159  13.4439669
  64.3360596  13.1645947  13.8995743  63.6605110  12.7169981  12.6211882
  64.2616348  55.9800529   1.1531408  64.4180908  56.1171494   2.0874631
  65.0826340  55.6142044   0.8239702  40.3355484  12.0695066  15.2347841
  39.3984032  12.2582722  15.2833595  40.3857574  11.2139530  14.8084755
  43.6841164  51.2794571  23.4755249  43.9137115  50.6932144  24.1965256
  42.7655525  51.5002403  23.6295776   2.8479071  54.3727264  71.3362350
   3.6305802  54.2981224  71.8822098   3.0724237  55.0376740  70.6853333
  49.6823196  51.4320183  60.5305367  50.4039230  51.3884659  59.9031410
  50.1090202  51.4234238  61.3873215  48.7042351  66.5482864  51.0155945
  48.2064857  67.2804565  51.3794670  49.0594978  66.0963211  51.7809372
  10.4976101  69.0715714  62.1203918  11.3613310  69.4726410  62.0236053
  10.0819979  69.5655518  62.8271370  31.4972534  44.9057159   6.3445077
  31.1030617  44.0468140   6.4965935  32.4354477  44.7295456   6.2738590
   4.6216483  47.1821213  37.7003479   4.7868733  48.0933380  37.9424438
   3.9699147  46.8805504  38.3332214   7.7969251  52.2834702  36.2245293
   8.6419878  52.6740646  36.0019608   8.0188837  51.4356842  36.6095314
  72.3703003  52.5793571  64.5978928  72.3018494  52.2164688  63.7147942
  71.7427902  53.3020897  64.6091461  21.2333813  10.6777163  57.1019325
  21.9716225  11.2793427  57.1982574  21.6357994   9.8105469  57.0538788
  76.3905411  26.6674328   5.8311849  76.0903091  27.0980072   6.6316223
  75.5862350  26.4511509   5.3594322  16.5382881  42.5696869  62.1821938
  17.0562859  43.1308212  61.6050987  15.7022142  43.0267334  62.2734108
  45.1527214  47.1007843  14.3680897  45.3611488  47.3386955  15.2715206
  45.9545631  47.2880592  13.8800163  51.9679642  54.9225349  30.2896061
  51.7001305  55.0673943  31.1970825  51.3351517  54.2890091  29.9513340
  83.7649918   8.1986208   2.8974636  83.8221817   8.9528189   2.3108232
  84.3343811   8.4237623   3.6332202  25.5597229  58.3663864   2.1646407
  25.6128960  57.5897942   1.6075906  25.7908916  59.0927315   1.5856596
  23.9976749  -0.0973139  69.7157440  23.8525791  -0.6032737  70.5152359
  24.1568356   0.7952440  70.0227280   5.8511858  55.3710823  84.2048721
   6.6410608  55.4634628  84.7376022   5.2073650  54.9817810  84.7966232
  78.0004807  26.2679119  82.1796341  77.4725189  26.3191299  81.3828583
  78.3638382  25.3824139  82.1696854  85.5052490  49.3544464   7.8501587
  84.5550995  49.4492378   7.7833867  85.6324081  48.4981766   8.2586527
  45.6384621  11.4230862  28.8510571  46.4949303  11.6281996  28.4760628
  45.1638680  12.2541513  28.8330517   5.4348683  52.2874146  23.3868980
   5.0849814  52.6936188  24.1798744   6.3825140  52.2767448  23.5213814
   6.9114308  62.6968498  64.2671051   7.5752854  62.9692535  63.6335983
   7.3130302  62.8608665  65.1203613  54.0236816   6.9996257  63.9811401
  53.1408043   6.6306939  64.0066681  53.9850960   7.6659007  63.2949753
  27.6297951  65.0765457  48.5571594  26.6777267  64.9959030  48.4997559
  27.9122925  65.2265244  47.6549797  83.8768692  20.2863464  23.0763741
  83.9025421  20.8469982  23.8517723  84.1331863  20.8620930  22.3559246
  84.9394684  35.0215797  12.9749088  84.0952072  35.0847092  13.4215183
  85.3679276  35.8587608  13.1531868  45.5062485  35.7983093  68.6970139
  46.0378113  36.4875946  68.2988205  44.8430595  35.5959244  68.0371246
  75.2740631  71.8114700  33.6530457  75.3484497  71.7420578  34.6048241
  75.3711853  70.9124756  33.3390198  38.4811478  26.4683495  23.5096874
  37.9518013  26.2526894  24.2774849  38.9688911  27.2507000  23.7671070
  72.0308304  62.5507355  86.9085312  72.7275085  62.6936836  86.2678757
  71.2362671  62.8555107  86.4703369  60.1842766  56.1072693  14.7010374
  59.3526726  55.6641083  14.8691902  60.1750870  56.8641548  15.2869339
   8.9711285  67.5955200  81.4950104   8.4439669  67.0276337  82.0570068
   9.5221958  66.9931488  80.9953003  44.5045929   9.4207535  74.7982178
  43.6504021   9.0438166  74.5872421  45.1310043   8.7295160  74.5836716
  83.6076889  68.1917419  39.0152321  83.8654327  67.3523636  39.3963432
  82.6548462  68.1386185  38.9410744  73.3408127  44.0948792  70.6090088
  72.9652557  43.2963257  70.9798203  73.2102127  44.0050545  69.6650238
  29.8513145   1.8950232   4.1928949  29.7084312   1.9708885   3.2494648
  29.8549137   0.9524516   4.3595614  31.8516254  15.1285343  73.5946960
  31.0032158  15.2593422  74.0181580  32.4745407  15.0707283  74.3191681
  75.4105759  16.7963772  78.0519257  74.9200745  15.9840546  77.9263458
  75.5007782  17.1602974  77.1712112  76.7180862  34.9065552  66.3307648
  77.2539673  35.5785522  65.9094772  77.2653046  34.5754852  67.0429230
  47.0840302  33.6170921   3.2969365  47.1777191  33.6973915   4.2461500
  47.7691383  32.9999657   3.0399971  76.7368927   4.2284799  38.5285263
  75.9779739   3.8714230  38.9898148  77.4323120   3.5884798  38.6802597
  83.8597717  57.2351265  81.0026474  84.8079224  57.1055832  81.0240402
  83.4954224  56.3643875  81.1616745  77.0046082  18.7962513  40.1837463
  76.8424149  19.7340527  40.2859917  77.9319305  18.7372265  39.9539070
  19.1437378  36.2736549  87.8223267  18.6898079  36.6835060  87.0859833
  20.0627975  36.5112152  87.6993332   1.3965230  28.0198250  60.7347717
   2.2401745  28.4694290  60.6864014   1.2536510  27.8786831  61.6706657
   5.4770460  41.7311020  84.7613525   5.7173266  40.8058357  84.7125473
   4.5860157  41.7658424  84.4133759  25.3346291  27.5501461  53.2566566
  24.5785046  27.2296715  52.7649193  24.9972820  27.7086449  54.1383095
  36.4726448  33.0638618  83.8128281  36.7536697  33.6046371  83.0747070
  37.2687950  32.9270439  84.3263092  16.3136749  24.7165260  64.3715820
  16.0576057  25.3641014  65.0283203  16.7486153  24.0264893  64.8724899
  57.1864624   9.8575468  62.5282364  57.4436760   9.5942221  63.4118271
  57.6014061  10.7108889  62.4022903  20.2753048   7.9789548  28.7687225
  20.2947845   7.0615458  28.4963017  20.2963314   7.9453082  29.7250996
  22.1645870  17.6150360  67.3852463  21.6294498  18.0972595  68.0155792
  22.9217224  17.3191757  67.8906631  21.6257782  28.7066708  19.1132870
  21.1360226  29.1610832  19.7987652  22.3806038  29.2705231  18.9443512
  21.3805275  13.7441587  17.4170418  22.1452236  14.1610508  17.0199604
  20.8123245  14.4732533  17.6656361  51.4780312  50.0519371  81.7784271
  51.2695923  50.6856995  81.0920410  51.2265511  49.2060165  81.4077377
  53.8610229   9.1123104   8.2468758  53.0681572   9.6447983   8.3105097
  53.9752617   8.9640427   7.3081536   9.1135130  50.0869598  22.9755783
   8.6408157  50.8456116  23.3179779   9.5109415  50.3992615  22.1627121
  83.9300308  50.8155441  22.9238167  84.8824768  50.7341805  22.9733677
  83.7112350  51.4737625  23.5834427  16.6069450  30.7556324  70.8498764
  17.1109810  31.4054832  71.3396454  17.1967068  30.0059986  70.7694855
  82.2133560  58.5778465  48.3838806  82.7502213  59.0298424  49.0348091
  81.6929016  57.9561310  48.8926353  35.6992378   6.6418939  25.8198452
  35.7363052   6.4818416  26.7628422  35.3759766   7.5394678  25.7417755
  15.0434752  17.1203690  28.4629059  15.9061289  17.3424740  28.8132305
  14.8737812  16.2358761  28.7871094   1.0025172   8.4858799  15.7805185
   1.3500407   9.1194954  15.1528330   0.2125075   8.1432600  15.3625145
  62.4871941  69.6550140  37.3619576  62.5034981  70.6027298  37.2285271
  61.8969116  69.3277054  36.6832352  40.4673920  67.2918472  80.4734421
  39.5216560  67.3899002  80.5838852  40.7445908  66.7751236  81.2300110
  21.0702000  49.5141525  21.3297749  21.9730625  49.1964836  21.3171825
  21.0251617  50.0772095  22.1025429  84.8360443  51.4550438  48.5911331
  84.2634888  52.0996590  48.1753502  85.6899948  51.5936813  48.1815224
  18.7917023  67.8155746  65.6664581  19.0950603  68.6162109  65.2384567
  19.3157501  67.7577515  66.4653702  23.8614159  37.5561142  21.2499199
  23.2488174  38.2068253  21.5927486  24.7190113  37.9760017  21.3166409
  72.9044418  35.8543015  11.6860981  73.7028427  35.6189499  12.1587505
  72.8732986  35.2436943  10.9496078  26.7372799  30.2267246   8.6324606
  27.0235996  30.7959023   7.9181156  26.8041115  29.3413887   8.2747641
   8.5143375  28.8287964  77.0862579   9.3588028  29.1553631  76.7756729
   7.9585252  28.8228931  76.3069763   5.8830872  32.9638443  27.8004150
   6.3118706  32.1118011  27.8803883   5.3366327  32.8845329  27.0185394
  36.6881752  58.6867256  19.1893044  35.8702469  58.5619049  18.7080135
  36.4136658  58.8297081  20.0950813  49.5574837  25.2357254  78.2615738
  49.4301720  24.8831978  77.3808060  48.7406883  25.0371189  78.7194290
  57.8595276  35.4479485  31.6096344  56.9251938  35.2399902  31.6120377
  58.1562920  35.2272606  32.4925041  58.6968193  17.1720619  21.5155125
  58.6805534  16.2183914  21.4350281  59.3907089  17.4510441  20.9180889
   2.1806846  54.7139969  67.7817230   1.2808236  54.4871902  67.5471115
   2.6963015  53.9518776  67.5179977  14.5232515  56.6138649  79.2906265
  13.9795055  56.8355789  78.5347061  14.0707312  55.8784676  79.7037201
  86.0533905  64.9012527   2.9575393  85.2646255  64.5891495   3.4010141
  86.5184784  64.1032944   2.7061918  30.1572800   4.6139889  -0.0649543
  30.0994682   3.7867815   0.4131859  31.0844707   4.8486423  -0.0263674
   1.5895462  17.6281338  26.9854565   1.2973396  18.4494038  27.3808842
   0.8113115  17.0708408  26.9880409  77.4798813  24.8978806   7.6978412
  78.1248932  25.2419834   8.3157263  77.3415070  25.6107674   7.0742412
  40.3739090  48.1569633  85.3174438  39.9958229  47.9730339  84.4575348
  39.6910629  48.6423073  85.7804794  55.0120354  10.2232895  10.3744583
  54.7135468  11.1154394  10.1978111  54.5539742   9.6852160   9.7287874
  75.7408600  16.8316746  84.9259415  75.0734406  16.2171230  85.2310867
  75.5533218  17.6428776  85.3981857  21.5404415  36.6419563  80.3664169
  21.7351341  35.8956223  80.9332657  22.3940811  37.0368652  80.1887207
  58.4917107  29.1589069  36.5943108  58.2956276  29.8840923  37.1875153
  59.1862869  28.6697750  37.0353813  29.5068989  17.5755901  34.5052414
  30.3457432  17.8806419  34.1595306  29.4319210  17.9992485  35.3603020
  66.7365952  66.5596619  80.3571472  66.5883179  66.4966278  79.4136047
  65.9833221  66.1169586  80.7480850  37.0909004  21.3026886  34.6894569
  37.7524872  21.8794575  35.0713882  36.3810310  21.2942886  35.3315201
  16.7333107   1.9319311  82.1113205  16.2688465   2.4886944  82.7362366
  16.1117001   1.8063427  81.3943405  78.8767319  15.0967054  45.9295731
  79.4849625  14.3577118  45.9428902  78.1867676  14.8501635  46.5455246
  82.3424072  13.8534641  45.7329063  81.4822693  13.4349689  45.7684288
  82.7028198  13.7351160  46.6117287  29.0104179  62.9308853  69.5578384
  29.1247196  63.8421898  69.2882309  28.7951145  62.4669495  68.7487335
  13.4559145  23.0584812  25.2058640  12.7256365  23.5449600  25.5883102
  13.0467491  22.4763260  24.5656223  43.8978424  59.8718910  68.2754440
  43.0474281  59.9458694  68.7085190  43.7636795  59.2117805  67.5953827
  72.9672012  48.4295769  86.2869263  72.5483093  48.7570114  85.4909744
  72.9976501  47.4802322  86.1683960  13.8077030  36.4784889  73.0480957
  14.6390314  36.8643990  73.3241348  14.0357285  35.9302177  72.2973404
  12.4970312   2.5185461  25.8933353  12.4018641   3.0200131  25.0835781
  12.4650564   3.1765914  26.5877304  66.9719162  31.4322739  20.2063141
  67.1051865  32.0863838  20.8923225  66.0978775  31.0811844  20.3766918
  18.0862446  60.9584084  43.6918564  18.8807793  60.6618423  44.1356964
  18.0033321  60.3775215  42.9356003  29.9140663  47.2070580  87.4864120
  30.2449226  48.0730476  87.7247849  29.5992432  46.8357353  88.3105698
  86.3998108  58.1304817  84.1152496  85.7149048  58.7939224  84.0317154
  86.2835770  57.7759171  84.9967270  52.4916115   8.0735474  81.2567825
  51.6339798   8.4968815  81.2953415  52.5537109   7.5831423  82.0764694
   4.8302536  70.6007996  36.9688492   4.5981598  70.6689835  37.8949776
   4.0602398  70.9285355  36.5042038  41.1898918   2.2047176  66.9814453
  41.4302711   2.1721051  66.0554962  41.5245514   3.0481348  67.2862091
   9.3870811  38.4260330  76.8902206   8.6400843  37.8297157  76.8389435
   9.6498241  38.5596657  75.9795380  65.6609192  36.4425354  45.6110306
  66.5682983  36.1469612  45.5366669  65.4447250  36.3218536  46.5356522
  82.2500763  53.3931160  37.0151901  82.3071899  52.4389458  36.9649200
  81.3271179  53.5684853  37.1985321  52.9050064  19.8120422  84.0397644
  53.5021286  20.0282440  83.3235626  53.1507034  18.9232216  84.2964020
  80.0207748  40.6399460  16.3998013  80.4375381  40.9631996  17.1985817
  79.2190552  40.2141418  16.7033958  29.6392155  59.1595268   3.1708536
  29.0070744  59.4798775   2.5274231  29.3992748  59.6037598   3.9840689
  76.5959320  68.8615417  54.3752022  76.3040009  68.7891159  53.4664879
  76.0298538  69.5330429  54.7558250  80.6744080  18.5835686  42.8182144
  81.0880585  18.4151497  43.6648293  80.4406509  17.7156982  42.4889832
  49.0831833  64.6247101  21.1587734  48.7008209  64.3306122  21.9855366
  48.5799904  65.4051056  20.9263649  39.5215530  52.7570419   6.7831855
  39.1333923  53.5821686   6.4921107  39.0437660  52.0836182   6.2989831
  55.2127342  34.2589264  32.3466415  54.3920822  34.7420616  32.2499733
  55.0798416  33.4574051  31.8405457  85.9213104  31.2854900  66.4096909
  86.4155426  32.0488052  66.1108322  85.0561752  31.6312675  66.6292648
  53.4649696  45.8337898   6.6058326  52.5691376  45.5004807   6.5545950
  53.7917709  45.7813492   5.7076774   7.7861362   3.9486103  15.9999819
   7.8246746   4.8967404  15.8743019   8.1679268   3.5853670  15.2009058
  76.5389938  42.5363235  24.7176952  76.0841751  42.1198692  25.4497757
  76.9944839  43.2807045  25.1109638  35.3254089  60.2081757  14.1750431
  35.6390495  59.8276558  14.9954500  34.9067307  61.0284157  14.4360971
  58.2127571  15.4358549  81.4999466  58.0283241  15.6438417  80.5839996
  57.7253418  16.0924473  81.9974823  55.0826263   9.5647621  31.7204323
  54.8357964   8.6691875  31.4896698  55.9069443   9.7129736  31.2570019
  39.7069626  17.2512665  83.4056702  39.6954079  17.2109451  84.3619537
  40.5312195  17.6896629  83.1943741  14.3655920  27.6917267  19.5789738
  14.1780310  26.8184662  19.9231625  14.4906998  27.5571346  18.6395779
  48.6738815  35.2505646  21.7497234  48.3135185  36.1207352  21.5789280
  49.3101768  35.3883324  22.4514198   3.4358513  28.4363918  79.9492645
   3.2243388  27.9988098  79.1246338   3.9262342  27.7830639  80.4481888
  59.6463928  31.0794811  69.8687973  59.2818565  31.7755508  69.3221359
  59.0937920  31.0745182  70.6503601  70.2471466  47.5336952  33.3247490
  70.3744049  46.7364960  33.8390617  71.0233994  48.0630913  33.5075035
  51.4949112  10.9401178  60.8524628  50.6877174  11.3309050  60.5178642
  52.1829987  11.5531120  60.5936127  77.2135239  69.1595612  35.8768196
  77.3653564  69.4911041  36.7618408  76.2876053  69.3362427  35.7104340
  42.3456383  47.4626312  18.9179707  41.8020439  48.1337662  18.5052776
  43.2264557  47.8372917  18.9225731  72.1905060  29.7224884  87.6727219
  72.1082840  28.7865734  87.4895935  72.0138168  30.1472111  86.8332977
  40.5538254  44.3070602  80.2312851  41.2893410  43.8075142  80.5858383
  40.7936821  44.4719543  79.3194122  24.5204811  48.4467659  86.0830841
  24.1396618  49.0824890  86.6889420  25.4588223  48.6353493  86.0966034
   0.8780282  70.5845795  66.1889572   0.0659498  71.0856247  66.2645645
   0.8843294  70.2738419  65.2836227  29.5869045   8.2114983  78.4036484
  29.9813557   7.3640985  78.1973648  30.3318901   8.7852440  78.5826645
  73.2345963  13.5965805   1.2810162  73.1801529  14.1927958   0.5341593
  72.4357681  13.7650824   1.7807311  44.0459404  71.4692993  80.0314102
  44.6435547  72.0580063  79.5704193  44.4925613  70.6226959  80.0265579
  84.4216232   6.7516522  78.7124634  85.0605011   7.1731911  79.2872391
  83.7727509   6.3780751  79.3088150  19.5907707  53.2647400  28.0678120
  19.9413986  52.4707603  27.6642170  20.1656933  53.4272308  28.8156700
  62.9934349  33.8393478   8.6580153  63.0273514  34.0308266   9.5952539
  63.6882095  33.1956024   8.5197792  49.0927849   8.0541210  24.8725300
  48.6920967   7.9069428  24.0157795  50.0269737   7.9024572  24.7292747
  73.7494125  55.6306953  87.9483032  73.1927948  56.4093704  87.9395447
  74.3009415  55.7392273  88.7230682  43.9090271  40.3447571  10.7328634
  43.0603142  40.6889915  10.4546165  44.3417740  41.0868950  11.1549883
  23.1724548  69.1594543  57.1031990  22.5299263  69.6387253  56.5800438
  24.0200806  69.4494553  56.7660561  37.7635651  36.7793465  21.6263256
  37.1859703  36.0211601  21.7144661  37.2405014  37.4249649  21.1511288
  78.4860916  56.5767174  52.1984940  78.2825470  57.5079155  52.2860832
  78.4810715  56.2449684  53.0963554  45.5731583  68.1667252  17.0570564
  45.3632050  69.0709991  17.2903767  44.8960152  67.6448822  17.4876213
  31.3059120   2.5245867  16.9373226  30.8811531   3.0144882  16.2331848
  31.4443436   1.6509244  16.5715580   2.2682695  14.4884949  54.5282402
   1.3388412  14.5138645  54.3007545   2.4420278  13.5676584  54.7234306
   7.9017959  33.1071892   2.6011240   8.7187634  33.2936516   2.1384928
   7.2162356  33.4290543   2.0157683  72.1526871  60.4897423  17.7747650
  72.7102585  60.4239693  18.5500202  72.7118530  60.8937149  17.1111603
  40.3535995  10.2763529  27.7429352  40.5076256   9.3318710  27.7644062
  39.4946365  10.3882685  28.1502323  69.3698273  59.1148491  66.6312485
  69.5719452  58.9108734  67.5443649  68.4153061  59.1819267  66.6064453
  63.2757492   4.2588735  41.7990150  63.2390327   3.5137603  42.3987579
  63.3855553   3.8646572  40.9337006  13.3506269  34.8666992  37.3027840
  13.2743263  33.9132004  37.2674904  13.3993015  35.1371841  36.3858871
  73.3255997  46.0153008  57.7651672  73.6542053  45.2183800  58.1813011
  72.3739014  45.9128876  57.7696266   1.8798895  15.0789261   6.7471571
   1.4197334  14.3558483   7.1733570   2.5737805  15.3168592   7.3620839
  73.4101562  52.6866798  13.2986832  73.0447845  53.5455017  13.5111923
  74.1049881  52.8716774  12.6668491  18.8718872  50.7486572  12.2296600
  18.5963154  51.4281540  12.8449450  18.2641373  50.0253563  12.3836403
  11.0368910  12.9418802  57.8438683  10.3958416  12.4252863  58.3321495
  10.9319105  13.8324366  58.1787109   7.5364857  54.1167145  39.3356400
   7.6845536  53.4429359  39.9992142   7.3349533  54.9066696  39.8372231
   0.3205890  42.1970253  44.2776718   0.3967650  41.5571213  44.9854507
   0.1879584  41.6688347  43.4904900  19.2288017   2.6930709  14.7635813
  20.0509472   2.3515117  14.4119453  19.1686687   3.5813770  14.4121170
  83.9244766  16.4165363  49.7057152  83.4051208  17.1041431  50.1224823
  83.7741547  15.6415100  50.2469826  64.3022079  47.5355911  79.8853531
  64.7257080  46.7495232  80.2302856  63.3778419  47.4274483  80.1091461
  12.4714193  21.6027603  80.5432129  12.4048700  20.6971302  80.8459244
  11.8199053  22.0765858  81.0601730  86.1370697  66.4176712  37.0939941
  85.3958282  65.8408203  36.9094849  86.0629425  66.6114731  38.0284348
  70.3822784   8.2097454  70.4879303  69.8810349   8.4700527  69.7151337
  70.1674118   7.2853398  70.6125870  12.0950184  47.3469315  74.0240631
  11.2780161  46.8875618  74.2182770  12.4212542  46.9288826  73.2271729
   4.4786448  53.5465508  25.5465565   4.8882532  54.4103317  25.4982147
   3.7417169  53.6641388  26.1460075  37.4569016   5.7051921  16.7653675
  37.1905479   6.3722925  16.1327038  38.3999481   5.8341455  16.8666878
  60.3838844  35.2087135  63.5186996  61.2816200  34.9287567  63.6973801
  60.1415482  34.7405930  62.7197189  86.2155380   4.6556368   0.4082769
  86.3901215   3.7372494   0.6139885  86.9694595   4.9318695  -0.1128101
   6.7709923  36.8537025  23.2277813   6.0110464  37.4166985  23.3752632
   6.4152565  35.9650764  23.2324791  33.5182610   8.2678680  63.4536743
  33.5569267   8.8214436  64.2336044  32.8512573   8.6770287  62.9023781
  16.7332287  69.7323074  73.1487427  16.5497437  70.6612930  73.2885513
  15.9657135  69.4044647  72.6800461  37.6814995   2.5864835   3.6387467
  37.1871376   1.8840412   3.2163563  37.0326462   3.0523477   4.1661863
  84.9180069  29.9214020  21.8626232  85.4054718  29.2360229  21.4056053
  84.2802200  29.4468002  22.3957329  41.0955849  12.7141085  83.0083694
  40.7615662  13.4935637  82.5643921  41.7696190  12.3737431  82.4200974
  36.1966591  31.5780010  13.4881334  35.3703957  32.0160904  13.2841787
  36.8675766  32.2369576  13.3095922  68.6539001  55.0881729  41.7111549
  68.9951477  54.2082596  41.5513458  68.2364731  55.3366318  40.8863792
  73.3404236  47.0941505  15.5929508  73.7862930  47.1338654  14.7468700
  72.4943161  47.5139732  15.4377422  59.3136444  59.4085808   5.3084240
  58.8459778  60.2437592   5.3068185  58.9207916  58.9154816   6.0286670
  81.0374908  26.4167118  61.4403877  81.4984360  26.5411987  60.6107712
  80.3649292  25.7642040  61.2451401  37.4405899  61.2585220  30.3217964
  37.0324631  60.9826164  31.1424923  37.3874817  62.2141228  30.3372955
  56.9748840  26.3982658  80.2600403  57.8118935  26.5263004  80.7064133
  56.7854233  25.4663506  80.3689957  80.8278732  30.5326252  87.4772949
  80.1880417  29.8659801  87.2274323  80.4033813  31.0190735  88.1839828
  21.0220375  61.8842888  86.5917053  21.6234436  61.6929054  87.3113632
  21.0694962  62.8344688  86.4861679  47.2231026  54.7173653  73.2532806
  47.7112312  55.2746887  72.6471786  46.6710930  55.3249130  73.7456284
  53.7252350   9.1412315  85.8238373  53.4621582   8.4301977  85.2395020
  54.2881889   8.7210360  86.4740295  79.6171722  19.2691956  31.3639526
  78.7976379  19.7248631  31.5562210  80.2758713  19.9630947  31.3346977
  84.3468323  59.7946701  84.1784821  84.5918427  60.6966133  83.9718475
  83.6864014  59.5697479  83.5231323   2.9427369  37.1220589  43.1477699
   2.6499598  37.3482933  44.0305672   3.5266471  37.8382874  42.8981743
  14.9081182  10.6670485  15.6494207  15.4675913  10.6045904  16.4235802
  15.3675976  11.2750788  15.0702753  86.4436340  51.8150253  64.8099136
  85.8414307  52.4889793  65.1251373  87.1795731  52.3043900  64.4422760
  32.3790970  60.1600914  68.4511871  32.1511383  60.9465332  67.9554291
  32.9878235  60.4682388  69.1225510  81.1111679  39.2587280  14.4511070
  80.5399170  38.4952850  14.5351019  80.8494568  39.8339500  15.1700354
  40.3296051  15.1458578  77.8510742  40.4073448  14.5761414  77.0858231
  39.7722511  15.8665533  77.5575027  75.3994293  37.2861176  59.7320213
  75.2651062  36.4705086  59.2493553  76.2276077  37.6293411  59.3965492
  42.7576218  35.6770859  27.5461693  43.5278091  36.0178032  27.0912457
  43.0059814  35.6770706  28.4705887  40.2289085  51.5141373  41.5057182
  39.7713547  51.1891556  40.7303085  39.6866608  52.2386055  41.8177223
  21.5919685  50.0294151  24.4874668  22.4610863  50.3307495  24.2227707
  21.6410770  49.0752869  24.4286423  22.7775803  40.8830605  30.1905689
  22.2834377  41.4620438  29.6101990  22.7663517  40.0342140  29.7483368
  62.2157211  43.3591728  31.2031498  62.6710243  42.6210060  30.7981224
  62.1423569  44.0083580  30.5035744  39.1162224  67.1399155  76.6065445
  38.4415207  67.4879074  77.1895599  39.8897324  67.6729736  76.7902908
  38.4767952  21.8871937  38.9814415  37.5400009  21.8705158  38.7855568
  38.8335381  21.1344948  38.5098343  18.2185001  69.8391495  12.3705349
  18.9912090  70.1020660  11.8705101  17.6723614  70.6247711  12.3981543
  69.4639969   4.8686676  44.1046944  69.2084427   4.1619573  44.6975555
  69.9676590   4.4337435  43.4166565  63.0546494  40.0277901  11.2210712
  64.0031204  39.9058189  11.2630558  62.7113190  39.4808388  11.9276161
  85.3534775  36.7838707  84.5233078  85.7904129  35.9443588  84.3799744
  85.7493820  37.3726997  83.8808365  64.3949966  21.5639000  52.3039246
  63.9324799  20.8803482  51.8190842  65.0201187  21.0883007  52.8509636
  21.4025745  65.8544083  25.0474434  22.0831699  65.2457123  24.7601929
  21.7820168  66.7218170  24.9065266  85.3556747  40.2116432  74.8291626
  84.5188522  40.6562424  74.9643784  85.7169342  40.6158676  74.0402832
   1.0633830   3.5735791  30.9571056   1.6500243   3.3048377  30.2500973
   1.6390786   3.6985657  31.7115498  83.1417160  39.6375313  30.1497231
  82.8585129  40.0400848  30.9706879  83.6764297  40.3087845  29.7257748
  55.6330872  34.3369408  68.6324921  56.0030556  34.7467194  67.8505478
  56.3381500  34.3742104  69.2788086  55.9755821  43.0124855  13.0037470
  55.4605484  42.6337700  13.7161722  55.8605728  43.9577293  13.1012774
  64.9999771  61.0330772  88.6775513  65.0806427  60.3699989  89.3631516
  65.8755646  61.0897865  88.2949829  62.3472099  60.1289635  23.9381428
  62.1689644  59.3434181  23.4210587  61.8326721  60.0118828  24.7367535
  72.0537720  27.4870911  85.6528397  72.3664780  26.6737347  86.0489502
  72.8021469  27.8132935  85.1530762  13.9425678  25.2037697  39.1477165
  13.9244680  24.4840469  39.7785149  13.2230225  25.7753067  39.4157333
  55.5545235  61.9995842  76.2410812  56.0573769  61.2805367  75.8585358
  56.2135811  62.6493340  76.4854202   7.2811561  25.8556118   9.6747417
   7.8596025  26.0838394   8.9470444   6.4089894  26.1154060   9.3779860
  43.0592766  15.6026440  11.9376564  43.8769073  15.3021469  12.3344040
  42.4070816  14.9602566  12.2173252  35.6884956  40.3375969  13.2281456
  34.7577858  40.5001335  13.0745335  36.1357765  40.8563995  12.5595512
  25.1979675  47.4432449  23.3323555  25.0099525  47.0317001  24.1758671
  26.1332722  47.6438446  23.3669090  41.2819138  11.8777294  29.6824455
  41.1975784  11.2445574  28.9695549  41.5378113  12.6924915  29.2501144
  48.9902496  50.9008675  19.8759594  49.2900581  51.3654099  20.6573353
  49.6741180  51.0601845  19.2254429  44.8258858  12.2316904  10.7250175
  43.8974152  12.4081221  10.8768301  44.9689903  11.3626957  11.0999861
  77.9016724  58.5327530  28.0778103  77.2330017  58.9400978  27.5271912
  77.7653732  58.9168968  28.9438877  62.9679031  32.0720367  76.6277695
  62.3606720  32.0160103  77.3655777  62.6295128  31.4428043  75.9907532
  40.8014717  28.6980915  22.3152847  40.1070175  28.1992970  21.8849716
  40.5299110  28.7449875  23.2319565  38.7238045  18.6238174   6.6182618
  38.7735329  18.1926594   7.4714098  39.2846413  18.0958157   6.0500102
  44.8032455   5.8681002   7.0998545  44.9806213   6.7175055   6.6957760
  44.2754021   6.0752769   7.8710175  27.0018082  67.1611633  40.5343819
  26.6136417  68.0286179  40.4200439  26.6925201  66.8716049  41.3927116
   7.1402946  47.8459091  11.6681519   7.8136930  47.6574745  12.3218021
   7.1981535  47.1188850  11.0482187  33.3881111  51.9008598  15.3996544
  33.6796303  52.7317963  15.0244274  32.9088364  52.1499481  16.1898975
  70.2566681  19.4020939  83.6760330  70.7243271  18.7730160  83.1266785
  70.7110825  20.2318134  83.5300674  40.1722069  31.2825546  28.6509972
  39.9393501  30.4018059  28.3572445  40.9894524  31.1652508  29.1353340
  74.7936020   2.5762281   2.6109924  75.7319336   2.6634548   2.4432049
  74.4495163   2.1448660   1.8288404  84.6920013  65.7781525  88.9998322
  84.5615082  66.3781281  88.2655029  83.9104385  65.8887329  89.5412750
  54.0531998  60.3485260  72.9898605  53.1637650  60.3858223  73.3416367
  53.9451942  60.4927101  72.0497665  69.6481552  65.4859009  69.3509369
  69.1743164  64.8289185  68.8409576  70.1772232  65.9544296  68.7053375
  79.4041519  62.4263649  77.1624527  80.3175125  62.6853714  77.2845917
  79.4397812  61.4794884  77.0268707  53.9109039   1.2961498  23.8131008
  53.0024757   1.5787731  23.9185162  54.3586159   1.6348549  24.5883846
  70.7714005  30.7242622  40.5439873  70.5507278  29.8173809  40.3316078
  70.1177826  31.2453270  40.0776100  74.5597992  34.3907852  71.5742035
  75.4212646  34.0588188  71.3214111  74.5983200  35.3277054  71.3820190
  31.0622406   3.0035331   9.6307278  31.8974285   2.7003560   9.2746716
  31.1529007   2.8973503  10.5776901  25.4361134  47.5613403  81.2093048
  25.0347462  48.2040634  81.7941513  25.0473404  47.7408447  80.3532333
  80.8663330  15.8569984  80.4160156  81.3515167  15.1925068  79.9268570
  80.5715256  16.4774666  79.7494278  65.6795120  45.9811707  64.9110565
  65.4924393  45.0558929  65.0694733  66.6083908  46.0771408  65.1213226
  58.8397865  17.2401829  30.2416916  58.5557594  16.4410591  29.7978897
  59.7721710  17.3095951  30.0365715  81.5302505  64.8931656  54.7943726
  81.7101440  64.0299683  54.4218788  82.3834229  65.2074127  55.0936661
  67.6363297  22.1537590  37.0846863  67.2618332  23.0286217  36.9817467
  68.5470886  22.3108864  37.3338127   8.2862940  58.2874603  14.5231924
   7.5497437  58.8793793  14.3703613   8.1432104  57.5644150  13.9124832
  71.2084656  52.5522461  25.0651894  70.8189926  53.2814598  25.5476761
  71.4392014  51.9142876  25.7404671  12.6163769  34.7574730  66.7835541
  13.0862455  34.9020653  67.6048660  11.6914806  34.7868195  67.0283813
  33.2604713  57.8134575  16.1930370  32.7005692  58.5153465  15.8612309
  33.8738785  57.6387291  15.4792891  18.7169113  28.0914288  24.8780613
  19.5629616  28.0146370  24.4370041  18.6793346  27.3309784  25.4581795
  50.1974754  26.0980167  15.8544626  49.4298439  25.5781727  15.6162796
  50.4472618  26.5415897  15.0438566  81.0123520   7.2590871   0.0618279
  81.9455109   7.1650472   0.2531351  80.6483459   7.6749067   0.8433823
  19.3464737  15.1893034   1.5003797  19.5493793  14.9779949   0.5891116
  19.0905704  14.3527918   1.8889583  44.9635086  25.0151920  22.8643131
  44.1926765  25.5030231  22.5743656  45.3242035  25.5399513  23.5789871
  30.9644852   2.4021297  78.2170639  31.5584106   3.0979209  77.9353561
  30.9449272   1.7911168  77.4805069  82.0726013  26.0284710  52.5670013
  82.7764511  26.2550888  51.9591560  82.5156403  25.8829479  53.4029274
  39.5600014  66.5339813  23.6119251  39.9718208  67.0356827  22.9084167
  39.6986618  65.6192017  23.3666000  57.2166786  50.9817734  25.3650074
  57.8525009  51.0125961  24.6501579  56.4930115  50.4591103  25.0195179
   7.3982177  69.9808044  69.6608429   8.1342239  70.0775299  69.0565491
   7.7283764  69.4044876  70.3501129   2.3370826   7.4507537  39.3658142
   1.4680938   7.0610237  39.2698936   2.5772138   7.7216702  38.4797134
  83.6269684  32.1577072  22.5277576  84.2735977  31.7510262  21.9509487
  83.7579727  33.0984154  22.4088364   5.0007977  33.2529221  81.5592194
   5.5273733  34.0220909  81.7767792   5.6247554  32.5270424  81.5615311
  75.3772964  60.5072556   8.4549541  76.1349716  61.0207901   8.1748657
  74.6269531  60.9542809   8.0633125  27.9278126  32.1824265   2.3887875
  28.3235569  32.8403130   1.8171195  27.3172207  31.7097225   1.8231388
  41.7382507  56.8185463  23.1369514  42.1011047  56.5077782  22.3074989
  41.3543358  57.6697502  22.9264870  25.3138752  30.4341850  59.3362122
  24.6526394  30.1271152  59.9564590  25.2650108  29.8149586  58.6079254
  58.9761734  32.5952415  35.3902664  59.3774681  32.0133514  34.7448235
  58.2158203  32.1098175  35.7103539   8.7609978  62.1941109  25.2675152
   9.5652914  62.5728836  24.9127235   8.2429256  62.9494209  25.5456181
  49.6158409  54.4141960  74.3357086  48.6781921  54.2390442  74.2558746
  49.8967590  54.6251259  73.4452972  16.4656105   7.8218975  73.3330002
  15.7101040   8.2534552  73.7320023  17.1349735   7.8299012  74.0171967
   3.5676684  50.4446564  25.5349960   4.4348836  50.0395088  25.5300884
   3.7233613  51.3401451  25.8351440  83.3816910  45.1852570  78.8815460
  83.4854965  44.4937439  79.5352020  84.2729645  45.4905510  78.7122574
   4.7561779  52.9779167  84.3261108   3.9545586  53.4434128  84.5647583
   4.6888571  52.1373062  84.7789612  72.4236984  58.2474632  50.3044472
  72.3475189  59.2006454  50.3476753  73.3269958  58.0673180  50.5648994
  16.7025585   9.5756559  87.3178635  17.0690269   9.0502977  86.6065750
  15.7960682   9.2776232  87.3932648  41.0124741  58.9774132  66.2688904
  40.5309029  58.8301544  65.4548645  40.4208183  59.5053520  66.8050385
  16.8914318  66.3488312  54.8905754  17.2355003  66.1495590  54.0198631
  15.9985962  66.0039139  54.8800049  69.8971252  32.1231804  46.8759117
  70.2077179  32.1309357  47.7812881  68.9891052  31.8264904  46.9367294
   9.6760788  10.7771645  87.9768295   9.3613119  10.1069317  88.5834122
  10.1122656  11.4202423  88.5357742  43.9014893  36.1920586   1.5438970
  43.5914993  36.5250359   0.7017182  44.8504639  36.1229553   1.4395002
  77.4718018   3.0794482   2.0555606  77.7065659   3.5665412   2.8454070
  78.2853241   3.0307600   1.5535229  46.8340912   6.4467630  55.8645248
  47.6913567   6.7764177  56.1340790  46.2644730   7.2157512  55.8851204
  67.4751205  33.2423897  65.7626114  67.8642502  32.4021111  66.0049896
  67.3194351  33.1714668  64.8208237  34.1467705  49.6021881  16.5696068
  33.4704475  48.9687538  16.3296528  33.8679962  50.4187546  16.1552048
  84.2529984  34.8868027  76.6068954  84.5126343  34.5285072  75.7581100
  83.4047165  35.2990570  76.4434967  42.3794365  33.8704109   0.4678392
  42.3484840  32.9750824   0.1307050  43.2728157  34.1632919   0.2880368
  33.2529907  55.1680984  18.6632328  33.4242973  55.9273186  19.2204304
  32.3180237  55.2222786  18.4654064  59.0949440  20.4299831  62.1106796
  58.9630814  19.4939384  61.9601326  59.9510460  20.6163082  61.7251892
  67.6817703  43.4772758  13.7176991  67.1348038  43.9524803  14.3431969
  68.0199051  44.1547852  13.1321411  83.0059357  64.0362625  20.6856079
  83.4526062  63.2729263  21.0517082  82.1697922  63.6951218  20.3682404
  13.3277273   5.4510236  65.2044525  13.8433647   6.2069402  65.4854126
  12.4331865   5.7842274  65.1337051  52.5857162   1.0197560  57.6975288
  53.0678368   0.2543056  57.3846741  53.0919304   1.3314846  58.4477310
  38.0253029   0.5034258  31.9686794  38.7146912  -0.0866778  31.6641331
  37.2330933   0.1925826  31.5304852  68.8311844  42.3765068  60.5852737
  69.4467773  41.6974182  60.8611679  68.2604446  41.9398460  59.9529686
  29.4263477  61.3970566  62.6907654  29.2590981  62.1983604  62.1946106
  29.3079853  60.6920815  62.0541840  70.7893295   2.3448651  26.2692318
  70.7643967   2.3425674  27.2261047  69.8855209   2.1719437  26.0056744
  76.3861542  10.0412960  58.8462982  75.5887222  10.0295916  59.3756332
  76.2927475   9.2936420  58.2559433  11.7156382  50.1449127  81.6310425
  12.5550690  50.1566887  81.1712112  11.9084873  49.7283478  82.4709930
  69.7634735   0.4604846  34.6243668  69.1209412   0.8682383  35.2049904
  70.2522583   1.1955384  34.2542114  56.6465187  46.3012924  84.2539139
  57.1799736  46.2008171  83.4655151  56.3234482  47.2013206  84.2114029
  81.9069443  16.4100895  83.0230331  81.3559036  15.9287405  82.4058685
  82.8023529  16.1836033  82.7716751  13.4219093  51.0357399  68.9391098
  13.5577765  50.1875801  68.5167389  12.7423429  51.4586105  68.4141312
  13.8451777  12.6998377  62.6158791  13.8351030  12.9850731  63.5295372
  13.7614470  11.7473927  62.6613731  49.2236748  64.5508041  13.6576614
  49.3575897  63.6654320  13.3194065  48.5762939  64.9371567  13.0678644
  45.9920654   1.2657529  50.3638725  45.2566338   1.6001453  50.8772507
  45.6714554   1.2596636  49.4619827   1.2344439   0.3351429  11.7738590
   0.6057211   0.2539586  11.0566778   0.7540141   0.0415131  12.5479393
  75.9077759  71.0445786  24.6574306  76.6716614  70.7280960  25.1396542
  75.1675720  70.5832825  25.0518036  36.0088425   5.1344137  32.2719574
  35.9339409   5.1393499  31.3177032  35.1403465   5.3913121  32.5817070
  83.7236938  16.9283962  46.8992043  83.5958481  16.7052212  47.8212013
  84.5377731  16.4871788  46.6566353  31.1079750   4.1324248  50.5174408
  30.5698681   4.6385612  51.1261292  30.6877232   3.2730699  50.4838448
  77.8005295  15.4535761  14.8047209  77.8662338  14.5115614  14.6481247
  77.6953583  15.5319939  15.7528887   8.1485643  46.6067009   5.4378886
   7.5540900  46.9940987   4.7954283   7.6949649  45.8197861   5.7399549
  69.8485489  55.4935188  12.6548958  70.2856827  54.6959915  12.3564177
  69.2150955  55.6918831  11.9652405  11.0340900  37.1727715   4.1746187
  10.5039158  36.3945694   4.3465247  11.7336807  36.8636208   3.5990922
  38.0056305  48.4995384  18.9836693  37.1030769  48.8082924  19.0630398
  37.9494972  47.7429428  18.4000206   3.7882874   0.5886400  43.8250275
   3.0371809   0.0230886  44.0045319   4.5314002   0.1323955  44.2198105
  61.7818756  16.4754906  58.4692307  61.2002525  16.1887817  59.1733208
  62.3131561  15.7049284  58.2687111  38.2538033  26.9727001  14.6649961
  37.8702698  27.6756458  14.1405897  38.3709068  26.2502346  14.0480976
  72.1123886  20.0706921  64.6853867  72.5095062  20.4120464  63.8841324
  71.4905090  20.7478428  64.9517822  41.8011589   8.8899765  46.3361397
  41.7442245   8.0341959  45.9111328  42.3413010   8.7369137  47.1114120
  12.0373783  20.7293224  87.2726212  11.8505602  21.1388569  88.1173706
  12.9816999  20.5733795  87.2856598  59.9308357  45.4311829  13.3507414
  59.2919884  44.9966125  12.7857189  60.5311966  45.8647270  12.7442436
  33.1209030  48.4258690  38.2888184  33.3011818  49.1411285  38.8988457
  32.6042366  48.8300743  37.5917511  70.6870651  46.2827644  77.4263382
  70.3236313  45.6751251  76.7821960  70.0847626  46.2334099  78.1686478
  77.4489059   0.3842870   1.1885958  77.1966705   1.2792710   1.4157801
  76.8768082   0.1526054   0.4569785  34.0398483  30.2119942  83.2429123
  34.1973534  29.8541336  82.3692093  33.2875481  29.7196484  83.5713577
  76.0894699  46.0974808  31.6440487  75.9728317  45.3156357  32.1838112
  75.2978439  46.6136971  31.7959785  62.3993454  49.3750877  53.5171165
  62.7610703  49.1361961  54.3705330  62.3736115  48.5520935  53.0290070
  62.2761574  57.8869591  87.6357422  62.2921448  57.2150955  86.9541397
  61.9086876  58.6579247  87.2035217  -0.0895697  34.8253975  81.0070419
   0.1186983  33.8915939  80.9775772   0.0501008  35.0732231  81.9209900
  46.5004005  45.0224037  85.5609436  46.7562637  45.8691444  85.9267349
  47.3168793  44.5249748  85.5145416  16.4915161  22.2735825  10.8769169
  16.4253368  23.0316601  10.2962532  15.5858870  21.9930592  11.0087242
  71.8339539  61.8908768  60.2775574  72.6347504  61.5519218  60.6776428
  71.2550507  62.0732193  61.0177269  10.2064419  35.3786583  50.2484894
  10.1348591  34.6883850  49.5892258  11.1262331  35.6421547  50.2204819
  83.0943756  23.7733936  60.5997047  82.9552612  24.5431557  60.0480309
  82.8321228  23.0345764  60.0505257   1.1158067  62.5472145  87.5724640
   0.1794253  62.5363998  87.7707138   1.2687385  63.4092102  87.1854095
  41.8920593   3.3363008  83.3790970  42.4874039   3.3475497  84.1285477
  42.4681892   3.3621593  82.6151352   4.1039400   7.1025262  32.8841095
   4.9970074   6.8678727  32.6319160   4.2039356   7.8978300  33.4072952
  65.6598892  39.3921356  88.4377365  65.7192993  38.6190567  88.9990311
  66.0816345  39.1275330  87.6202087  58.2778778  38.3440819  39.6397285
  58.7538795  37.8514137  40.3082581  57.4321823  38.5397530  40.0431442
  71.2637329   0.7807738  55.3933830  70.8418961   0.7270290  54.5358315
  70.5655746   0.5801749  56.0167351  58.7385406  26.0202713  17.9228058
  59.5133743  25.5133266  18.1654453  58.4637413  26.4421463  18.7368946
  62.4790955  22.5462132  14.1153345  62.9814186  23.3197594  14.3713207
  62.0060654  22.8173637  13.3285990  37.1262932  70.1253204  70.5008774
  36.8541374  70.0336838  71.4139862  37.7911987  69.4474487  70.3799515
  27.9953804  61.4795837  80.1846924  28.0675411  60.5617371  79.9228134
  28.8755569  61.8343048  80.0594177  12.2919531  42.5516052  14.4979496
  11.4348879  42.1855927  14.2795315  12.3456888  43.3581161  13.9852266
  83.1804199  12.3214426  25.3972397  84.0428085  12.6940889  25.5807095
  82.9082870  11.9278460  26.2262478  28.8354778  60.7919540  48.7681541
  28.0740547  61.1008759  49.2591057  28.7527542  59.8383446  48.7729301
  76.5988922   6.4285388  47.3631668  76.7001266   6.2713633  46.4244003
  75.9700470   7.1480222  47.4191055  22.5660076   9.4619236   8.3082809
  22.4451351  10.3704844   8.5842133  23.4816761   9.2699623   8.5106010
  51.6008568  26.4383450  87.2702103  52.0487862  25.7262402  86.8135986
  50.6775436  26.1861267  87.2598877  62.2366371  50.7218018  20.9363060
  62.1018829  51.6669617  21.0051975  61.3704681  50.3708267  20.7294254
  51.1737442  61.6723328  49.3175621  50.6377373  60.8813591  49.2601929
  52.0753708  61.3547935  49.2677994  46.0583649  11.9850378   2.7717464
  45.5471649  11.9759722   3.5809593  46.4117622  12.8731985   2.7216341
  56.3116455   4.8832622  87.5745087  56.6501846   5.7692099  87.4452057
  56.7423401   4.5763493  88.3723373  70.2649384   3.0593653  80.7027740
  70.4428024   3.4788609  81.5445709  70.9673843   3.3658264  80.1292953
  74.1793137  24.6899776  58.9158592  74.9457703  25.0532990  59.3594513
  74.5419006  24.0915756  58.2626534  37.2879219  53.3236046  84.2084808
  37.6884956  54.1026192  84.5943756  37.4794540  53.3940735  83.2732925
  57.5997238  48.2979736   0.4657610  57.0590057  48.4085503  -0.3163045
  58.4773560  48.1210403   0.1270986  57.9795914  33.6256714  39.6380692
  58.6384811  33.9661674  40.2431793  57.8531609  34.3289299  39.0011406
  35.8097267   8.7227097  61.7964706  35.1858368   9.1792784  62.3608627
  36.2488976   9.4209623  61.3108749  40.8395233  55.4204254  40.0611420
  41.4074059  55.0566330  40.7404022  39.9954109  54.9907188  40.1991920
  19.3678455  61.9901962  48.2697639  18.8222485  62.0341148  47.4845085
  18.8418846  61.4973335  48.8995895  47.9826126  33.3429184  28.3727245
  47.3613815  33.1403503  27.6732464  47.5727806  32.9957275  29.1650181
  46.4787292  63.4468803  61.5321083  47.1819725  63.7124023  62.1247101
  46.2005577  62.5912132  61.8587341  80.8802719  21.1034851  45.5277901
  80.3308487  21.8050327  45.1782188  81.2514343  20.6813221  44.7530365
  31.9652843  68.4374771  66.6454468  31.3319683  68.9634171  66.1570511
  31.9253941  67.5732346  66.2359009  81.0058899  51.5856590  87.4027252
  81.3073502  52.3521118  87.8904800  80.0894928  51.4834785  87.6596527
  60.5545464  70.4444275  86.4779358  59.7334976  70.5126572  85.9906387
  61.0930328  71.1606750  86.1414032  43.5916138  60.0959740  80.5931625
  43.9216843  59.7697792  81.4303513  43.3016357  59.3113136  80.1279144
  54.5860558  26.2527847  32.1282806  55.2677650  25.6022320  32.2964554
  54.3601799  26.5923653  32.9942436  86.0593643  59.7356262  77.8200378
  86.9356308  59.8921051  77.4680481  85.8871918  60.4930153  78.3794556
  71.0097656  21.8639183  82.9059372  70.2829742  22.4210758  83.1844635
  71.2374420  22.1855240  82.0335999  60.0993042   2.5967729  85.4769058
  60.1171684   1.8476164  84.8813553  59.8507576   2.2243249  86.3229218
   8.7546272  15.7440767  63.6449165   8.6275797  15.0028477  64.2370911
   9.4038305  15.4366617  63.0122566  32.3539276  32.0418320   9.4755707
  33.1454163  32.5003433   9.7576084  32.6146011  31.5831223   8.6769037
  18.7826004  64.0720367  65.7889862  19.5554428  64.2674866  65.2591324
  18.7842178  63.1184731  65.8722916   3.1731589  35.8672218  85.3641357
   3.1521075  34.9238396  85.2034378   3.0217853  36.2600479  84.5044785
  36.6328087  17.6158848  78.3625259  35.9607849  18.2717419  78.1768799
  37.0619202  17.9311695  79.1579437  81.0061111  33.0889969  74.3250198
  81.3244781  32.3383789  74.8264618  80.2688293  32.7448769  73.8208008
  69.1648865  57.9807243  60.8385544  69.0365524  58.3524437  59.9658661
  69.2422943  57.0385246  60.6885490  61.6474953  49.6731644  37.6047173
  61.1769524  50.4861336  37.4206009  60.9766388  48.9920616  37.5569878
  22.4499626  11.7504311   9.5825243  21.9221172  12.4414568   9.9826412
  23.3489151  12.0750532   9.6348238  74.9166946  16.1919403  23.5863819
  74.8168869  15.2769527  23.8491840  75.6159058  16.5273838  24.1474686
  77.0961761  26.5518856  88.6967850  77.0120926  27.4915142  88.8588333
  76.4138031  26.1536407  89.2371521   4.3097367  20.1469784  72.4653091
   4.4419274  20.4816742  73.3522873   4.0650797  19.2299213  72.5893402
  77.5603714  47.2011299  73.9881363  76.8605728  47.5631180  74.5317154
  77.1611786  47.0921822  73.1250000  30.8062057  49.9841805  81.8775787
  29.9534988  49.8617401  81.4602966  31.2385235  49.1343765  81.7929153
  17.3249893  48.6234779  29.0624027  17.0670033  49.4236488  28.6047993
  17.8316517  48.9303246  29.8143139  36.0673637  66.9998245  70.0660400
  35.2766151  66.6888962  69.6252747  36.7177963  67.0730820  69.3676147
  79.3825607  56.1084061  74.7417603  80.0923920  55.5724449  74.3880386
  78.7124252  55.4765892  75.0024414  75.2835007  44.2784920  59.5802422
  76.0071335  43.6597176  59.6787186  74.6020813  43.7802734  59.1289330
   2.9766340  59.3899155  22.4925861   2.9095020  58.6890602  23.1410637
   3.8265662  59.7950706  22.6649151  53.3988304   0.0708694   2.4782629
  54.3536224   0.0185447   2.5214682  53.2255745   0.7744004   1.8527566
  43.3145370  20.5591984   7.4973488  42.9132919  21.4157600   7.3505912
  42.8172302  19.9627171   6.9377704  48.4939613   9.9851446  76.0904846
  47.7903214  10.5783749  76.3535538  49.2964554  10.4865761  76.2347107
  72.5050964  45.0897560   9.0783138  72.9461441  45.6646500   8.4528465
  71.5882492  45.0952339   8.8033762  63.4655762  33.0678978  62.1463966
  63.4235535  33.5233078  62.9872665  64.1709137  32.4299011  62.2545319
  73.1007004  43.8121681  78.0841522  73.6341629  44.4070244  77.5570908
  72.2265091  43.8689537  77.6984177  44.6705132  48.1666489  88.4772110
  44.7113686  47.2112885  88.5202103  43.8474541  48.3909645  88.9113617
  53.3723106  23.5035477  32.6013680  53.4475327  23.9559689  31.7611961
  54.0406456  22.8192387  32.5655899   5.5487657  56.2343407  50.5347519
   4.6837859  55.8262253  50.5732689   5.4472027  56.9523849  49.9099922
  54.3429413   5.1176167  82.8441238  55.2799034   5.0508838  83.0281754
  54.2188225   4.6058512  82.0447922   8.5826149  62.4126396  89.0446396
   7.7986574  62.3249550  89.5868149   8.5587244  61.6518745  88.4642029
  34.0243568  71.1027145  78.7791595  33.9317894  70.5451126  78.0066757
  34.9689751  71.1557388  78.9244766  82.8890381  50.2843895  55.5592041
  83.7757034  50.2251091  55.9149323  82.4000015  49.6027069  56.0200615
   5.8675065  27.5537090  58.5346832   5.9097881  28.4964657  58.3745155
   5.5723276  27.4779263  59.4420738  37.7681961  55.3845520  46.5960426
  38.6070175  55.4843445  47.0462151  37.8960800  55.8182182  45.7523537
  60.9683189  28.8297787  26.4804420  61.2413330  29.5397415  27.0615158
  61.3686676  29.0428238  25.6374912  44.9792404   8.5766563  55.9914436
  45.3563881   9.2135143  55.3844833  44.2935524   9.0610075  56.4513054
  14.6550007  20.1838913  87.2966690  15.3580866  19.7166462  86.8454666
  14.9142914  20.1749935  88.2180328  15.2761240  18.7262192   1.3427440
  14.8598042  17.9097672   1.0664874  16.2032642  18.5047626   1.4299169
  71.7913513   1.9213623  14.6040115  72.0087967   2.8359315  14.4237013
  72.4865570   1.4211280  14.1765938  35.5561562  32.5998421  80.9158630
  36.2663994  31.9879971  80.7223969  35.9975166  33.3827133  81.2453308
  60.9187431  17.3881798  55.2938385  60.4475937  16.9104919  55.9765244
  60.2509727  17.9347248  54.8795891  20.3663006   3.1234851  37.1176529
  20.9311581   2.7096927  37.7702980  19.6055927   3.4236777  37.6150856
  15.5015297  62.7448692  88.8336716  16.1591969  63.0806618  88.2246170
  14.7471066  62.5387039  88.2817917   6.4931951  66.7273254  24.9890232
   6.3570356  67.5075302  25.5265865   6.8850045  67.0586166  24.1809616
  71.1522675  56.1924248  33.5129776  71.0833282  55.9476967  34.4357910
  70.2482147  56.1980858  33.1985016  47.6158485   9.5722466  71.5945740
  47.6388168   8.7737894  72.1219940  48.5347328   9.8228378  71.4992447
  13.7192793   6.9156528  49.4917831  13.3850079   6.9239793  48.5948868
  14.6540709   7.1003237  49.4007187   5.0155354  60.5002441  17.8509865
   4.7721920  60.1631813  16.9887772   4.6073384  59.8939857  18.4690952
  17.4852905   8.5239801   8.7749300  16.6577778   8.0677633   8.9276333
  17.4132786   8.8578224   7.8807292  20.9673042  33.2018890  21.4302139
  21.9171467  33.2499886  21.3219624  20.7315235  34.0305023  21.8473988
  65.0666199  22.8306103  82.0085068  65.5388870  23.6218586  82.2675858
  65.2305450  22.7507038  81.0688400  47.6346474  37.6957474  21.1727295
  47.9647598  38.2222404  20.4446774  47.6553459  38.2874184  21.9248791
  54.2226448  28.7420750  16.7059441  53.8947983  29.1484222  15.9036779
  53.5107498  28.8490486  17.3368092  83.7755356   0.7111992  43.6095505
  84.6132507   0.5019597  43.1964188  83.8015060   1.6595412  43.7368507
   3.6211252   3.3480220  78.1690598   4.3699589   3.9407895  78.1049728
   3.9425535   2.5173135  77.8185730  83.7431335  21.6503258  50.6269608
  83.1714172  21.8040752  49.8748055  84.1531830  22.4990482  50.7935753
   4.0259972  53.0458946   0.3083213   3.0947862  52.8857613   0.4614061
   4.2764559  53.6712227   0.9883704  12.5327530  22.2909031   8.4249687
  12.0517263  22.9383717   8.9403629  12.4969730  22.6239891   7.5283055
  17.5445175  52.4728813  36.5695877  17.7162628  51.8560524  35.8580704
  17.9980278  53.2738533  36.3068924   3.0655766   8.6251593  26.6329365
   3.1506357   8.0156822  25.8997688   3.8652294   9.1503439  26.6018257
  30.6692543  28.4539394  32.0231094  29.9392033  28.8825836  31.5764313
  31.4127254  28.5685310  31.4312019  30.9945621  69.3771973  34.9110069
  30.9281025  68.5876770  34.3739052  31.9092636  69.3992920  35.1921883
  54.7001419   6.3848014  29.1572456  54.2850380   5.7626472  29.7546101
  55.5175934   6.6261454  29.5928612  14.7755690   2.4026010  80.1517181
  13.9922590   2.9440985  80.0545654  15.1860723   2.4179230  79.2871475
  44.8261833  24.9677963   2.1406775  45.2818680  24.4362812   2.7934210
  45.0859489  25.8671570   2.3404338  29.4110126  69.1454544  86.9510498
  28.7467442  68.9870834  87.6217957  29.2810287  70.0588989  86.6961975
  36.9986496  69.1438522  39.4588699  36.8336830  69.4060745  40.3645515
  36.9492226  69.9596100  38.9605484  16.1724224  62.2544212  50.0992317
  15.8020220  62.9215851  49.5213661  15.6025848  62.2605553  50.8683090
  85.3599548  57.9206314  41.5741920  85.4823608  58.1639290  42.4918289
  84.4288177  57.7100563  41.5043907  73.4439545  57.0874443  76.8474426
  74.2900162  57.4302864  76.5595779  72.8283768  57.8025055  76.6862411
  17.9287472  41.1572800  24.2222843  17.0455399  41.0837555  24.5839062
  17.9736042  40.4695358  23.5580330  30.5239067  66.7941513  12.6489391
  30.8686848  66.3094406  13.3988800  30.6481819  67.7144623  12.8809290
  30.0070572  59.7238121   6.9652071  30.3395557  60.5852165   7.2175131
  30.1354618  59.1803818   7.7426586  73.3823471   4.6576529  88.9145126
  73.4993896   3.8099840  89.3434525  74.2219009   4.8279281  88.4874420
   6.7625947  46.8639374  44.7987556   6.1975646  46.5965614  45.5236588
   7.3522639  47.5134659  45.1816902  39.1067047  29.5444717  35.0557404
  38.7863579  30.3310356  34.6142311  40.0086060  29.7557144  35.2969475
  21.4611187  61.1845436  46.3008347  20.8980770  60.4204559  46.1767883
  21.0418587  61.6792259  47.0049248  12.6657143  35.9511147   2.1549501
  13.5636520  35.7730293   2.4346375  12.5005264  35.3140182   1.4599280
  51.1254044  48.2437859  87.9095001  51.2967567  47.5597763  87.2621994
  51.9142418  48.2638283  88.4513168  66.5863113  30.8489857   5.9470029
  66.4268646  30.1142883   5.3545280  65.8526917  30.8248138   6.5613666
  24.0867729  45.4545631  73.7114258  24.0256348  46.1049881  74.4110260
  24.9186726  45.6460457  73.2783966  55.4345360  39.2130775  69.6557770
  56.3761559  39.3345413  69.7775497  55.0339394  39.9095955  70.1759872
  41.6465683  68.5592651   5.2128525  41.8487015  68.7614594   4.2993460
  40.9495316  67.9050064   5.1647768  62.0303192   6.9635196  28.0101509
  61.6328850   6.4642043  27.2967358  62.3877182   7.7438025  27.5862904
  81.6281357  29.7027626  44.9101601  82.1175613  29.4389286  44.1310043
  80.8260193  29.1814690  44.8770676  84.9512711  32.4003372  47.5778351
  85.1901474  32.9417686  48.3301811  84.3479004  32.9452019  47.0725670
  69.5424118   4.2739162  15.6950979  69.6788330   3.7094352  16.4560051
  68.9314499   4.9443946  16.0007362  48.2726898  16.8300705  36.4403000
  47.3319359  16.9805965  36.3478088  48.6442795  17.1167755  35.6060600
  33.9653549  45.9178352   0.7936871  33.4618034  45.3886147   0.1751477
  33.6826363  46.8167152   0.6254197  11.5657310  56.8600578  39.9945183
  12.5008621  56.6591454  39.9571457  11.1351004  56.0444527  39.7384377
   7.8777485  10.8146372  43.8490715   7.3015227  11.2276917  44.4921761
   7.4845142   9.9562750  43.6915512  20.1688862  20.0792656  13.2671165
  20.8161163  19.5159321  12.8428774  20.6728058  20.8317013  13.5771799
  35.6682320  12.9239159  58.5178833  35.4735527  13.3367186  57.6765022
  35.5002365  13.6087265  59.1652222   7.8594050  62.6954002  48.7753258
   7.0066552  63.0659332  48.5478325   8.4614954  63.4385109  48.7365417
  60.1143684  42.1339378  32.4798355  60.6079750  42.7948418  31.9942551
  60.4529457  41.2982063  32.1586609  30.5997963  38.5450439  16.7824402
  31.4102268  39.0477638  16.8643379  29.9230652  39.2047119  16.6304550
  77.9423904  52.9768486  15.4538927  78.0673294  52.6188278  14.5750055
  77.1501541  52.5476341  15.7769632   4.4011164  62.3001709  27.3810387
   3.9644554  62.9462242  26.8259010   3.7339354  62.0402031  28.0162678
   0.2742917  53.7036591  11.1349096   0.7301519  54.4253197  10.7017441
   0.5079991  53.7929230  12.0588388  15.0644464  21.5163746  53.6068687
  15.5592957  21.8841362  52.8746758  14.4308262  22.1970577  53.8336449
  78.4518204  46.5246429  21.6900806  77.5803070  46.1681747  21.5179691
  78.8512650  45.8992691  22.2947159  67.2433701  29.7945862  71.0794907
  66.5340805  29.1567001  71.0004807  67.3315277  30.1647682  70.2011871
  79.2863998  39.8492393  40.2336807  79.8168259  39.2115479  39.7559471
  79.7645111  40.6736183  40.1440277  77.5439835  11.9674301  21.6533222
  78.4075470  11.6111355  21.4446564  77.7155457  12.6417227  22.3106861
  76.9598236  31.4456825  58.9804726  77.0430756  30.7331810  58.3467216
  77.2346649  31.0597649  59.8121948  39.9041634  39.7341537  19.1487064
  39.8937416  38.8116150  19.4037514  40.6043968  40.1202202  19.6748791
  58.7466278  13.9233875  48.4649277  58.5136108  13.1419611  48.9662323
  58.6355896  14.6461430  49.0826073   9.0410013   9.9310303  11.3433590
   9.9976645   9.8999891  11.3353395   8.8057985  10.2890787  10.4873724
   2.1922760  69.2892914  61.8800087   2.1327603  68.3414307  61.7606506
   3.1313632  69.4646454  61.9399986  63.6047630   6.8658223   3.8309698
  63.2952385   6.5360041   2.9873781  63.2563744   6.2468004   4.4725838
  79.7417908  19.9241486   2.7788253  79.7829971  20.4487610   3.5783966
  80.2620010  20.4153767   2.1429789  69.5928650  49.9814186   4.8704929
  70.2353287  50.2922592   4.2326488  69.3753128  50.7564049   5.3884706
  29.9821892  63.2344017  40.5109863  29.3013687  62.5641022  40.4525795
  30.4816532  63.1397972  39.6999283  53.2303772  29.4444218   0.4758071
  53.4584389  29.2560139  -0.4345352  54.0625839  29.6758976   0.8882234
  13.2955351  44.7957611  64.8143768  12.9818268  43.9099274  64.6323853
  14.2416258  44.6974983  64.9215622   1.9412808   5.2326035  51.7497253
   1.0232782   4.9637280  51.7844963   1.9093416   6.1880379  51.7011757
  74.8269653   8.8553066   5.7161341  75.5954285   9.2927427   6.0826740
  74.5523682   8.2422333   6.3980198  70.5281754  45.4596405  11.8390617
  71.2342300  45.8789635  11.3472376  70.9431381  44.7056808  12.2580919
   3.9888084  32.4779053  46.4550629   3.5437624  31.6318359  46.5033760
   3.6459877  32.8837395  45.6588211  71.9892654  68.1635284  47.3938408
  71.4546280  67.3716431  47.3363419  72.7073746  68.0128403  46.7791481
  70.4512939  29.0528030   9.0669851  69.8677826  29.6745644   9.5019140
  70.1175003  28.9971523   8.1715984  59.0140381  18.2919903  67.0690231
  59.2072220  18.4539566  66.1456146  59.2410393  17.3718567  67.2033920
   8.2695999  66.2814407  71.0142746   7.4622145  66.7787018  71.1450119
   7.9742336  65.4112091  70.7465134  29.8724861  60.0716400  13.6220245
  30.7794456  59.9196434  13.3564100  29.4305172  59.2397728  13.4520464
  75.0945282  35.6797104  40.1031837  75.4266281  35.2145538  40.8710175
  75.5584564  35.2849846  39.3648148  33.4100113   8.6940470  57.6055908
  33.6570129   8.1933403  58.3830948  32.8237572   9.3750010  57.9355011
  82.6173325   7.2465906  75.8186493  83.3535538   7.6961679  76.2334824
  82.7104950   6.3334723  76.0902481  82.3900604  24.7871056  47.0783806
  82.2788925  23.9123230  47.4507103  82.5295944  24.6337166  46.1439095
  30.1226139   1.6357460  37.9144211  29.9001408   0.7160108  37.7701111
  29.2847977   2.0957766  37.8627625  61.1166534  33.8407402  72.6513367
  61.3476448  34.7442856  72.4357376  60.2116280  33.7474060  72.3539276
  60.7413673  18.0716400  64.8004456  61.5000839  18.6014748  65.0450897
  60.6633644  18.1878624  63.8535309  54.1334648  56.2730103  87.6448975
  54.4757271  55.7883720  86.8937531  54.4085388  55.7612839  88.4056244
  66.5041656  59.3149452  15.6028156  65.8541260  58.7574539  15.1751661
  66.2576599  59.3041649  16.5276661  46.0080528   3.8860722  41.0575905
  45.1470413   3.7995725  41.4667397  45.8441544   3.7522879  40.1240616
  10.8028183  43.8756218  41.0077400  11.6560507  43.8685455  40.5739479
  10.9876175  43.5958328  41.9042892  52.5693779  16.3150845  24.5290546
  52.0848427  16.6718807  23.7846394  53.2480087  16.9661579  24.7073689
  31.1496944  14.3913698  17.3167858  31.4487019  14.9788723  18.0108089
  31.9501686  13.9825163  16.9876804  55.2930946  59.8141060  79.7655487
  54.4622421  59.4201012  79.4997025  55.6283569  59.2300301  80.4457626
   2.4195650  57.6600151  80.7692947   2.7234843  56.7872810  80.5198975
   3.1821604  58.2244835  80.6425858  13.1207762  54.9666176  67.6414261
  13.2033949  55.4346542  66.8105545  14.0121574  54.9363174  67.9889221
  46.5882874  57.4194260   0.3682134  46.6654472  58.3734589   0.3584171
  47.4925499  57.1061974   0.3889033  12.6115828  59.1641502  28.6901340
  13.1171360  59.1209030  27.8784828  12.0625572  59.9417191  28.5891914
  79.2835846  31.0459652   2.8928025  78.6599655  31.2949371   2.2106383
  80.1379318  31.2904949   2.5371034  28.9627724  47.1189461  35.3713570
  29.6492596  47.1803665  34.7071342  28.4038715  46.4016075  35.0725441
  61.6157913  46.3996964  11.1740198  61.5015335  47.0666313  10.4969873
  62.3831673  46.6886902  11.6678267  63.3753586  64.8867874  69.7419586
  64.0552521  65.0914917  69.1000290  63.3835640  63.9315872  69.8031921
  67.8746567  16.7793407  80.0526962  68.4608231  17.5192566  79.8940430
  68.3804016  16.1884899  80.6106796  79.9147873   2.7567391  43.0911369
  80.2946014   2.0334141  43.5899048  79.4929047   3.3071222  43.7509270
  21.3641624  14.9503689  72.7285004  21.3266869  14.6815166  71.8106003
  20.5100822  14.7057428  73.0847855  14.7124796  56.8429909  46.7665482
  14.9496279  57.3739433  47.5268669  14.0655823  57.3707008  46.2982750
   2.4537504  52.8997345  79.8773346   2.9870744  52.3915482  79.2661514
   1.6876477  52.3497696  80.0412216  73.4814682  31.5200901  10.9514914
  74.1936569  32.1188049  10.7266436  73.8029480  31.0417805  11.7157593
  10.2337389  43.7028198  72.3750839   9.4164782  43.8914146  72.8363342
  10.0271692  43.8495522  71.4520340  27.3059216   9.2479334  53.4919968
  27.6285114  10.1491280  53.4879227  27.8929958   8.7806997  52.8976326
  61.0784492  63.4237137  50.6026344  60.5497131  63.4613647  49.8056068
  61.6518555  62.6681061  50.4741974  26.8337536  14.1871424   3.2725551
  27.0337372  13.4591284   2.6841390  26.7095242  14.9375792   2.6914840
  86.0120163  40.9456024  29.3140221  86.3378448  41.5736885  29.9586697
  85.2460175  41.3721733  28.9299393  54.9508896  15.4530125  72.2185440
  55.3124352  14.6710920  72.6358185  55.0137634  16.1331501  72.8891373
  48.9939003  11.7607250  30.1114769  49.0110703  12.0100546  29.1874790
  48.2811203  12.2783098  30.4860134  71.8296585  15.7465210  72.1923981
  71.0017853  16.1985741  72.0295563  71.9244232  15.7560062  73.1448441
   8.9393244  27.1545734  74.0036392   9.5771923  26.4814701  74.2408829
   9.4065189  27.9810162  74.1259232  37.2724380  63.8454590  30.3427258
  38.0487442  64.3308258  30.0634403  36.6910934  63.8655167  29.5825500
  31.9531479  13.3724060  51.0291557  32.8122902  13.7341967  50.8118744
  31.5944061  13.9794140  51.6765175  47.6583252   3.5605478  53.6830978
  48.1027260   2.9557753  53.0889702  47.3013496   3.0003004  54.3722458
   2.9833729  64.8727646  81.1452789   2.8289711  65.7802505  80.8828583
   3.1068501  64.9153519  82.0935287  43.4234772  48.4134865  35.0223541
  43.2107582  47.5421753  35.3567162  43.9051018  48.2480087  34.2118683
  41.3925629  71.7619705  11.5515604  41.4478073  71.0925369  10.8696270
  40.9188995  71.3369827  12.2665834  66.6203690  34.0593147  13.9784784
  66.7290039  33.3208160  13.3792715  66.5462112  34.8230934  13.4063129
   2.8516266  71.4763412  74.7616882   2.8553600  70.5284500  74.8948212
   2.5296021  71.5913620  73.8676453   2.3361142  35.0293007  47.0599365
   1.9362435  34.9444237  47.9254608   2.7468629  34.1793556  46.9014702
  40.5848274  13.8608751  75.3357925  40.0432472  13.4664049  74.6521912
  40.9206696  13.1162548  75.8347778  83.1113586  28.6801472  25.0779667
  83.4636841  28.0723877  24.4277954  82.1695709  28.6938648  24.9074097
  14.5339708  44.5331879  88.2204132  13.7118196  44.9398575  88.4941254
  15.0456142  45.2527046  87.8506241  69.9257736  54.7697220  21.5677338
  69.0192184  54.4625664  21.5605507  70.1030197  55.0142288  20.6594219
  18.8347473  48.7770195  68.8708649  19.2053146  48.6829758  67.9933243
  18.8250160  49.7213821  69.0268021  36.5181351   2.0828559  41.6155739
  36.2780914   1.1571218  41.6559105  35.7056389   2.5309422  41.3804054
  36.2280617  60.6745224  82.2596054  35.3624763  60.4723167  82.6147232
  36.7552185  60.8985596  83.0265121  82.7245483  40.0904808  22.5863380
  82.1496277  39.4755135  23.0418777  83.2229691  39.5459518  21.9769955
  29.3659229  62.5063286  32.4210510  28.5040398  62.4091835  32.0161400
  29.9719524  62.5672951  31.6826420   2.6078691  50.4203033  36.5113258
   1.6703931  50.6028671  36.4477577   2.7203047  50.0461502  37.3851662
  21.5966091  43.6844940   9.6806965  21.5947666  43.3442383   8.7860155
  22.3490982  43.2629013  10.0957308  51.1684189  56.4404297  87.1686630
  50.9959602  55.5012436  87.2351379  52.1215096  56.5131111  87.2193909
  79.9965668  68.1620560  58.8027267  79.5129776  67.3461456  58.6736565
  79.4987411  68.8157730  58.3117447   8.5764084  46.7512894  41.2198029
   9.1905851  46.7986259  41.9524536   8.9941378  46.1585350  40.5950012
  78.3524628  70.9921875  47.7574844  77.4746323  71.1111298  47.3948593
  78.8089066  71.8081741  47.5524178  58.2727852  67.0680771  78.5038986
  57.4733047  66.7828293  78.0615311  57.9747162  67.3849182  79.3565445
  64.9826431  31.5439186  47.8733902  65.9321289  31.6445122  47.9411964
  64.6923370  32.3238106  47.4003983  79.3887787  62.0721817  45.3465424
  79.5775909  61.1416512  45.2253151  78.5925751  62.0878143  45.8776283
  71.0933075   6.2000618   0.0022584  71.7268295   5.6384406  -0.4443496
  71.5485153   6.4944143   0.7911654  69.2947617  61.8796959  15.2314320
  68.9890671  62.5262070  15.8676777  69.4990158  62.3917503  14.4489269
   5.0330987  53.5745163  81.0602798   4.1248417  53.4792747  80.7735291
   5.0355892  53.2483788  81.9602051  61.2726173  53.3033371  47.5823898
  60.8111267  54.0287361  48.0031662  60.6969528  52.5488014  47.7069626
  46.7915916  37.4494820   4.2628374  46.6997452  36.9967651   3.4244785
  46.2425346  36.9492302   4.8665895  13.6802492  46.3461914  38.6285286
  14.2685738  45.5949097  38.5531693  13.1199474  46.1375999  39.3760490
  60.7809715  65.2713547  16.0868664  61.0245972  66.1679840  15.8568106
  61.0761337  64.7448502  15.3439617  16.8823509  52.5995369   6.6466813
  15.9424591  52.4185715   6.6373181  17.0041714  53.1954613   7.3857822
  13.8897581  62.9708366  59.0502167  13.6413412  63.6156387  58.3878326
  14.0664263  63.4895630  59.8350372  78.2885818  16.0196381  61.2786827
  78.2201233  16.5090694  62.0984421  77.4417953  16.1484737  60.8513794
  55.3624496  70.4048309  66.1106339  56.0214729  69.7437897  65.8986282
  55.5316658  70.6266861  67.0262680   8.9353132  11.8591728  17.4193745
   9.8734426  11.8667164  17.6093445   8.8659353  11.4181271  16.5726757
  22.7923870  69.2360458  59.8124123  22.9349632  69.0280762  58.8890190
  23.0253582  70.1613541  59.8882599   5.7376800  40.0169792  26.8040981
   5.7425103  40.6337662  26.0721245   4.8493476  39.6605415  26.8110981
  54.1932411  61.6636162  49.4401817  54.7843208  60.9963799  49.7889671
  54.1397362  62.3219566  50.1329727  16.3275509  63.5641785  25.9245892
  17.1227169  63.0930023  26.1734581  16.3638458  64.3777161  26.4276562
  59.7511826  25.4833584  80.6324158  60.5529060  25.9959774  80.7358246
  59.7807236  24.8459759  81.3459244  68.5146255  47.2043610  18.3331528
  68.5377502  48.0511208  17.8873978  68.5646896  46.5603752  17.6267490
  77.7528381  37.1457901  19.2947292  76.9085083  36.8237457  19.6103745
  77.5359497  37.6719742  18.5251045  38.6394653  60.7303925  46.6612701
  39.1738014  60.2457047  47.2903900  37.7799225  60.7958946  47.0773544
  57.7934113  25.9791794  60.5899658  57.4727821  26.7839832  60.9970512
  57.8103714  25.3405266  61.3027496  68.6097565  64.7210693  80.9421234
  67.9926453  63.9900017  80.9730377  68.0675201  65.4838791  80.7412720
  41.3383598  42.3213310   7.2022371  41.2744598  41.7682877   7.9808860
  42.2747803  42.4964066   7.1090026  73.6429138  32.4242744  86.9173889
  73.9318466  31.6274776  87.3622131  73.4933243  33.0522919  87.6241074
  47.1361122   4.1639757  46.6084175  46.8167496   3.2665906  46.7029648
  46.5480804   4.5610275  45.9659195   4.4558110  69.7946243  78.3394241
   4.2094254  70.7181320  78.3909760   3.6313386  69.3353348  78.1796570
  30.7518291  41.5484695  87.0049744  30.5109348  42.0248718  86.2104721
  30.0754528  41.7841797  87.6399460  63.1584396  11.9795542  27.1470928
  63.7448997  12.1165800  27.8910828  62.2823219  11.9643974  27.5323429
  59.7348213  10.7710657  70.6442719  60.3113289  10.0885801  70.9879074
  58.8606186  10.5177517  70.9406433   3.8430762  18.1866322  23.6510983
   3.6099231  18.7060699  24.4205494   4.8002524  18.1816463  23.6465473
  15.7486258   6.6404667  33.2870903  16.5904922   6.8071742  32.8631783
  15.7952671   7.1251922  34.1111641  17.6304951  55.2503662  36.2384682
  16.8887959  55.8266716  36.4228172  18.1752930  55.7485924  35.6292076
  53.4964218  40.8643188  84.8592224  53.3652992  40.2464066  84.1400375
  53.5204849  40.3168221  85.6440125  39.9950905  69.9148636  31.6758308
  40.7226601  70.1632843  32.2460632  40.4136047  69.5094452  30.9164162
  80.3582687  59.4951019  31.3936272  79.6822205  59.1252441  30.8258324
  79.9532318  60.2759819  31.7709961  57.7037621   4.4913201   4.3852372
  57.2191696   4.3791289   5.2030473  57.4684181   3.7261562   3.8604805
  23.5192719  55.4237823   3.3366363  22.9435215  54.6706047   3.4688013
  24.1584568  55.3641510   4.0466499   0.5772964   3.6425910  81.2709045
   1.3435847   3.1059217  81.0683746   0.7415209   4.4729495  80.8239517
  86.1929245  24.2466202  82.8513107  85.5827255  23.8974400  82.2017288
  85.7769775  24.0630550  83.6936493  60.8813667  33.5948906  79.5049133
  60.1329536  34.0987091  79.8247147  60.7050514  32.6978607  79.7886047
   3.8442979  11.0956116  43.4145737   3.3272328  10.8909874  42.6354675
   4.4997640  10.3993196  43.4566994  13.0065413  55.6261406  54.3091507
  12.5709276  56.4217224  54.6149635  12.7712469  55.5650063  53.3833389
  17.1022472  49.8484459  77.6677628  16.5173302  49.3726883  78.2574692
  17.7666779  49.2057037  77.4194794  84.3932953  29.4029179   6.4040785
  84.0138779  29.2010345   5.5487890  84.3823013  30.3588867   6.4513588
  56.5400620  50.5700340  69.3289948  56.5074120  51.0666313  70.1466446
  56.9227028  49.7279320  69.5753250  31.9541378  65.0424500  41.0192261
  31.5142822  65.7741394  41.4521103  31.3372459  64.3143234  41.0935020
  79.3048401  69.9640350  83.4579010  79.9996338  69.3626709  83.1898499
  79.2394028  70.5908127  82.7374191  39.6660461  28.4745140  28.1398163
  38.7236290  28.6161327  28.2294197  39.7451744  27.5657673  27.8497334
  83.8880539  22.2647152  12.7648516  84.1421967  23.1409245  13.0545053
  84.6491241  21.7178898  12.9597540  19.3416348   4.3462143  72.1486130
  19.6060028   4.2627931  73.0647964  20.1459694   4.5852971  71.6880493
  12.0569305  18.5150719  16.2646618  12.9497805  18.8587399  16.2339458
  11.5004416  19.2812309  16.1248379  72.2284164  19.5772705  11.2567940
  71.6233749  18.8783207  11.5050220  72.4545746  20.0031624  12.0836573
  45.6328011  17.5494366  31.6299953  46.2429695  17.0905437  32.2073555
  44.9474525  16.9068966  31.4465027  12.3439989   3.6278343  11.0807104
  11.6748543   3.9209301  10.4621868  12.2735033   4.2365260  11.8160715
  86.1719818  22.4697685  32.2112274  85.6904221  23.1195831  31.6992950
  85.9313126  22.6539135  33.1191902  67.6031265  17.1963234  75.0000610
  66.9580917  16.8500233  74.3834305  67.1697693  17.1482258  75.8521881
   2.9763966  49.2370415  -0.1438122   3.7114983  49.4768829   0.4203979
   3.0011590  48.2806969  -0.1758787  72.7084808  33.4743423   0.6719476
  73.4737167  34.0361633   0.5494629  72.0140457  34.0723724   0.9482667
  31.6291294  44.0445518  18.1098576  31.1964321  44.7197571  17.5872650
  32.2785645  44.5212708  18.6267719  56.2522240   4.0236816  23.0707054
  56.4822426   3.3254411  22.4576931  56.0768852   4.7826486  22.5144176
  46.0860367  53.8381920   6.1050282  45.8072395  54.0787125   6.9885731
  45.8483353  54.5921326   5.5653038  48.8562813  18.8347664   3.5213892
  49.3419418  19.6436253   3.3597898  48.1806068  18.8215904   2.8435085
  58.7213402  14.1654100  22.0802746  59.6303825  14.0926380  21.7894459
  58.7840996  14.3822947  23.0104656  72.0168915   0.7925012  79.6603088
  71.6147690   0.8446759  80.5273743  72.9109726   1.1081322  79.7915649
  51.2521210  49.8371468  20.9609756  50.7299232  50.3407021  21.5854492
  50.7554741  49.8801842  20.1438351  61.8162613  11.6444464  85.5365677
  62.6450272  11.3511906  85.9152222  61.9920845  12.5364304  85.2370911
  58.7014236   0.7541498  28.8263912  58.2917061   1.3328481  28.1833725
  58.5831070   1.2038610  29.6630459  81.7789612   6.7234526  36.3225517
  82.1455078   5.8791904  36.0596924  82.4087219   7.3685689  36.0009041
  58.0675392  69.4005585   1.7539682  57.4000397  68.7145615   1.7630978
  58.6772308  69.1323547   1.0665274  44.1671715  71.1718521  58.3330040
  43.4350166  71.3267593  57.7361908  44.9048767  71.6307983  57.9312706
  86.2088394  45.9067383  48.6770134  86.8240509  45.8325119  49.4065628
  86.3429871  45.1070976  48.1682854  24.9456806   8.9165754  82.7693100
  25.1051254   8.3188639  82.0388641  24.1038628   8.6364613  83.1286316
  47.2919579  20.5012245  88.1053848  47.8046379  21.2541676  87.8113327
  46.5795593  20.4335384  87.4696655  44.8600655  53.3756027  39.3987160
  44.8328819  52.9215126  38.5565186  45.0874901  54.2785149  39.1767654
  27.9832897   9.2903671  81.9423981  28.2202244   9.4146709  82.8614426
  27.0455055   9.0994081  81.9605408  86.2056503  57.3425789  60.8635254
  87.0717316  56.9617233  61.0086975  86.1937408  57.5623894  59.9319839
  18.7403698  26.1422291  37.4346504  18.3895416  26.2460613  36.5501328
  19.6136189  25.7726040  37.3040962   8.7725878  67.3225555  85.7434921
   9.4768686  66.6820755  85.6434708   9.1525307  68.0135727  86.2860565
  56.7503319  18.3595905  64.2910690  55.8770943  18.4680500  64.6678009
  56.6474838  17.6604805  63.6453934  -0.0933660  35.8512268  37.3332024
   0.6134766  36.4949493  37.3803787   0.3335136  35.0482292  37.0345345
   5.1807003  37.1018753  29.7161827   4.9529548  37.0042305  28.7916126
   4.4408445  37.5754776  30.0963745  22.2847385  57.1275558  32.5426140
  21.4439354  57.5072365  32.2874146  22.4985294  56.5207787  31.8338509
  33.0514069  47.2163887  18.7426281  33.4829445  47.0020638  17.9155426
  33.3774261  46.5612679  19.3596859  17.8486328  36.3464546  16.7348213
  18.1870556  37.0503120  17.2882500  17.7634563  36.7432976  15.8679371
  47.1469955  63.0870247  83.0222778  47.6116982  62.7607536  82.2516785
  47.7910194  63.0383911  83.7287521  40.0405693  51.7911644  16.9647388
  39.1735878  51.7886620  17.3704109  40.1911926  52.7060890  16.7271404
  69.9713287  21.7328014  65.9897232  69.5110550  22.1271954  66.7305603
  69.8692245  22.3663845  65.2795334  14.9536247  47.3821678  83.7788773
  14.2250681  46.8113251  83.5347977  14.5529919  48.0651321  84.3167343
   2.6753085  57.1089363  24.1890259   2.2538695  56.4177628  23.6782436
   3.5702965  56.7966270  24.3220348  49.3235703  21.0762424  81.8653717
  49.7977409  21.0713959  81.0338821  49.5586472  21.9111195  82.2702789
  75.0229645  61.4434853  57.8201942  75.3628540  61.6849709  56.9585762
  75.0176773  60.4863091  57.8159218  29.4909458  13.6255016  45.5657501
  30.2470627  13.4191141  46.1152267  29.7643738  13.3828354  44.6811142
  24.9774303  24.4694729  88.7025909  24.3115788  24.6732063  88.0458069
  25.7720089  24.8927021  88.3773956  26.3729038  59.0724487  47.0285110
  25.7872944  58.3410530  47.2243500  26.0675068  59.7818336  47.5939598
  35.8116837  20.9028816  17.9785919  36.0099945  21.6394215  18.5568771
  36.4423866  20.9835625  17.2630939  55.6273956   6.4982796   6.2071986
  55.8191299   5.9332790   6.9556932  55.3177071   7.3157001   6.5972624
  38.2151947  49.0939331  36.5953178  38.3777962  48.2208061  36.9523010
  39.0085258  49.3025665  36.1020317  32.7036285  49.0538940  75.0242996
  33.1791916  48.3983727  74.5140381  32.1600876  49.5096169  74.3815613
  44.4205666  18.5506668  73.8883133  45.0617714  17.8763027  74.1126404
  43.9666672  18.2035980  73.1203690  33.9787445  57.2915230  30.0386105
  34.4192123  57.2657661  29.1891651  34.3286324  58.0731544  30.4662342
   7.8880067  59.6777649  25.7031307   8.5525303  59.2847252  26.2689590
   8.2334948  60.5458908  25.4952297  85.2324600  52.4471550  26.9530735
  84.3717575  52.8555031  26.8599567  85.8522491  53.1703491  26.8577366
  10.4296541  39.7425346  13.1852980  11.2958403  39.5444412  13.5412674
  10.0580235  40.3766975  13.7984514  35.4398041  66.2236023  28.1551437
  35.5482559  66.3853531  27.2179623  35.0120773  65.3686066  28.2027073
  58.2409821  65.3605118   8.4899740  58.6450195  65.6344223   9.3133564
  58.5941811  64.4854813   8.3293104  45.1936378   1.5853152  54.6287384
  44.3787270   1.1327603  54.4111443  44.9209023   2.4748147  54.8537712
  11.5257139  26.5505867  39.5153923  11.2995005  26.5434017  40.4454498
  11.2098475  27.3968163  39.1986008  81.9191284  13.5204468  50.0589638
  82.3022537  12.8123426  49.5412445  82.1676025  13.3190432  50.9611435
  76.3766861  29.8881073  32.1041718  76.8844223  29.7029076  31.3141479
  75.7749557  30.5856266  31.8441334  49.0515442  44.5862770  19.4112301
  49.7770844  45.2100372  19.4385128  49.3922043  43.8443375  18.9115238
  69.0813751   1.5143125  16.0663242  69.2886658   1.8729779  16.9292374
  69.7104034   1.9301167  15.4767027  62.4063339  65.0011139   3.3860300
  63.0424309  64.5911179   2.7999315  62.8194466  64.9678116   4.2488513
  78.5690613  49.6149483  73.2001801  79.3396835  49.4631653  72.6530685
  78.4227295  48.7799759  73.6447372  30.6508369  70.1734238  24.2830906
  31.3375301  69.5780792  24.5835018  30.4503555  70.7131348  25.0477829
  25.3450375  70.0740891   5.0699673  25.9154377  70.3434753   5.7899013
  24.7513962  69.4334183   5.4615874  33.9254799  54.3024521  82.5455933
  33.5873642  53.5271950  82.9937973  34.2474022  53.9727364  81.7066193
   7.7545223  29.8847008  72.4438629   7.3024678  29.0518475  72.5789032
   7.1770921  30.3790684  71.8621368  73.4632568  54.1102409  33.6370430
  72.7762451  54.5719261  33.1563225  73.2393341  54.2400093  34.5585938
  35.5355911   5.0702381  11.5944920  34.7121887   5.0980101  11.1071882
  35.7777901   5.9892955  11.7080927  74.2212677  53.0152168  77.7211914
  75.1646118  52.8640900  77.6620636  74.1302490  53.7081757  78.3752213
  85.3793259  10.7976742  27.3707390  85.6519318  11.4077024  26.6853333
  84.5141602  11.1083136  27.6376038  29.9925137  34.8317299   2.4424756
  30.6383877  35.4527702   2.7792110  30.4990120  34.0447578   2.2415624
  62.5059357  46.0419350  58.0316238  63.2464066  45.6014137  57.6146355
  62.8633804  46.3898888  58.8485641  55.6957207  43.8334465   7.4977536
  55.6403236  43.4869614   8.3883209  54.9178276  44.3836288   7.4059916
  33.5731163  68.5906296  35.7458420  34.3810081  68.8477402  35.3015022
  33.8378944  67.8833542  36.3339615  57.6668930  49.5957794  58.7644997
  56.8238029  49.4976921  58.3219948  58.1474304  50.2257423  58.2274132
   9.5368795   3.3486869  57.4646568   9.3582258   4.2889972  57.4761276
   8.7276993   2.9472704  57.7813950  43.0205002  32.5705872  15.4549055
  43.2506142  32.9430199  16.3061256  43.7037544  32.8854828  14.8630934
  77.6889954  22.9444962  70.8402481  77.2807236  23.5863590  71.4212418
  77.0683823  22.8461685  70.1181641  62.4232292  58.0867004  40.8098373
  61.9134598  58.8925934  40.8929329  62.0516357  57.6459541  40.0457115
   1.5831579  41.6522408  11.7054996   1.9807293  41.1345711  12.4056349
   2.0151396  41.3475876  10.9074945  41.1018257  17.1477261  39.7512817
  41.5080414  17.9665947  39.4672470  40.2939224  17.4195728  40.1867409
   1.7662624  48.0240746  72.2168655   2.1610045  48.6051064  72.8671112
   1.4265227  47.2890587  72.7273178  15.6288395  38.6381607  35.0031815
  16.4962406  38.9178886  34.7106056  15.7470102  38.4187889  35.9273796
  16.2849350  10.9406385  44.9843521  16.3641872  11.1741819  44.0594711
  16.1964245  11.7796564  45.4365120  30.2509651  69.8274841  79.5098343
  30.1398659  70.0383301  78.5827789  30.0819416  68.8868561  79.5634537
  56.3237610  25.9350643  47.8115616  57.1627464  25.7952557  48.2506371
  56.5598335  26.2381802  46.9348488  58.6345215   8.6396980  52.1215477
  57.7810059   8.7210684  51.6959610  58.4423218   8.7003422  53.0572891
  78.1974792  54.1785011  45.4881210  77.6473236  53.4236336  45.6972542
  78.9164734  53.8150063  44.9712601  53.4269867  70.5944061  16.8892517
  53.9420662  71.1502838  17.4739952  53.7776794  70.7745438  16.0170155
   2.9371536  70.2002945  33.8822937   2.6110661  70.8220062  34.5329666
   3.1296110  69.4078674  34.3835526   2.0429444  22.4249821  55.6945229
   2.1052921  22.4654503  56.6488342   1.8790216  21.5013351  55.5041618
   4.7043924  66.6156616   7.8958836   4.9308925  66.7062912   6.9702950
   5.3895807  67.0980988   8.3584881   0.2160339  38.3997536  65.5026321
   0.3864016  38.1421089  64.5966339   0.3433995  39.3484154  65.5098495
  78.2722855  51.5895004   2.1998661  78.1839676  51.9889565   1.3344955
  78.1082077  50.6581879   2.0516429  70.0911942  43.1036758  70.3980560
  69.7103653  42.6664352  69.6364594  69.4723053  43.8034058  70.6068268
  73.0482788  10.9390450   5.3742476  73.3620453  10.0588694   5.5817909
  73.7832565  11.3553514   4.9239936  19.7111130  21.7114201  89.3043976
  20.3710556  21.0238495  89.2152100  19.2734814  21.7351971  88.4534302
  16.2361984  54.8554764  55.0114403  16.1622028  54.4071198  54.1689835
  16.0572624  54.1756477  55.6610909  15.2637491  55.3860550   7.2720575
  14.7637749  56.0025902   7.8069773  15.9880428  55.9050026   6.9223137
  49.3550301  14.0835819   2.9446898  49.2623520  13.7322083   3.8302290
  48.4802818  14.0066624   2.5637271  30.2543392  10.2481432  28.2558594
  29.9193001  11.1320333  28.4065914  29.4853935   9.7420273  27.9935608
  39.3118553  40.3774681   5.8786263  39.1033897  40.1324158   4.9771161
  39.8478241  41.1660843   5.7946267  22.8860931  50.5676956   9.8056574
  23.0562305  50.7093353   8.8744097  23.3315716  51.2929802  10.2435446
  46.6446152  35.0100975   6.4496827  45.7041206  35.1674881   6.3664298
  46.8239861  35.1192780   7.3835659  32.1467667  16.3360996  60.6085510
  33.0714226  16.3715115  60.3636169  31.8339367  15.5082130  60.2438965
  86.0747070  67.8850174  26.9024849  86.5227051  67.5248108  26.1371231
  86.2033463  67.2279587  27.5865631   1.2765400  44.2242508   7.5110455
   0.6367533  43.6210518   7.8892689   1.0209305  44.2989426   6.5916343
  64.8041077  24.0331478  75.0693207  64.4061050  24.4092216  74.2842102
  64.0634232  23.7079124  75.5810242  65.9159012  41.8134384  12.1273012
  65.0894470  41.7738228  12.6085796  66.4729309  42.3860512  12.6546173
  32.7033310  27.3984489   4.3868184  33.5109634  27.1050968   3.9650276
  32.0386429  27.3363247   3.7008431  56.5164337  61.9224739  25.0962811
  57.3988304  61.8546524  24.7315788  56.4419632  62.8351669  25.3749924
  83.5009003  54.8165665  69.3261566  82.7025757  54.3898087  69.0150452
  83.7791061  55.3670082  68.5941391  73.1939621  19.5892887  40.0472488
  73.2308502  20.1990376  39.3103104  72.2893295  19.2765274  40.0542831
   7.3102298  61.4184723  69.3134613   8.0845337  61.9780388  69.3732071
   7.0794258  61.2309875  70.2232971   3.6428151  69.0962372  71.0742950
   2.7577808  69.4176559  70.9021454   3.9990916  68.8999100  70.2078323
  45.1531792  71.0959930  87.7674789  45.4107971  71.0980301  86.8455963
  45.9761696  71.1939011  88.2463684  38.5802002  51.3456192  20.1592121
  38.3408279  50.4804001  20.4913788  38.1199913  51.4168587  19.3229332
  68.9058914  26.3138885  83.0682831  69.6391754  25.8084087  83.4190063
  68.9022598  27.1201420  83.5841980  46.7256165  57.3961678   8.5925226
  45.9663429  56.8600655   8.3637581  47.4790916  56.8750038   8.3152266
  18.6439323  70.9968567  28.8055344  18.0809383  71.7407150  28.5911713
  18.1338081  70.4829636  29.4315701  25.4873257  33.2743835   7.8998857
  24.7162895  33.0311127   7.3874850  25.1762218  33.2967110   8.8048439
  82.6333084  16.4951229  34.7183800  82.6601334  16.4214497  35.6723633
  81.8935547  17.0769501  34.5437965   3.6144333  19.3519230  83.1942368
   3.3609121  18.7632790  83.9051895   2.8237040  19.8586845  83.0093842
   8.3265743  70.8175964  11.2343931   8.4059639  70.6979828  12.1807652
   7.3992972  71.0092316  11.0941505  18.1075821   7.2724690  18.6137943
  18.5437679   6.6885738  17.9932785  17.7011833   6.6847043  19.2506657
  11.5493937  59.7689590   9.0376425  11.1307411  60.5244370   9.4502087
  11.8406267  60.0924377   8.1851301  58.4076653  23.1977806  29.8612556
  58.5017052  22.2668114  30.0629539  57.7318077  23.5065079  30.4646931
  78.6279526  24.9911346  63.1350327  78.5729065  25.9227200  62.9220810
  77.7566299  24.7684841  63.4628296  20.8496990  40.6072044   9.7640057
  20.7434731  39.8868408  10.3853149  20.1930790  40.4392967   9.0880699
  35.0482216  15.4991884  81.5920944  34.8129578  16.4008102  81.3731003
  35.9761505  15.5430937  81.8228607  83.4961243  51.5155182  85.7104034
  83.0061569  50.7648468  85.3747559  82.8430252  52.0401421  86.1735001
  75.7194748  56.3541107  31.8015766  76.5503845  56.6461220  31.4266777
  75.9017410  56.2492447  32.7353935  85.8974457  59.7139320  69.6551285
  86.7428970  59.6058998  69.2195129  86.1203842  59.9256783  70.5615997
  23.6097565  47.8281136  89.2889404  22.6877041  47.5713844  89.3007965
  23.8669777  47.7548599  88.3698654   0.4299197  63.5930367  73.8105850
   0.1156202  63.7291908  72.9167709   1.2319849  63.0809784  73.7070465
  74.5026779  58.7073746  29.1256275  74.6164551  57.7578926  29.0835037
  75.3450699  59.0358353  29.4398232  28.8501358  68.7011185  10.4376488
  29.3210869  68.5174103  11.2504768  29.3761292  69.3720779  10.0024815
  74.0498199  59.7968407  62.5319023  73.8921356  58.9307899  62.1559639
  74.5115051  60.2761497  61.8439026  35.3098869   2.8576941  34.5987434
  36.1790733   2.4893758  34.7571373  35.3769264   3.2674477  33.7362785
  54.3278809  62.5769920  82.3800201  53.4624214  62.9831543  82.4273529
  54.5521240  62.3842659  83.2904053  42.6180000  47.9357948  24.3767986
  42.6282768  46.9906197  24.5276947  42.6058807  48.3182945  25.2541695
  78.8813400  59.1573029  67.2261810  78.3841019  58.9276581  66.4411621
  79.7428589  59.4140854  66.8974228  65.3713913  69.1542282  38.3823853
  65.0695496  68.3100510  38.7177620  64.6184998  69.5064240  37.9076920
   2.2683585  62.7985992  31.6471615   1.8129836  63.6394806  31.6049080
   2.1306639  62.4965019  32.5449409  58.7575645  53.2756042   6.0106268
  59.4179192  52.5846443   6.0629954  58.1858177  53.1179276   6.7619419
  38.5732613  45.6893806   0.8642065  38.7384109  46.6319122   0.8885491
  38.1710815  45.5387039   0.0087651  49.5211182  48.8148346  31.5225353
  49.9293556  48.0907631  31.0478821  48.8457069  48.3992615  32.0585861
  79.8692627  70.3600540  77.8310089  80.6940536  70.7888947  78.0591507
  79.6059494  69.9060211  78.6314774  61.7448845  43.3087616  61.8578262
  61.5376358  43.7342873  61.0258369  62.6878700  43.4350204  61.9630585
  52.1060486  58.8827362  17.9815598  52.8647919  59.2351494  17.5164318
  51.7699814  58.1958542  17.4058113  40.7478256  41.8475266  44.2444572
  40.8494148  41.2273102  43.5224876  41.5345116  41.7269630  44.7762718
   3.0086908  20.8529530  70.2015457   2.8923497  20.0480137  69.6967926
   3.7599339  20.6744652  70.7672348  58.0821533  52.5640678  79.4174728
  57.7540054  52.6508789  80.3124619  58.5532875  53.3812599  79.2547913
  18.6932735  43.4497414   8.8502817  19.5691566  43.6814156   9.1591291
  18.7124977  42.4962196   8.7687149  56.3793068  16.3614597   1.9437894
  55.4916420  16.3443356   1.5860320  56.8223610  17.0530434   1.4522128
  22.8874168  60.3057442  51.1058731  22.2814484  61.0070724  50.8667564
  23.5539951  60.7370796  51.6405258   3.5165329  67.7819672  86.4213181
   4.1114988  67.0782318  86.6801605   3.9264226  68.5784149  86.7587967
  83.9067383   9.6580381  47.7938461  84.0196228  10.6057854  47.8663902
  84.6768417   9.3615313  47.3088188  34.2918739  26.0761719   7.0870829
  34.2059975  26.7042484   7.8042831  33.8857269  26.5114918   6.3375664
  19.0769978  68.1178665   4.2727494  18.4885902  67.4147263   3.9977851
  19.7783432  68.1117401   3.6213582  43.1259270  66.4288330  44.7277107
  43.7925568  67.0494461  44.4333038  43.1287384  65.7407455  44.0623093
  56.0246010   5.2771816  64.7573242  55.3008766   5.8118629  64.4308777
  56.7977257   5.6221848  64.3106918  65.0374832  22.9395103   6.7969556
  64.9806595  22.1385345   7.3179564  65.5702591  23.5325489   7.3267541
  25.5075760   6.9579582  50.7025642  25.0528870   6.2226725  50.2916565
  26.4152870   6.8711343  50.4114380  77.6105423  38.2639771  68.5113449
  77.3098907  38.9966888  69.0489044  77.9085388  37.6097183  69.1433029
  85.6669769  29.8511944  48.7703018  85.4424133  30.7463589  48.5163689
  86.0578766  29.9397297  49.6395531  59.2563972  12.2925940  28.5819683
  59.9542465  11.6929245  28.8458538  58.8161240  11.8446836  27.8596344
  59.9767189  20.7775917  18.4337349  59.1965675  20.5505295  17.9277325
  60.6382370  20.9851151  17.7737675  34.2714043  22.8979454  10.4959002
  35.1322365  22.6852837  10.8564186  33.7749863  23.2326469  11.2427444
  27.5317059  56.8369713  16.4354763  27.2179489  56.0372353  16.0133266
  28.4816723  56.7279205  16.4790916  32.1430206   4.7673864  58.2044563
  31.8037605   5.5246582  57.7273026  32.7837563   4.3771243  57.6099930
  71.0166016  32.4869843  65.0565491  70.2217331  32.0245781  65.3222580
  71.1653976  32.2078705  64.1531219  58.3091545  60.2516747  43.2978439
  57.5567894  60.4602318  42.7440529  58.8791656  59.7238350  42.7386436
  59.2133636  50.5599709  13.4158354  58.7620468  49.7257957  13.2866192
  58.7253342  51.1823616  12.8766785  51.8158569  48.2495232   4.7272830
  52.7234421  48.4498215   4.9561968  51.4176254  49.1032639   4.5576477
  44.4287758  42.1333160  86.6687775  43.5113297  42.2657700  86.4300613
  44.3959770  41.5740318  87.4448929  73.7862396  13.7476454  38.2532196
  74.0672073  14.0296259  37.3827209  73.8331299  12.7920990  38.2221947
   7.4521990   8.3166542  22.0054550   7.6929893   8.9826984  22.6493797
   6.6175776   8.6197548  21.6480064  65.2312698  51.9069443   0.3945354
  66.0189438  51.3635750   0.4178495  65.0552444  52.0337029  -0.5377632
   0.3931603  63.8306923  20.6029053   1.0659853  63.3467712  21.0818176
   0.7267854  64.7268906  20.5610600  62.2449341  42.5515022  70.2327347
  62.7621803  43.2585182  69.8469620  62.4362717  42.5983505  71.1694412
  16.9927597  52.4802055  20.7194977  17.0946808  52.2577324  21.6448898
  16.1474781  52.9268570  20.6722298   2.5227878  17.5151443  42.8045082
   2.7084162  16.6303368  43.1189728   1.6346371  17.4624481  42.4514580
  22.6438484  54.5040550  75.2637558  22.5516148  53.6785202  75.7393799
  23.4131660  54.3760643  74.7087784  50.3516235  52.3102264  22.0254822
  49.7787361  53.0157776  22.3258648  51.0168457  52.7506180  21.4965534
   3.2513030   4.4753189  41.5689659   3.6077766   5.3617644  41.5108948
   3.3905284   4.2204509  42.4810448  83.0568848  52.1794167  53.6668358
  82.9639740  51.4316292  54.2571030  83.9697723  52.4500351  53.7649498
  39.9269257  14.9337759  16.7583580  39.9535599  14.9954729  17.7131958
  39.0057373  14.7724447  16.5543709  29.0701733  47.7702408   7.7030201
  28.2674980  47.6543007   7.1945882  29.7348042  47.9976578   7.0528064
  17.1951332  28.0695896  65.5818634  16.9858227  27.2301178  65.9913864
  18.1036510  27.9763546  65.2952728  68.6194382  40.5869141  29.6302395
  68.9404449  40.4438400  30.5205841  69.0765457  41.3741798  29.3344460
  65.3759384  21.1090889  15.0682096  65.8811798  20.3004055  14.9845886
  64.7681961  21.0893307  14.3289566  69.7932053  20.3225937  29.3498764
  70.7503510  20.3268681  29.3410854  69.5595779  19.4163780  29.5509338
   9.6994781  63.1387367  68.3954926  10.0091715  63.4047966  69.2612534
  10.4376574  62.6650124  68.0122147  60.9309845  55.7801132  50.5564842
  61.2049713  54.8810081  50.7375069  60.7788849  55.7985153  49.6116257
  35.6906624  55.5305138  43.4440956  35.5796356  54.6216888  43.1649208
  35.1034622  55.6240883  44.1942101  31.9344997  10.3487387   4.6693759
  31.9376583  11.2263279   4.2871985  31.0876255   9.9807224   4.4171853
  74.3287277  64.0843735   9.9744253  74.2752838  63.7427979  10.8670063
  73.4636078  63.9155884   9.6011829  12.8970938  15.8572674  48.7216492
  12.5187378  16.6622467  48.3679733  12.4500046  15.1548605  48.2494545
  34.5158882  50.8335190  22.8060226  34.0975075  51.2951889  23.5326939
  35.1793938  51.4440308  22.4846687  86.3777695  61.3928261  10.1435165
  86.0602875  61.2807846   9.2474794  87.3280869  61.3017349  10.0740499
  75.8996429   0.8239223  85.1733780  74.9782791   0.9085148  85.4186783
  76.2150269   0.0763371  85.6811981  54.8103218  25.2136497  72.0438995
  54.0313454  24.6578941  72.0201569  54.4777374  26.0987167  71.8946457
  70.6815567  62.9392395  74.6744537  70.9767914  63.2273560  75.5381927
  71.2589493  62.2078171  74.4556503  24.7182446   0.8201759  27.0380554
  25.6545868   0.9256299  26.8696136  24.5822525   1.2232645  27.8955269
   8.0469332  26.8066750  64.3153839   8.1603251  26.6668911  63.3752594
   7.7112198  27.7002964  64.3858871  80.7000732  20.5335083  37.8223038
  81.5149231  20.2423382  38.2315331  80.9822998  21.0452900  37.0642433
  39.7692299  58.3364639  45.7355232  38.9446182  58.8214378  45.7031403
  39.6275101  57.5843849  45.1606102  10.5943727  33.2377396  74.3904572
  11.0961351  34.0462189  74.2864227  10.0880775  33.1642761  73.5814514
  11.7039680  19.0488396  36.1628609  11.9683790  19.6941090  36.8185654
  11.3606024  19.5710030  35.4378242  42.9737091  43.1060677  83.7358780
  42.2014694  43.3144760  84.2616577  43.0145187  42.1497421  83.7388535
  68.6053543   2.3885112  87.3472595  67.7101288   2.5196073  87.6596909
  68.9754028   1.7397915  87.9459686  60.1362839   2.5317633  42.6825485
  59.8894768   3.4056971  42.9851379  61.0922508   2.5228944  42.7302361
  51.3303032  31.4762115   9.0705996  50.3796234  31.3976021   8.9914951
  51.4900246  32.4190712   9.1123199   6.1595259  12.0801764  45.7010002
   5.9347038  12.2207155  46.6207466   5.6196294  12.7100592  45.2235146
  49.6477242   3.9214010  22.8098564  49.6094246   4.1605873  23.7358990
  48.7898178   3.5389380  22.6255913  40.9568253  14.5506306  33.6227837
  41.1360664  13.6785507  33.2712440  41.5350685  14.6264019  34.3818092
  26.6903343  30.2841129  16.3165054  26.4394779  30.9537086  15.6801529
  25.9543076  29.6721878  16.3230381   3.4256814  44.7006378  21.7442265
   3.7836869  43.8172112  21.8315506   3.7924559  45.0275841  20.9227562
  44.2706108  19.2745743  82.7491913  44.0337448  20.0370274  83.2771988
  45.2253685  19.3106747  82.6911774  20.0817699  59.1047935  87.7210922
  20.6636276  59.1480865  88.4799042  19.6064281  59.9354897  87.7360535
  86.1247253   5.9882321  12.2393398  85.3447342   5.8626709  11.6989021
  86.1170120   6.9200435  12.4582014   1.9311099  28.9008522  13.0195160
   1.2442857  29.0272312  13.6741400   2.4148564  29.7268162  13.0173836
   8.7919922  42.7234154   3.5420825   9.6095648  42.2261429   3.5191555
   8.9847822  43.5239258   3.0539765  68.6356430  48.6440506  48.7208633
  68.2811356  47.9406815  49.2647629  69.3922882  48.9670067  49.2101669
  54.1986847  51.0881577  76.2538681  54.4699059  50.7610703  75.3961487
  53.4316177  50.5618362  76.4793167  19.5764694  22.0027294  16.6139660
  19.8051624  22.0426960  17.5425873  18.6903973  22.3621140  16.5698318
  61.6916656  11.7833090  75.0804367  62.0166550  11.5844641  74.2023315
  62.3418922  12.3829031  75.4463959  68.3705750   5.1082096  40.9587402
  68.2416992   5.5934706  41.7736931  69.0080338   4.4299827  41.1820755
  78.2018890  22.2272034  78.2939835  79.0455856  22.4207687  78.7025604
  77.6643219  21.8816490  79.0066223  77.5997162  65.7136230  65.7186584
  78.1574707  65.9340057  64.9726181  77.9929504  64.9220581  66.0861130
   3.0017474  16.9564705  38.0209961   3.4005110  16.8794060  37.1542320
   3.6633744  16.6114960  38.6205597  64.6168976  38.4271965  64.9580231
  65.2240982  38.6724548  64.2598877  63.7956390  38.2360840  64.5049896
  36.3632431  59.9863434  40.9274292  35.5624847  60.3675041  41.2876167
  37.0297470  60.1559677  41.5931854  12.5694466  59.6633301  65.2077942
  11.9170923  59.0845985  65.6024323  13.0072327  60.0743065  65.9532318
  12.5019703   0.1901669  64.3383484  12.3995972  -0.0598899  63.4200783
  12.9821625   1.0176895  64.3091354  41.1727791  67.0432968  26.8190403
  41.9235916  66.4682007  26.9666157  40.6430855  66.5833054  26.1678429
  71.0037613   8.0277624  25.5045662  70.8437119   7.1260600  25.2260876
  70.8415451   8.0194769  26.4478836  47.2405128   1.2258157  44.9518089
  47.0664406   0.3518046  44.6024742  46.7353935   1.8133640  44.3897858
  32.6501923  69.1153107  26.5199852  32.7662239  68.9115372  27.4480190
  33.5206795  69.3794098  26.2221012  26.6821766  32.6154137  23.0650330
  26.0447769  33.2201080  23.4449043  27.4899082  33.1254921  23.0048714
  57.8142052  47.3714294   8.6858721  57.3188438  46.9666595   7.9738259
  57.5250015  48.2838860   8.6903477  78.8547516  56.8933830   5.4969006
  77.9797745  57.2700844   5.5903730  78.9846573  56.3874779   6.2990317
   2.1225491   5.7103372  60.5152054   2.9302557   5.3052359  60.8310165
   1.5493021   5.7306952  61.2815018  62.9778442  17.1008034  72.9787598
  63.3442917  17.9782734  73.0882797  63.7237701  16.5605450  72.7181015
  14.7682219   7.5636148  65.7760925  15.7214260   7.4776278  65.7916183
  14.5657234   8.1207409  66.5276489  63.1298523   4.9831085  19.4225807
  63.4764824   5.3860779  18.6265297  63.7180252   4.2477541  19.5944443
  66.1516418  47.9017487  38.6577606  65.3772278  47.8741035  38.0958405
  66.2720795  48.8308296  38.8540688  18.2951641  17.2919140  16.2476559
  17.8075600  17.3051281  15.4240656  18.7907524  18.1108284  16.2457504
  10.3533201  53.3472023  39.4279289  10.1228523  52.5731087  39.9416351
   9.5135098  53.7606277  39.2278519  42.4830322  52.0673027   1.1698648
  41.7387428  51.4929886   1.3499411  42.6215096  51.9910278   0.2258107
  85.3882599  19.2193604   3.5936916  85.2015686  19.1732998   4.5313787
  85.3900299  20.1558266   3.3955491   9.4534311  20.3529377  86.7184143
  10.3744135  20.6120872  86.7478104   9.3445930  19.9529209  85.8556442
  22.3667984  12.3484001  46.9255943  22.5499172  12.3660593  47.8649483
  21.4146309  12.2686005  46.8686485  86.0015030  20.2816372  12.9393854
  85.7339706  20.0226631  13.8211994  85.9981766  19.4657803  12.4387875
  51.2627335   5.5821848   2.7709417  52.1923180   5.8104444   2.7691026
  51.0159187   5.5904131   3.6957364   3.6168840  48.8942032  77.8461685
   3.5040021  47.9736176  78.0828323   4.4011273  49.1691780  78.3211288
  56.3080788  10.6641264  73.0046768  56.7215691  10.3440485  72.2029266
  55.3797150  10.7364197  72.7829819  16.1042271   6.6478362  58.6866341
  16.1134892   5.7251596  58.4320488  16.8190250   6.7292690  59.3180313
  79.9961624  26.9088516  79.2906113  80.2364426  27.7630539  79.6495514
  80.6274185  26.3010578  79.6757431   5.3071003  55.3437042  64.8175507
   5.5604286  54.9739113  65.6633072   4.5429463  55.8861771  65.0125504
  17.4345341  28.2388191  74.8282700  17.0390091  27.8781071  74.0347443
  17.7716656  27.4749737  75.2963638  75.2180023  17.0237904  44.6062279
  76.1646805  16.8825188  44.6154175  75.0547638  17.4997311  43.7919388
   6.4021630  65.5586777  18.7468510   6.4151745  66.1869583  18.0248184
   6.6775351  64.7322083  18.3501797  71.0059357   4.5374947  83.2347260
  71.1315994   5.3728337  83.6848907  70.7224503   3.9350748  83.9224472
   6.6533546  62.6300430   5.9674983   5.9649820  62.0235062   6.2404180
   7.3061924  62.0751076   5.5407920  74.4051132  32.8246078  81.6364746
  73.9162292  32.9403725  80.8217239  73.8744278  33.2667618  82.2991180
   5.7972832  40.3470001  12.4903984   5.1924467  40.8014336  11.9039717
   6.5073462  40.9726753  12.6338348  16.6128998  14.4579763  42.6863022
  16.0347176  13.7251596  42.4743652  16.0189972  15.1800117  42.8916702
  15.7653751  60.0402756  17.6072292  15.6873188  59.1474190  17.2711506
  16.4214973  59.9783859  18.3014221  16.4578438  53.7822990  24.6785793
  16.0357666  53.9748306  25.5158463  15.8548346  53.1831474  24.2385502
  67.7108536  19.9648247  47.5032501  68.4358215  19.5451050  47.9663849
  67.5715408  19.4175835  46.7303696   5.4084435  58.9896622   1.6008669
   4.8592777  59.6159286   2.0725038   4.8131886  58.5687218   0.9806147
   0.5995613  20.2132778  48.0609093  -0.3573660  20.1928291  48.0507202
   0.8204046  21.1393890  47.9620285  81.0244904  24.8018665   3.0347691
  80.6849594  25.6044960   2.6388702  81.6837921  24.4894829   2.4151123
  35.0069847  44.0303192  86.8398666  35.8611298  44.2064171  86.4453354
  34.5046310  43.6062813  86.1441193  29.2233963  49.2666626  74.6025543
  29.8075352  49.8286552  74.0934601  29.5096264  49.3820114  75.5086441
  42.0584908  63.3281822  47.1928787  42.8675842  63.0192223  46.7852707
  42.2556992  64.2234726  47.4681702  84.6349716  42.7862053   0.8100382
  85.4015045  42.2494659   1.0114359  84.3157043  42.4440727  -0.0249735
  85.5322723  29.8881493  63.9446487  85.3527756  28.9502163  64.0102158
  85.2685852  30.2424049  64.7938919  36.8935623   2.3051476  88.8564682
  37.6665306   2.8637655  88.7746048  36.3222046   2.7744203  89.4643860
  78.9851303  66.4895020   4.9974585  78.1175919  66.8128662   4.7544708
  78.8963699  66.2319031   5.9150624  55.3260040  28.3274326  78.8085632
  55.7918472  28.6570110  78.0400620  55.9425392  27.7225933  79.2212219
  39.6656303  27.6200562  19.4181538  39.1178818  27.1610222  18.7813721
  39.0515747  28.1561184  19.9199543  46.5823288  15.1729631  76.9382553
  45.7046928  15.0418453  77.2971344  46.4606476  15.8106413  76.2348404
  86.7725525  58.5782661  14.8389492  86.2096100  59.1453094  15.3660069
  86.9575729  59.0897408  14.0512991  70.8948669  33.4939194  75.5708923
  71.5697632  33.8514900  74.9939346  70.2834320  33.0538979  74.9803238
  73.7798691  43.5341759  48.8162575  73.0288467  44.0084496  48.4595222
  73.7355881  43.6902275  49.7596130  48.1260719  67.4863815  85.2483292
  48.3034935  67.0491638  86.0811539  48.2980080  68.4118118  85.4222488
  31.7579994  63.3610420  67.5781860  32.1137810  63.2001762  68.4521255
  32.0283661  64.2554474  67.3704224  31.5844460  59.7039108  77.6417465
  30.8861256  59.1528473  77.2883224  32.1535835  59.0960083  78.1137314
  56.3125458  31.0947819   3.8356874  56.6576767  31.0890388   4.7284822
  55.7522850  31.8700886   3.8004673  52.9482651  10.5594416  58.0586205
  53.7505951  10.9796324  57.7488861  53.2264824   9.6862173  58.3348579
  58.8293991  28.5995541  40.9565849  57.9208603  28.6883163  40.6686401
  59.1636238  29.4963264  40.9746552   5.3800893  46.2617416  79.8466415
   5.4018416  47.1885605  79.6083908   5.2096319  46.2605095  80.7885437
  49.0764809   2.3677981  84.4089584  48.4603539   2.8503892  83.8578491
  48.8460770   2.6197762  85.3031921  45.5310745  49.5055351  74.4154053
  45.9408836  49.8292427  73.6132202  44.6342964  49.8380356  74.3772430
   4.0443726  38.2946358  16.4065418   3.8220389  39.0960884  16.8803215
   4.7383780  38.5582848  15.8023262  80.2008896   0.7306111   1.0821748
  80.1811523   1.1304631   1.9516346  79.2894745   0.4980779   0.9047406
  35.3010674  69.5447311  25.6779480  35.2964554  70.2474289  26.3278923
  36.2286606  69.3881378  25.5010986  54.0861626  56.2715874  44.9647980
  54.7307587  55.6030273  45.1966438  54.2062950  56.9579277  45.6211090
  34.4332047  27.7710228  20.5986271  34.5941849  26.8341846  20.7111168
  34.3682709  27.8908176  19.6511765  70.0276794  50.7652893   1.1662363
  70.3959427  50.1550179   0.5273438  69.0921021  50.5633545   1.1786896
  73.9538269  43.8374710  23.2586765  73.6581802  43.1242676  23.8245068
  74.0805435  43.4275513  22.4030228  14.0668211  39.0070724  23.0920715
  14.8251772  39.5903282  23.1227055  13.4518147  39.4445572  22.5033436
  70.0858841  13.7359467  47.6393166  69.5726776  14.4707098  47.9754410
  70.9369354  14.1171398  47.4233627   1.4213948  44.9511795   0.4476186
   0.5938007  45.3215179   0.7544879   1.5324680  44.1527061   0.9636966
  42.8503952   1.0093421  88.1924973  42.9851418   1.5892900  88.9419861
  43.5839081   0.3954986  88.2297211  14.1003466  27.1652603   7.1225457
  14.0908928  26.5220737   7.8313856  14.9422245  27.0299911   6.6876025
  32.6689873  70.7170792  29.0720615  32.9824486  69.8130951  29.1002674
  33.4314575  71.2265167  28.7975883  38.4992409  69.1622772  82.4179688
  37.8849030  69.7536240  81.9830856  38.0555458  68.9088974  83.2273941
  41.9812737   8.9885216  51.2120171  41.4141388   8.6766348  51.9172211
  42.0270844   8.2546415  50.5991936  80.8723068  10.3213491  42.7279587
  80.2453995  10.8735056  43.1952209  81.6360779  10.2859688  43.3038406
  57.0900116  43.7909088  51.3232841  56.3085785  43.4640999  51.7691345
  57.2076492  43.1982841  50.5808601  39.1534119  57.2508240  41.7710457
  39.5459099  56.8303947  41.0059242  39.2793694  58.1876831  41.6205063
  21.3144016  10.5248232  72.7444229  21.4564228  11.3856430  73.1381912
  21.8491020   9.9298296  73.2700729   4.0386524  45.1483612   3.6288419
   4.6381931  44.6486626   4.1829934   3.6743624  45.8153877   4.2107368
  32.3770676  61.8069115  51.8286781  31.9821472  61.6907578  50.9645157
  31.8097591  61.3119278  52.4197655  49.9419823  34.1887321  64.1286316
  49.8300934  34.9247284  63.5269470  49.5837250  33.4369621  63.6566925
   3.3393152  34.1432228  65.7399521   3.1906402  35.0882607  65.7077713
   3.4822340  33.8920364  64.8274231   6.9191561   7.3904200  31.7712307
   6.3283553   7.4863958  31.0242538   7.2160544   8.2810879  31.9577618
  18.9555435  66.7163315  46.8373604  19.7485504  66.5992203  47.3604813
  19.2389278  67.2375870  46.0862122  16.7150497  35.6179123  11.0574083
  16.7790051  36.1095467  10.2386065  15.8298998  35.7960510  11.3752260
  10.7881403  50.8196983  28.8768997  11.5588694  51.3644753  28.7174397
  10.6180515  50.3936005  28.0368137  83.3079910  66.8270416  26.7579994
  82.5871964  67.4458618  26.6407413  84.0730133  67.3786240  26.9214764
  67.2570801  10.0892220   7.8533125  67.6154175  10.1597185   6.9685211
  66.6898727  10.8549461   7.9437165  70.4776917  36.7205811  10.5323744
  71.2942886  36.4144020  10.9269085  70.6397171  37.6422691  10.3312082
   4.8667831  37.2248039   2.4708753   5.2713423  36.7211647   1.7645370
   5.5322003  37.2501678   3.1584857   4.9887066  54.7049103  58.7946701
   4.8871398  53.8550758  59.2232704   5.2233500  55.3040428  59.5033417
  38.0607147  37.2312660   9.5642328  38.2495308  37.2903252  10.5007648
  38.8475876  36.8393097   9.1855078  76.0911636   8.7147064  81.9209671
  76.5726471   8.3386717  81.1840820  75.5535889   9.4031839  81.5295105
  21.1371861  34.4521980   2.0958605  22.0695324  34.2593155   1.9970731
  20.8437939  33.8655624   2.7930040  64.9649048  40.2083931   4.3970451
  64.1106567  39.9605484   4.0433936  64.7653046  40.6254311   5.2351813
  76.5679626  21.2297935  80.1767883  75.9342422  20.5184937  80.2699890
  76.0398331  22.0273132  80.2125168  54.9382401  53.2910690  61.0067635
  54.8505630  52.4404716  60.5766144  54.6980782  53.1244202  61.9182358
  81.3066025  32.8571548  71.1384048  81.0566635  32.0350380  70.7166367
  80.5078506  33.1558113  71.5731735  61.7235565  61.4006386  70.1712570
  61.8640594  61.6061249  69.2469940  61.6193085  60.4493561  70.1919556
  17.9929485  67.7150574  72.3571548  18.1567535  68.2857666  71.6063614
  17.4597855  68.2454224  72.9493408  68.9087219  16.1883392  82.6655197
  68.2443695  16.8499069  82.8583984  68.6394043  15.4231920  83.1737061
  78.0238953  58.8197784  79.4416809  78.5520096  59.3578224  80.0314560
  78.0477600  57.9450340  79.8295975  62.7947731   9.5943089  80.4626617
  62.2072716  10.1249876  81.0006714  63.6091156  10.0963564  80.4305878
  61.1645775  64.0429230  77.0478516  60.5574875  64.3147430  77.7361755
  61.2392082  64.8085632  76.4782410  51.7823257  12.6414547  11.7487812
  52.4713860  13.0705395  12.2560415  50.9786911  12.8205748  12.2369614
   6.7730422  39.5727997  88.5387878   7.3400669  39.6981812  87.7778702
   7.0976090  40.1996841  89.1852417  78.1436539  40.2142715   6.3556190
  78.6157532  39.6532555   6.9709353  77.4286728  40.5870247   6.8714571
  23.5311966  59.7178650  10.3940039  24.4412899  59.9921608  10.5068064
  23.5906105  58.8310089  10.0387764   5.5820260  13.8483000  50.4456024
   5.4546623  14.0596399  51.3704529   5.5839357  14.6975031  50.0039253
  53.2569504  48.7591934  79.6074600  53.9208069  49.4461021  79.6681366
  53.5806999  48.0621529  80.1780319   7.1348085   9.2207880  13.2158689
   7.7803917   9.4404573  12.5441542   6.5688052   9.9911432  13.2651176
  65.8607864  46.7087975  77.4107285  66.5870972  47.1551819  77.8459854
  65.0762024  47.0668297  77.8260345  62.5423775  22.7899437  44.1366882
  62.6580086  22.2585506  43.3489799  62.0124512  23.5331745  43.8485565
   7.7388711  56.5253296  41.0381508   7.6737905  57.4674950  41.1941071
   7.3818245  56.1260223  41.8314362  74.6253052  53.0633659  87.8771362
  74.3342819  53.9639244  88.0204315  74.0631256  52.7390709  87.1735611
  49.6372566  43.8331413  14.1788979  50.5643234  43.9870262  14.3608179
  49.4912682  42.9220047  14.4333582   1.4242431  65.7376328   9.1811552
   2.0054410  64.9956512   9.3481970   0.5962888  65.4908524   9.5932503
  18.6405258  62.7132912  54.3645973  18.7045422  63.3792381  55.0491791
  18.1809425  61.9845200  54.7816162  42.4200287  19.8037205  31.9862480
  43.2853279  19.6594849  32.3692436  42.0245094  20.4801655  32.5359917
  76.0197525  43.3032494   5.7467923  76.8323059  43.5817986   5.3244076
  76.3043671  42.7333946   6.4612784  15.4411545  33.2216797  85.2668991
  15.9063406  32.7777634  84.5578308  14.5435801  33.3097649  84.9462204
  74.1372986  34.0038719  75.8279953  73.6267624  33.8837013  75.0272827
  73.8549423  34.8533897  76.1668472  66.7221222  58.0070038  33.0578156
  66.9520493  57.6496468  33.9155235  67.4913483  57.8378563  32.5138397
  85.1167297  39.5968018  67.2841492  84.4920273  39.5898476  66.5589371
  85.9313431  39.2706528  66.9016953  48.9627304   3.6106694  68.0761337
  49.3666000   4.4742007  67.9899139  48.1173820   3.7819855  68.4911880
  85.5809708  10.5355062   8.3455296  85.9530182   9.6638622   8.4798756
  84.9524002  10.4203911   7.6328692  79.2570724  27.8657303   6.4529209
  78.5499954  28.4523678   6.1843491  79.6584778  27.5826168   5.6313648
  72.7452393  68.5202026  67.9377747  73.6293564  68.2228928  67.7228699
  72.8777924  69.2374954  68.5575714  67.5085907  28.7548523  41.9476509
  66.9156494  29.2543640  41.3862801  67.9897537  29.4200935  42.4397545
  14.9903307   0.8884088  88.8933029  15.3324509   1.4803014  88.2233429
  14.8690863   0.0553973  88.4376450  78.7864380  49.2441025  33.5837059
  78.4992599  48.9617577  34.4520607  78.2927246  50.0471344  33.4175148
  64.6986160  70.0686722  45.0571861  65.1171494  69.8139191  44.2348976
  65.4261169  70.2041016  45.6643295  19.5626316  11.6897821  54.7862473
  19.3956871  11.1869602  55.5834503  19.4955788  12.6041451  55.0613441
  44.1808014   8.7432384  22.8548164  44.3885231   9.3923998  22.1827507
  44.1818695   9.2380371  23.6742096  67.4750519  51.3044930  11.2711401
  66.7844086  51.9672279  11.2660980  68.1785278  51.6956024  11.7891989
  64.7027969  22.0192299  56.7245255  64.6488113  21.1220837  56.3952103
  63.9002571  22.4375076  56.4127502  74.5987701   8.9562807  36.1599312
  73.9290009   8.4907560  36.6608582  75.3163376   9.0840378  36.7804222
  20.5222797  25.7006454   8.1903715  20.8311462  24.8665180   8.5440140
  19.8244801  25.9702873   8.7875328  25.7063141  56.6511841  58.3979950
  26.2149239  57.3516922  58.8064499  24.7967834  56.9393806  58.4750023
  45.0071259   4.0380111  71.4415359  44.3179626   3.3816283  71.5437317
  45.7422638   3.6944897  71.9492722  46.5056305  44.1964073   5.8716345
  45.8139954  44.4106178   5.2455482  47.1581001  44.8866920   5.7532072
  23.7191849   5.5867085  22.9512787  23.0162315   5.1812506  23.4589119
  23.8896770   6.4159050  23.3980408  22.0791817  70.0494843  75.2664795
  22.4341221  70.8297424  74.8405151  21.6243801  70.3844299  76.0392609
  33.0024986  53.4750595  26.1682720  33.7825012  54.0016747  26.3429241
  33.3426208  52.6046371  25.9611034  63.4990273  17.9514790  13.8548956
  63.6206703  17.9175339  12.9060631  62.8445816  17.2770424  14.0367460
  39.2176781  19.0952740  14.5485725  38.4781380  18.9211807  13.9663305
  39.9863510  19.0480442  13.9801149  72.6811218  59.2336540   0.7930156
  72.4601212  58.3253136   0.9987070  72.3328552  59.7373734   1.5286858
  78.5592575  24.0024395  21.4657993  79.4031982  23.6956043  21.7972240
  78.0096970  23.2189236  21.4480820   0.4913113  31.5908680  62.5093880
  -0.1532031  31.1025372  63.0216064   0.5744950  32.4285240  62.9650650
  79.5987167  24.5083923  34.6894722  80.2825546  23.8424129  34.7607193
  80.0666275  25.3069897  34.4454803  16.6762276  64.5593185  63.1634178
  16.5773487  65.2572708  62.5158730  17.5432663  64.7048721  63.5419540
  81.4701385  67.7880783  74.3923416  80.5639572  67.4810944  74.3635712
  81.5133820  68.4700546  73.7220612  68.6051483  21.6074162   5.2551317
  69.2426071  22.1796684   5.6822257  68.2033386  21.1184349   5.9732370
  41.4874916  16.8796043  80.0895844  41.2692566  16.0428295  80.4999619
  41.1248131  16.8148956  79.2061234  19.2689209  28.0131378  58.5541763
  18.5748482  27.4105644  58.8213806  19.4176712  28.5632973  59.3232193
  38.5154381   5.4744372  21.3190041  39.0407257   6.2712889  21.2459774
  37.9587898   5.6237106  22.0832634   6.2643352  22.6339588  24.1463203
   6.0790696  21.8257008  24.6244698   6.8120680  23.1447086  24.7424355
  70.1033783  66.4330978  52.1464920  70.9308929  65.9558334  52.2071762
  70.0998764  67.0049820  52.9140587  50.5489235   3.4069726  62.2172127
  49.6510315   3.7384715  62.2284927  50.8277855   3.5016983  61.3064461
  66.3932953   1.4259645  61.4778290  66.5347824   0.8405116  62.2217751
  65.5163498   1.7832528  61.6176109  68.6016922  69.8007126  12.3937063
  68.2825928  70.3572235  11.6832867  68.7146530  68.9396515  11.9911585
  62.6769829  11.1165962  72.5111084  62.5815697  11.8460646  71.8987274
  63.5541382  10.7736073  72.3402405  38.3196831  56.4264412  36.9134827
  39.2427254  56.6733627  36.9705162  38.3243408  55.4702873  36.9579773
  16.0131493  65.4461212  37.1413498  15.8062525  65.6952820  36.2406044
  15.4420919  64.6990814  37.3203964  40.2741852  53.0606422  78.7660141
  39.3752022  53.3820267  78.6969147  40.7175522  53.4225235  77.9987488
  53.1261787  59.1063919   0.3482021  53.0895004  59.2367554  -0.5993698
  54.0613518  59.0670204   0.5485340  56.8450508  12.8994827  24.6738110
  55.9454041  13.2216644  24.6184425  57.3661919  13.6773129  24.8728771
  61.3558044   7.8685603  65.4521179  61.1254807   8.7398520  65.1295776
  60.5166321   7.4170628  65.5425110  36.1726151  28.4016838  83.4350357
  35.7555923  28.1542187  82.6097565  35.6326714  29.1170197  83.7711716
  23.4058571  27.4303703  82.9856567  23.2343464  26.5962200  82.5486145
  23.5449142  28.0512905  82.2705688   8.8316727  23.1435699  61.5913773
   9.0925360  22.6537342  60.8114777   8.1819429  22.5853882  62.0185966
  86.4489136   3.3988268  12.9685421  86.4018860   4.3080235  12.6729374
  86.5010300   2.8869395  12.1613941   5.8654642  53.9960632  77.1039658
   6.0393338  53.2887192  76.4829483   6.2825570  53.7093964  77.9164200
  51.9363861  63.9822731  82.8262482  51.6111069  64.4228058  83.6113358
  51.1494217  63.7881775  82.3170853  82.0475693  48.8950806  42.8705063
  81.4662704  48.9627113  42.1130409  81.8192825  49.6480751  43.4155922
  16.0617867  42.3890953   0.3428405  16.0544529  43.2682495  -0.0356650
  15.9455576  42.5317688   1.2821841  81.3646698  60.9065933  86.4852066
  82.1995392  61.2630424  86.1816101  81.6066895  60.2670403  87.1549988
   4.0022936   3.7062259   5.8320227   3.3547335   3.4582822   6.4918876
   3.9649146   4.6623731   5.8071761  83.0199661  69.6297684  44.9310493
  83.6149750  70.2936783  44.5826035  83.1213455  68.8835068  44.3402367
  17.5601673  24.2233295  16.6286659  16.7302513  24.5751972  16.3067017
  17.8090057  24.8112659  17.3418579  23.8599052  18.3637447  54.6145058
  23.9437141  19.1691914  55.1248627  23.2488136  18.5874729  53.9125481
  54.6080055  65.0445023  88.5694199  53.8387489  65.5632706  88.8046799
  54.5035858  64.2269669  89.0562134  68.4043655  58.1828804  30.1381741
  68.6260605  59.0733414  29.8658485  69.2233963  57.8268509  30.4826374
  16.8169441  34.8688812  73.6275787  16.4826450  35.1659660  74.4738770
  17.4106960  35.5651894  73.3467865  66.8184509   6.8857522  42.7301025
  66.1183243   6.8128777  42.0814514  67.1878967   7.7570910  42.5868912
  84.5167542   1.2742190  35.0412369  85.3898010   1.5925727  35.2707558
  84.1800842   0.8927898  35.8520355  85.7470016  18.1434269  37.1204758
  86.3673325  18.6110535  36.5612335  85.6774216  18.6853714  37.9064064
  37.3807144  26.4727898  47.6564674  38.1242714  25.9784832  47.3114815
  37.0180244  25.9122868  48.3424149  39.9233513  54.7755508  23.4321518
  39.2162170  55.2674255  23.0147152  40.6806870  55.3591194  23.3860683
  85.3464661  41.6059799  82.4328995  85.3143845  40.9899750  81.7009583
  85.7339783  41.1051102  83.1506729  17.3883781  49.0903282  36.0034256
  16.6421757  49.5699768  36.3630753  17.3645611  48.2425461  36.4471970
  18.4868984  62.1926079  78.0838318  18.1903172  62.3031273  77.1804733
  19.4146938  61.9704742  78.0058365  59.6644478   6.5731850   4.2178230
  59.0211868   5.8698430   4.1297302  60.2380600   6.2855716   4.9280882
  62.0499878  36.0124931  47.2828178  61.6572189  36.6574059  46.6945534
  61.3145218  35.6761627  47.7948761  15.8963575   9.0148048  46.7598572
  15.9684057   9.8915787  46.3826180  15.7509899   9.1670294  47.6936264
  12.7430639  36.2945480  19.4428730  13.0866966  36.0665817  20.3066902
  12.0367193  35.6662636  19.2926502  73.4798889  57.6134224  33.5651588
  72.6526260  57.1373138  33.6372337  74.1521149  56.9513054  33.7262115
  37.8959618  67.1154556  74.1438065  38.5977364  67.0671539  74.7929688
  37.2465477  66.4802170  74.4454269  61.0901718  42.3748512  56.1261215
  60.4763603  41.8652039  56.6550102  60.5342369  42.8692207  55.5238228
  81.0910568  26.8189240  88.3589630  81.9309464  26.6559715  88.7882156
  80.4405746  26.6927891  89.0497589  83.2873764  43.7910728  21.9828396
  84.1680603  43.9282990  21.6338520  83.2509689  44.3422012  22.7646084
  25.7179585  61.1326408  56.1027031  25.0226860  60.7201233  56.6152039
  25.3063412  61.9079628  55.7210236   2.6337969   7.2313108  58.4270935
   3.5613768   7.2940760  58.1993027   2.5900855   6.5122905  59.0574341
  81.3095016  45.5742607  15.4609747  82.2090607  45.4102135  15.1779184
  80.9272690  44.7024612  15.5614414  38.2281189  49.8894768  86.2618408
  38.0721626  49.1695786  86.8731079  37.4158401  49.9578590  85.7600784
  76.2735825  63.7061920  74.8794098  76.4645767  62.7768974  75.0065155
  75.5523605  63.7185974  74.2501831  36.9646568  39.7172661  24.7125397
  36.2819443  39.4052734  24.1185760  37.7533226  39.2496376  24.4376526
  11.5332317  61.1655464  38.6124382  11.9320431  60.6209526  37.9337616
  11.6445065  62.0621185  38.2961884  44.5400925  71.7279358  73.4722977
  43.7052193  71.2885590  73.6340714  45.0564575  71.0880966  72.9821854
  18.3591747  57.8934669  70.2628937  18.9729195  58.5673409  69.9705963
  17.8288727  58.3264198  70.9318924  79.0636063  37.0617447  41.8728294
  79.5786438  37.4907799  41.1895294  79.3656693  36.1534843  41.8657455
  83.6545792  46.5330086  74.5294113  84.0131378  46.4119110  73.6502075
  84.4092407  46.4396248  75.1107941  73.1916809  44.4239426  27.2397079
  73.0273666  44.9654541  26.4676991  72.8377457  44.9329224  27.9690208
   4.3224707  36.9768448  81.9980927   4.7100115  37.8214493  82.2276306
   5.0644722  36.3728409  81.9690247  51.4822578  29.5145283   6.4760089
  51.1959610  30.3782501   6.1789370  52.1183052  29.6977444   7.1674614
  55.7445221   1.3397107  21.5130005  56.1572762   0.4910736  21.6732502
  55.1061478   1.4329013  22.2201214  28.2007065  31.0534058  21.0991135
  28.1119995  31.8911648  21.5535622  28.0310726  31.2603245  20.1800709
  27.6482220  41.1575127  14.9909010  28.5158272  41.5602798  14.9552307
  27.1155281  41.7796555  15.4862881  75.2348633   6.9911175  54.0356293
  75.7025528   7.4739537  53.3541832  75.2150345   6.0881419  53.7186546
  55.0412445  25.2598534   4.7893949  55.6740379  24.6388035   4.4286957
  54.7982979  25.8127708   4.0467710   4.1104355  32.1847954  32.0950775
   4.2186651  33.1045151  31.8529434   4.9807220  31.8030071  31.9807415
  18.8030605  61.8463402   9.3419399  18.9491463  62.3851662  10.1194725
  19.5108318  61.2021751   9.3605080  47.3762360  68.1616135   5.7230468
  46.8073502  68.3549957   6.4681668  47.5550385  69.0159454   5.3301430
  69.2224426  60.3360405  82.9067688  69.6301880  60.0001411  82.1085587
  68.3871460  60.7004318  82.6139603  63.5613785  21.0408669  35.4311562
  63.0796051  20.3269730  35.0134468  64.4075241  21.0527363  34.9837990
  82.1712799  51.1366997  18.2649231  82.7408600  50.8077545  17.5695057
  82.7722702  51.4047470  18.9600468  80.0067444   2.8226571  29.9060135
  80.7171860   3.1989684  30.4255276  79.3364182   2.5913339  30.5489559
  11.1025791   5.1067142   6.3850918  11.4998913   4.3518567   6.8193316
  10.4218845   5.4004574   6.9905686   2.3967795  22.5888672   3.7798436
   1.5907973  23.0966053   3.8737960   2.2563872  21.8138294   4.3237524
   3.4967222  12.7484608  86.3089447   2.5744150  12.9947739  86.2388687
   3.9744983  13.5645714  86.1608734  34.9400711  31.5815220  22.7131729
  34.7035751  30.6958389  22.9886093  34.1383400  32.0910454  22.8308430
  23.8290119  45.0063858  36.8708839  24.6053925  44.5178452  37.1443672
  24.1743107  45.8249741  36.5146332  85.7225571  44.4426041   2.6508327
  85.0889740  45.0925865   2.9546807  85.3185425  44.0602150   1.8718673
  34.9570503  24.2696781  77.7578125  34.8025970  24.5681953  78.6540604
  35.1358109  23.3333397  77.8446808  86.4481964  10.0696630  49.9829102
  87.1605148  10.6195412  50.3092041  86.5562057  10.0771656  49.0318527
  66.8991547  62.2558784  42.5574646  67.3961411  61.5224533  42.9198532
  65.9857178  61.9741211  42.6072998  61.8647957  51.2783585  59.4737778
  61.1400032  51.1032066  58.8735924  61.7418671  50.6519394  60.1870232
  29.4648647  19.9936714  61.3799362  29.6656170  20.4280090  62.2089615
  30.0636024  20.3933048  60.7490349  81.0060043  51.0182800  26.9157982
  81.5810852  50.4486618  27.4267178  80.3694916  51.3473930  27.5504456
  69.6677475   6.4460444  23.3730679  70.3521042   6.9854150  22.9768887
  68.8485565   6.8468242  23.0823116  55.1430588   2.9829912  28.5074615
  55.0975266   3.7503998  29.0777626  55.2201004   2.2420859  29.1085911
  28.2101002  18.3712502  80.3240509  27.6254234  17.6285629  80.1730576
  29.0901661  18.0016785  80.2524185  47.9022255   8.0158253  22.4177570
  47.7207794   8.9048042  22.1127586  47.3595963   7.4564857  21.8619499
   0.4890948  70.3758392  39.3618546  -0.1052138  70.3225861  40.1103172
   1.1696801  70.9889526  39.6395798  69.2717361  62.9357605  23.5602493
  70.0161514  62.3596382  23.7339191  69.2203979  63.4999466  24.3318005
  46.9400711   4.7845063  38.3813934  46.2137985   4.5796065  37.7925186
  46.7146530   5.6378660  38.7517967  74.4588242  34.8145142  58.5837097
  73.6173325  34.6575737  59.0120659  74.2425079  34.9012642  57.6553192
  31.6962967  67.8911819  88.4120178  32.0182114  68.7336807  88.7326355
  30.8236275  68.0831375  88.0687408  42.5507545  59.4586067  86.5593109
  41.9876862  59.3226128  85.7972717  42.7140656  60.4016953  86.5711899
   1.4225767   3.0463660  22.0748825   1.8402538   3.8840547  21.8747444
   1.5292193   2.5288243  21.2767525  27.3938408  58.5459061  40.0062904
  27.5637970  58.0151329  39.2280731  27.0343456  57.9285927  40.6434097
  18.0671844  19.5652504  37.3998337  18.7221661  19.8431187  36.7595062
  17.9114151  20.3427811  37.9359436  55.2980576  66.8585052  49.5911255
  55.1592255  67.7099686  49.1764297  54.7160378  66.8644562  50.3510246
  59.1358833  34.8308029  47.7720337  58.3968086  35.4368782  47.8237305
  58.8473244  34.0590897  48.2593002  65.4765167  56.6440811  37.3116188
  65.1609955  57.3931732  37.8171272  64.6915741  56.2887802  36.8946609
  55.9322929  63.1837158  22.3892155  55.1133118  63.4995079  22.0074062
  56.0790710  63.7523079  23.1451168  32.8440857  43.3044624  24.3462772
  33.2456512  44.1571350  24.1791763  33.5652084  42.7567787  24.6565323
  14.2965021  69.7130051  87.4282455  14.2075138  69.7112732  86.4751892
  13.7383175  68.9931107  87.7222214  26.8267536  51.8035088  76.0951080
  26.9429073  50.8596230  76.2038345  26.3963585  52.0863762  76.9019394
  52.8133850  16.8952789  67.7736740  52.3722801  16.0956192  67.4869614
  53.5233612  17.0163918  67.1431961  61.5047913  19.0254955  80.8956680
  61.2025108  19.8446426  80.5034256  61.5133018  19.1994572  81.8368912
  20.4235249  32.2567062   9.0117397  19.5128632  31.9868755   9.1305609
  20.3665161  33.1057167   8.5733747  71.7567062  41.0640564  41.8523941
  71.4123840  41.7824135  42.3830910  72.4279022  40.6602097  42.4025154
  13.3259058  44.4376869  25.4505043  12.6478348  45.0555267  25.1771526
  13.9588404  44.9730034  25.9291077  67.0137329  12.8968573  41.7377396
  67.2249527  12.6257935  42.6311264  66.7321854  12.0916853  41.3033867
  74.2206192  67.7109909  76.5490570  73.6980133  67.5447006  75.7645340
  73.5753479  67.8282089  77.2462845  77.2190552   6.7520609  24.9326229
  76.5956802   6.0366449  24.8068676  77.7313309   6.4915924  25.6981049
  26.4678955  50.1602554  10.1086206  26.4726334  50.3758736  11.0412064
  25.7827702  49.4977722  10.0194387  19.2845669  57.5737762  34.2203369
  19.2208271  58.3487282  33.6621094  19.2201347  56.8358917  33.6140327
  53.7588348  26.9818840  13.0478764  53.4142075  26.1612015  12.6958170
  53.9085617  26.8003426  13.9757004   3.9270542   7.9737930  18.6017799
   3.9899817   8.1097116  17.6563702   4.6246476   8.5168428  18.9687843
  59.5513687  14.9496441  56.7428284  59.0759659  15.3095961  57.4916000
  59.9916382  14.1735229  57.0892792  78.5266876  15.0925837  56.0115166
  77.7692032  15.2920799  55.4613724  78.9998474  14.4136066  55.5305405
  52.2488251  44.9383507  24.7451763  51.9240532  44.7629013  23.8620148
  53.1201553  44.5424957  24.7629871  10.7827454  47.1321526  11.6741438
  11.1153517  46.8791695  10.8129787  10.6470661  48.0775299  11.6102428
   2.9141645  61.3334503   0.2495297   2.5056322  60.7024994   0.8421786
   2.1883276  61.6782455  -0.2705751  76.7764053  56.2609520  18.6307259
  75.9750214  56.7154846  18.3710766  77.2768402  56.1753387  17.8192654
  42.2136650   0.0484450  68.2323151  41.8694305   0.8751191  67.8941650
  41.6908493  -0.1265142  69.0148010  18.9555054  36.3230057  27.8047390
  18.7843418  35.5059395  27.3363991  19.4008007  36.8775368  27.1640816
  23.8780346  67.2047806  77.7164917  23.8828888  67.3337479  76.7680359
  24.3054333  66.3580322  77.8452682  53.5487328  11.1463947  72.8688431
  53.2270927  11.0223808  73.7618179  53.2053757  12.0006886  72.6070786
  25.0203419  70.0901260  51.5861626  25.3420868  70.7057190  52.2447662
  25.2043915  70.5168152  50.7493286  21.9927998  23.5824699  88.2022171
  21.5640965  23.6120148  89.0575333  21.4623756  24.1554489  87.6485214
   2.8272173  10.6878872  48.7449837   2.9144864  10.5020199  49.6799011
   2.6615946   9.8339663  48.3454590  71.9399033  11.0529089  61.4277153
  71.5019379  11.7498999  61.9162064  72.1001740  10.3689766  62.0779305
  72.0418320  23.7798862   0.6613247  72.0931015  23.7918625   1.6170757
  71.8338547  22.8711815   0.4439920   8.8248882  63.9604340  33.3052711
   9.6567736  63.5353508  33.5138474   8.4625759  64.2081146  34.1559296
  52.7341461  13.0652933  38.5050621  52.1791534  12.7460117  39.2165909
  53.6280403  12.9349833  38.8216171  22.1110363  71.2495575  82.6698761
  22.3296986  72.0786133  83.0954132  22.5234718  71.3066483  81.8079758
   0.1458974  27.0797558  66.2616272   0.7983875  27.7149754  66.5565643
  -0.2176740  27.4629288  65.4633636  74.3533707  32.6201591  23.9616146
  73.7548294  33.2973862  24.2768116  74.1708450  31.8619804  24.5166664
  60.7874222  14.1741343  35.8508797  60.7030258  15.0112467  35.3944244
  61.6997833  13.9183178  35.7152977  16.3979702  48.2567139  40.3590965
  16.0460644  49.1323433  40.1988678  15.7610884  47.6654930  39.9577599
  62.8677940  38.4293213   4.0018749  62.7874107  38.2239494   4.9333220
  63.3055916  37.6659737   3.6252172  58.5707893   2.4398353  40.0786629
  58.7837067   2.1535263  40.9668770  58.6104698   3.3953598  40.1190414
  67.3221283   0.3296100  59.2135315  66.4746780  -0.0601253  58.9986839
  67.1587830   0.8335511  60.0107727   3.8651938  56.2519150  69.3528366
   3.3440242  55.8330383  68.6678848   3.4626567  57.1127701  69.4673843
  51.7508888  39.8937187   9.4405947  52.1554794  39.7742729   8.5813675
  50.8442612  40.1322784   9.2473431  12.6516485  68.3185883  67.5888367
  11.9616814  68.8700409  67.2199478  12.5393648  67.4725037  67.1555328
  38.3714561  15.6568079  13.1175480  38.8022232  15.3074818  13.8977032
  38.9200821  16.3945293  12.8510790   7.6812997  19.2061157  11.4354315
   7.8503728  18.2644749  11.4044542   6.8387656  19.3128319  10.9938660
  39.1718674   1.5015240  79.9579163  39.6324768   1.4951881  80.7969894
  38.3352394   1.9263413  80.1471634  33.2110176  37.7630844  34.8040581
  33.5104752  36.9061279  34.5004425  32.2592354  37.6781731  34.8600731
  58.6424408  37.4705200  50.3870811  58.1478767  36.9827461  49.7285080
  59.2093735  36.8156548  50.7944756  50.1670570  25.8299408  81.6893539
  50.0667763  26.6051083  81.1368256  49.3669014  25.3256741  81.5420532
  24.6668816  46.4543457  26.1909714  24.3988419  45.5398636  26.2810116
  25.3856812  46.5557899  26.8148842  61.7430267  19.5956783  67.6006165
  61.9130058  20.5097485  67.8282394  60.8090324  19.5703335  67.3926697
  54.6276093  17.2492332  42.8157082  54.5423088  16.9378128  41.9146118
  53.8249130  17.7459278  42.9744606   5.2312393  42.9887505  38.7987022
   5.8386769  42.2506638  38.7488976   5.1375384  43.1590080  39.7359657
  35.1897850  12.7760210  42.1336479  34.7980232  12.4299345  42.9355049
  35.7323303  12.0597839  41.8036728  15.3449516  21.2344856  34.9653740
  16.2945042  21.1433449  34.8861618  15.0253515  20.3372726  35.0607605
  43.7966385  25.7626934  84.5728683  43.2461014  26.4012947  85.0260010
  43.1859322  25.0883942  84.2752304  46.4161301  26.7600613  18.2062206
  45.9071732  26.1618023  18.7532883  46.7782326  27.3977642  18.8214016
  23.2659569  63.4800453  83.5253448  22.7769127  63.7283669  84.3098221
  23.9436054  62.8839455  83.8442383  80.6611176  65.4965973  60.1223030
  81.0568085  65.9908447  59.4044037  81.0429001  65.8764648  60.9136124
  11.8379927  20.0266800  77.2856598  11.8491735  20.9833889  77.2570953
  12.5554819  19.7962818  77.8758774  42.7255402  59.8604889  23.3696747
  42.2465286  59.3531647  24.0249653  42.3594322  60.7424889  23.4350376
  36.7132530  15.2260742   8.1694326  37.3163719  14.9904022   8.8743696
  36.0146523  15.7142954   8.6051292   2.5447228   0.7188722  69.9451828
   2.0593088  -0.1014472  69.8575439   2.4001150   0.9869698  70.8526230
   7.7966094  71.0448074  57.2006874   7.8664355  71.9988174  57.1656685
   6.9310384  70.8545761  56.8389854  66.2320709  67.1561356  13.2764740
  65.3680115  67.4302216  13.5838957  66.8381577  67.7770538  13.6806488
  69.0891495  17.0163803  56.4069328  69.3589935  17.2291737  57.3003159
  69.6694946  16.3015594  56.1452789   9.5870028  33.8202019  30.4623089
   9.4527531  34.6426964  30.9331665  10.3950949  33.9565125  29.9677010
  34.3760033  37.2867279  11.0685577  34.2637367  36.4974480  11.5983343
  34.2222633  38.0083618  11.6783466  58.6457672  20.3945580  39.9514008
  59.1536598  21.1822987  39.7571259  58.7497177  20.2691231  40.8946342
  41.7109795  24.6616020  34.8891106  41.2337036  25.4670277  34.6897964
  42.3478508  24.9192867  35.5556145  48.6357231  41.7851372  17.5663052
  48.1635590  42.5986519  17.3888702  49.1991348  41.6636429  16.8020802
  43.4235001  60.4981918  61.3825188  43.7193527  61.3974457  61.2409248
  43.7489014  60.0164528  60.6220779  82.8405609  37.3049126  59.6460686
  82.3055344  36.5118523  59.6782417  83.5492096  37.1411591  60.2683525
  68.1721115  46.3176003   6.3527465  67.4368668  45.7151184   6.4652772
  68.2199020  46.4633293   5.4079127  65.6717911  68.7509842  17.0156784
  66.4295654  69.3207550  17.1474819  65.1256561  68.8962402  17.7882519
  13.2916174   5.3890586   4.5950007  13.5280733   4.5116820   4.8958831
  12.5206356   5.6202359   5.1130509  39.1250992   0.5403717  24.9039993
  38.8530540  -0.2876069  25.2998219  39.7497406   0.9102775  25.5278778
  71.9829865  63.4800110   2.8462539  72.0854797  64.2363892   3.4238489
  71.9217682  63.8558273   1.9680479  32.9165688   1.8931532  68.9080734
  32.4003792   1.6056124  69.6611328  32.6389122   1.3191750  68.1941452
  44.6589890  52.8002510  44.1342888  44.4504890  51.8967972  43.8965302
  45.0811501  53.1616821  43.3549461  67.1509628  67.1924286  88.1996536
  68.0053406  67.5200958  87.9187622  67.3506699  66.4020386  88.7012863
  87.0001984   6.4988399  45.8816910  86.2738190   5.8924069  46.0260391
  86.8603134   6.8336124  44.9959221   9.3613214  44.4296188  24.6880951
  10.2098579  44.8723373  24.6732712   8.7962646  44.9765167  24.1423435
  21.1063328   8.5465460  75.8516846  20.9832973   7.9712543  76.6067581
  20.6112270   8.1272469  75.1479187  14.7477722  56.8480606   9.9943876
  13.9271975  57.3019371  10.1864386  14.8849173  56.2725105  10.7468281
  71.6811829  57.7351341  71.4524612  71.6433792  58.6080971  71.8432770
  72.5486984  57.6900558  71.0504379  86.5096512  27.0580444   9.9821205
  85.7927170  27.6785564  10.1132975  87.2410049  27.5972176   9.6810551
  35.8910942  59.2456284  21.7388592  35.7824097  59.5504456  22.6396961
  35.0269852  59.3569794  21.3424320   1.7160174  24.7275391  64.8234329
   1.5381982  23.9671707  64.2698517   0.8553777  25.1159210  64.9805603
   7.6116681   2.0035889  87.8695831   8.4344225   1.5144244  87.8745728
   7.3215365   1.9749752  86.9578629  73.0555725  66.7294388  16.6270828
  72.4987030  67.2894287  16.0862064  72.4893188  65.9998016  16.8785172
  71.2591705  66.6415634  10.7906532  70.3481293  66.8585892  10.9884472
  71.2255783  65.7428436  10.4629145  16.2795010  28.1611481  87.3135757
  17.1870232  28.0177383  87.5820312  15.7595348  27.8755569  88.0647812
   1.7435900   8.1527557  51.7866516   1.4252775   8.4791737  52.6282921
   2.3984246   8.7949781  51.5128365  37.2777557   6.3614411  59.1612167
  38.0623169   6.3725128  59.7094574  37.4750137   6.9691658  58.4484825
  41.1376419  33.2180710   2.7889295  40.2258530  33.4214897   2.5803761
  41.6324844  33.5339661   2.0329030  61.7171707  13.9629688  21.8548260
  61.7310181  14.0156584  20.8991776  62.3151054  14.6532955  22.1414509
  71.2290878  39.6886177  75.9910889  70.9905472  38.9663467  75.4100037
  70.4680481  40.2689934  75.9766541  40.0406532  22.3584557  22.8589687
  40.2505531  23.2889481  22.7792416  40.5068207  22.0742760  23.6452007
  25.3616600   5.3074718  26.3080807  26.1990814   5.5812206  25.9338875
  25.5710201   5.0610266  27.2090034  74.5405197   3.4890451  46.5288925
  74.8715057   3.4655654  47.4267426  73.5900040   3.5475583  46.6254768
  44.6827774  58.0804710  31.6382408  45.5314713  58.3096886  31.2595482
  44.7571754  57.1492081  31.8466930  60.8266525  55.8657799  61.8841286
  61.3484802  55.3199539  61.2959137  59.9457779  55.4941673  61.8372612
  26.9885502  29.7257023  79.5131836  27.7135086  30.1468067  79.9750671
  27.0917645  28.7935505  79.7046738  71.6796722  63.9898987  36.4634552
  71.0344391  63.7626953  35.7939186  71.3713531  63.5461845  37.2535744
  74.1905365  55.6421318  40.5984001  73.4026871  55.4546165  41.1086578
  74.5090561  54.7819481  40.3247833  48.5999031  71.3304443  68.2845078
  48.9210663  71.4385757  67.3893051  47.8137550  71.8750687  68.3243561
  44.2444153  50.0502243  86.3150253  44.2359581  49.5524178  85.4974976
  44.3888206  49.3919678  86.9947891   0.9312655  61.9949760  39.8265953
   0.8220984  61.0461349  39.8899574   1.0741035  62.1579018  38.8942413
  36.2490578  30.5382652  85.7836456  37.1066551  30.8431778  85.4873581
  36.4304733  29.7128315  86.2330704  61.0698357  24.4099808  60.0841446
  60.5465393  24.8161621  60.7750893  61.9025879  24.8814487  60.1058731
  13.2204742  16.0110607  61.2164421  12.8504210  16.5288200  60.5014458
  13.9977713  15.6005936  60.8375511  54.7985535  25.8718567   1.5858799
  55.6241875  25.3877258   1.5726880  55.0191116  26.7313290   1.2268627
  73.2815094  14.8910351  77.7108536  72.4340439  14.9008713  78.1557541
  73.0669937  14.7401867  76.7902756  74.9029236  24.9606285   1.0907887
  75.5118942  24.3939648   1.5643686  74.1223297  24.4211292   0.9649087
  11.9721622  53.7677193  75.0531998  12.4954271  53.3106880  74.3947525
  12.6044712  54.3037758  75.5317993  31.4917202  48.6014862  26.0208302
  32.2175064  49.2031898  25.8552494  31.9032021  47.8328705  26.4159775
  18.5163898  35.5220947  22.3155785  18.9096966  35.5797501  21.4448223
  17.7354908  34.9828606  22.1904469  65.2630234  55.0771904  33.0023155
  66.0678711  54.7748604  32.5815468  65.5622482  55.5585480  33.7736740
  35.1389961  10.1950178   8.7467365  35.5995979  11.0179348   8.9107056
  34.5582581  10.3881216   8.0107431  44.1900024  21.6262970   2.9251189
  43.8347969  21.9091187   2.0824602  44.5769196  20.7692108   2.7464271
  35.3628998  10.5677357  56.9928322  34.5789795  10.2001486  57.4009781
  35.4708405  11.4230585  57.4087677   6.9549780  51.6400528  68.3356934
   7.1583924  50.7995911  67.9252319   6.7443237  51.4188194  69.2428360
   8.2799273  17.4674778   9.3500175   8.0014639  16.6210899   9.0002813
   8.0242119  18.0999298   8.6785650  72.1030960  47.1996117  47.4239006
  71.9344559  47.3090134  48.3597565  72.0251541  46.2572784  47.2750397
  33.4546051  13.9096117  55.0834351  33.9292831  14.0558453  54.2651863
  34.1340408  13.9090557  55.7576714   4.2500477  52.0334396  55.9274826
   5.0542641  52.5323448  56.0708809   4.3058939  51.3058434  56.5469284
   7.6119881  37.1191788  35.6083717   8.5412979  37.3067551  35.7403870
   7.2912788  37.8539276  35.0853767  33.1073990  17.9915066  57.3852539
  32.8620148  18.8191643  56.9717293  32.2774467  17.5317955  57.5120506
  38.2882500  10.4895887  86.9298248  38.7666321  10.8159685  86.1676865
  38.9710274  10.2459078  87.5548553  17.1684284   1.0177648  13.3122435
  16.6973610   1.6993248  12.8328667  17.8634472   1.4866325  13.7741375
  35.9616737  65.2649460  74.5305710  36.7394295  64.8172989  74.1975021
  35.4099731  64.5625000  74.8747101  75.7020416   6.4670081  62.0195503
  75.9211121   5.6131649  61.6464691  75.4786301   6.2798109  62.9312935
  59.8653984  67.0102234  27.1637154  59.4264145  66.3921661  26.5793056
  59.2634277  67.7520218  27.2236767  23.8947735  67.1143799  25.7955818
  23.9976425  67.4532318  26.6848640  24.7447681  67.2650833  25.3820267
  69.3232956  41.8839417  64.4285049  70.2629089  41.9446526  64.6007309
  69.2580643  41.8203506  63.4756508   5.6763411  48.1327209   4.3180003
   5.5328889  47.8480225   3.4154482   5.3129549  49.0176582   4.3506284
  73.7404327  29.5558929  41.7950706  73.2451477  28.9786415  42.3761940
  74.2492218  30.1112137  42.3858147  48.2036552  61.7042732  23.2295189
  47.5782394  62.0460854  22.5905743  48.5874519  62.4843750  23.6299858
  27.1402874  22.8019466  33.6646118  27.9464874  22.3398399  33.8942490
  26.5657692  22.1214294  33.3138161  78.6544266   8.9976377   8.4655743
  79.1146774   9.8184652   8.2905273  77.9127045   9.0052080   7.8605723
  83.2453918  40.2045174  25.8810997  83.7036362  40.4528008  25.0782299
  82.4349365  39.7955208  25.5775948  47.0629120  55.0688248  65.1245422
  47.5548019  54.6092148  64.4440689  46.2474060  54.5743065  65.2059708
  56.0663071   6.6823549  37.1826591  56.2467270   6.4542522  36.2707138
  55.1269302   6.5304437  37.2862091  41.2944603  27.4712524  34.8843575
  41.5762978  28.3592205  35.1041565  40.6082535  27.2731247  35.5216141
  31.3358631  25.6422062  26.6493912  31.7763977  25.7086468  25.8021908
  30.6871243  26.3459358  26.6378536  55.2971535  14.0485086  67.2826996
  54.3451424  13.9576235  67.2420731  55.5150414  14.6183758  66.5451279
  32.4838829   9.9375505  13.9936552  31.5492630   9.7772989  14.1241817
  32.5181999  10.6333818  13.3372469   9.1800499  44.5336266  50.0709190
   8.9528532  44.7023010  50.9853363   8.5279980  45.0217667  49.5681496
  46.0933609  40.8865929  75.2312698  46.0194283  41.0311050  76.1746063
  45.1966667  40.7136765  74.9444504  29.2028713  14.3851690   9.5492477
  28.9593163  13.8470631  10.3024769  28.7888660  15.2319517   9.7159500
  70.9027100  48.6214638  15.7801313  69.9755096  48.3931808  15.7137184
  70.9740067  49.4657326  15.3347521  50.4498138  11.7053251  21.1849766
  49.6204033  11.2389355  21.0811062  50.2074013  12.6312075  21.1705341
  51.8062210  54.0470505   6.8343792  51.2343254  54.6498680   7.3095398
  52.3933258  54.6160698   6.3366265  39.6617203  59.2217331  48.8163490
  40.2170067  58.4963837  48.5304108  39.6323662  59.1395645  49.7695656
  50.2821045   7.9642296  65.3775330  50.6968651   7.2150340  64.9498520
  49.8025856   8.4051390  64.6761780  11.1349115  48.5075226  53.4930267
  10.9030685  48.5106544  52.5643349  11.3079138  47.5877037  53.6936035
  29.6391640  56.6799126  86.6452332  29.5147419  57.2203140  87.4254379
  29.7610168  55.7933388  86.9848862  44.3041725  43.3068771   7.1184630
  44.3777847  44.1017151   6.5902152  45.2051849  43.0999031   7.3665981
  80.4280548  68.5565033  41.3704987  81.1056595  69.2147980  41.5245361
  79.6448364  68.9171982  41.7860565  34.8781166   9.9407501  54.2171249
  34.0281105   9.5047398  54.1569710  34.7466736  10.6335077  54.8644600
  77.8717041  58.2056808  32.9483414  78.3251724  58.4532318  33.7541466
  78.3350525  57.4258804  32.6426430   4.9149747  14.2450552  53.5948792
   5.5142441  14.8460693  54.0374756   4.0426102  14.5758133  53.8089142
  54.3055878  70.5394135  56.7674484  54.6953278  70.6507568  55.9003067
  55.0333099  70.2602310  57.3230667  71.3945618  38.7978287  34.5200539
  72.0578842  39.4783669  34.4055862  71.8913803  37.9798851  34.5390282
  69.3970718  49.5181732  23.1461372  68.8345566  49.5588226  23.9195461
  69.6592407  50.4258881  22.9926834  60.1251602  68.6518097   5.5545940
  60.4501381  68.0618668   6.2347341  59.6673279  68.0789566   4.9393954
  68.3546448  19.4854698   1.6117779  67.6755753  19.7191238   2.2446368
  69.1627350  19.4643936   2.1243906  60.0962944  16.7688274  10.7323141
  59.7681503  15.9001970  10.9647703  59.3187332  17.2514000  10.4516792
  59.8208313  57.0076141  12.1776991  59.9214020  56.5588341  13.0171709
  59.0105438  57.5088310  12.2696190  56.7293434  49.7884712  29.1486187
  55.9622421  50.0605621  28.6448746  56.7784996  48.8415794  29.0174255
  54.1968994  16.1296215  64.9138641  53.5560722  16.7392216  64.5478592
  54.7367554  15.8723145  64.1664886  25.2653599   9.3255558  35.1405487
  25.5739594   9.3265448  36.0466347  24.5204163   8.7244825  35.1418991
  62.1924553  11.2943048  16.6617489  62.1844902  10.8549089  15.8113966
  61.2695427  11.4592276  16.8547821   4.5562377  59.3727455   9.0406218
   5.1834469  59.0532112   8.3919783   4.7917233  60.2915802   9.1691351
  74.5679855  17.0111885  75.0275497  74.2238464  17.1854229  74.1515121
  75.0077438  17.8236389  75.2780838  76.0454559  28.0519924  51.6595650
  76.5337448  27.4130859  51.1403351  75.4312668  28.4452553  51.0396042
  12.6211596  48.9360809  16.3790073  12.3548756  48.3556519  15.6659689
  13.4083290  48.5275383  16.7391300  42.1610451  20.1449566  11.6060572
  42.6683197  20.9526215  11.5249157  41.2805710  20.4377251  11.8411741
  33.3408356  17.6703701  38.9580269  32.9691734  18.5398083  38.8091087
  33.6592560  17.6973419  39.8603096  54.3109093  53.0396385  15.8365736
  54.9868927  52.8390274  16.4839020  53.6728706  52.3321648  15.9294395
  19.9825001  40.0903854  35.6762581  20.6333790  39.3892250  35.6452026
  20.0414047  40.5100517  34.8179817  68.5701752  58.1405296  52.0999222
  69.0574188  58.4704666  52.8548889  67.9275360  57.5379791  52.4743271
  11.4198360  48.5447235   6.8646469  11.0963354  47.6489487   6.9603901
  11.2245855  48.9609108   7.7042294  66.8849564  26.5822792  54.1348572
  66.4348831  25.7561474  53.9582977  66.2494202  27.2570534  53.8961105
  48.1821480  37.2515945  67.2095490  48.9756966  37.6345291  66.8355484
  48.2566795  36.3158035  67.0225372   6.9769073  60.2231483  38.9873276
   7.7619638  59.6788559  39.0478477   6.2523222  59.6159363  39.1373291
   8.5641861  69.6975937  60.3863983   7.8085356  69.3489456  60.8593330
   9.3110323  69.5058136  60.9535599  50.5230713   3.0915906  77.4940033
  50.1943321   3.6263809  76.7713928  51.2754631   2.6281941  77.1260300
  52.3262329  68.8799744  70.7520294  51.8062630  69.3654022  70.1115341
  53.0004120  68.4431229  70.2315674  41.3383369  57.0847359  49.5196381
  40.6627808  56.6660881  50.0531044  42.1399994  56.9954453  50.0349998
  75.1049957  51.4669800  35.2223167  75.6636124  51.6342239  35.9813995
  74.3377762  52.0218773  35.3626404  65.7752762   0.2874979  28.7164745
  64.9879227  -0.2058422  28.4864216  65.4519958   1.1554163  28.9582214
  60.1767998  43.5892181  24.2333717  60.0971222  44.4402466  23.8025208
  61.1167297  43.4082222  24.2341595  53.1184387   4.6016035  33.8339539
  53.7839813   5.2895484  33.8297577  53.4831161   3.9189861  34.3972282
  29.8003120   1.5454999  66.1282578  28.9815350   1.3147010  66.5670853
  29.7558117   1.0940850  65.2853622  75.3010788  42.2045822  62.2963333
  76.0665283  41.6763153  62.0699463  74.7606354  42.1940079  61.5063667
  46.2487183  21.7524872   7.0911827  45.9036331  21.6108074   7.9727006
  45.4901428  22.0330276   6.5792365  76.8937607  58.2735558  42.6929359
  77.6018066  58.4459534  43.3135719  77.0311584  57.3668442  42.4186592
  50.1794472  68.9769974  81.2901993  49.4793968  69.6297989  81.2935638
  50.9740829  69.4788895  81.1088333  45.8674049   7.2738633  74.0628662
  45.6363487   6.5119977  74.5942841  46.8178596   7.3470073  74.1495743
  59.0600510  63.4229355  52.4697685  59.8871956  63.4597664  51.9894447
  59.0514488  62.5513802  52.8654289  46.3245049  62.8253784  57.3643913
  46.6502571  63.4603348  58.0023117  46.7459183  62.0016823  57.6096802
  14.7866087  46.4748611  26.7718372  14.3618088  46.8614502  27.5375576
  14.9365377  47.2140198  26.1824303  79.1901169  46.3914948  13.1528416
  79.7644196  46.0571175  13.8417540  79.7589111  46.4779167  12.3878336
  39.8796883   1.6182548  15.2920494  40.5933838   2.1796036  15.5949669
  39.0877266   2.0305834  15.6370287  56.7509193  49.7527237  10.2748117
  56.8049049  50.5814476  10.7507648  55.9488258  49.3425484  10.5982876
  33.9656029  69.6487579   3.2523005  34.6276665  69.3661804   3.8832173
  33.8898163  70.5927811   3.3912580  60.6182518  50.9392776  33.6383476
  59.7571449  50.9904556  34.0532074  60.5578537  51.5298767  32.8875008
  30.9523239  62.3610153   0.4371264  31.5319099  61.5995293   0.4584545
  31.1235409  62.7686234  -0.4118558  59.4904747  47.7977257  17.6620064
  60.3581619  48.0181046  17.3232117  59.6639671  47.3317490  18.4799309
  41.6476898  63.3566742  39.3237495  42.4915810  63.5267487  39.7422676
  41.7785950  63.6086121  38.4096222  37.3572922   8.5202322  70.0643768
  37.7994308   7.7914767  69.6288757  36.7524719   8.1017733  70.6770020
  36.9062805  60.6001129  16.8208313  37.5710449  61.2740898  16.9625015
  36.1195374  60.9476357  17.2409420  44.1493454  21.1321316  72.5876160
  44.1270332  21.4184666  73.5007095  44.1302681  20.1763363  72.6357880
  24.8384819  54.4291573  42.1655807  24.8057194  53.6699829  42.7476578
  24.4931908  54.1075172  41.3327827  65.4322968  63.9216423  32.8800087
  65.0109329  63.3406792  32.2466278  65.5939865  64.7297668  32.3931541
  10.5644197  12.4373446  78.5074615  10.8881817  13.2856236  78.2044220
   9.8756561  12.2071886  77.8838654  51.4863319  62.0963364   5.3578806
  52.1019821  62.8174706   5.4889340  51.8642578  61.5859261   4.6417208
  66.9108658  64.2697372  83.5062408  66.5719986  63.6340408  84.1365433
  66.2914352  64.2377167  82.7771912  72.4261703  54.7380753  30.9340210
  71.6529160  54.2759209  31.2576237  72.5201569  54.4427605  30.0283794
  63.1397476  30.4299297  13.5689049  62.7219620  29.8830376  14.2341833
  63.8863792  30.8256931  14.0185089  55.0298271   6.7540426  26.1288776
  54.5822792   6.0364895  25.6804943  54.6967545   6.7209167  27.0256481
   3.5593622  45.1003609  84.4466934   3.2736480  44.4707184  85.1086197
   4.4515023  45.3315239  84.7053146  19.8718529   2.3210518  54.5341187
  19.1609840   2.6311448  53.9731026  19.7532597   1.3718454  54.5683861
  29.6227913  50.0624962  24.4379997  30.0290012  49.8128319  23.6080036
  30.0752831  49.5333176  25.0948505  14.9270639   9.0032806  77.7569733
  14.9815655   8.2262125  78.3132401  13.9923229   9.2059937  77.7195969
  12.5218534  35.9535370  16.4598618  12.8609362  36.6038055  17.0750103
  11.6158562  36.2204475  16.3044281  71.5805588  16.8586407  24.8734932
  70.7954865  17.2456455  24.4860344  71.4985580  15.9217138  24.6955128
  83.8470917  56.9181213  13.1202669  83.6214447  56.1797676  12.5544491
  84.3599091  57.5009918  12.5603380  64.1536102   9.9478121  42.6173019
  64.3879776  10.0071869  43.5434685  63.2096786   9.7890100  42.6188087
  60.4593353  49.9374809  65.9911346  60.5871696  49.5397797  65.1298981
  60.8528938  50.8066483  65.9143829  43.2560921  11.5097799  16.2219391
  43.7080536  12.3435402  16.3515759  42.3261223  11.7318382  16.2674980
  79.6953583  20.0247746  57.2138786  79.5810394  19.0761585  57.2712250
  80.4373550  20.1411629  56.6204758  70.8554001  16.8445778  36.4620667
  69.9920273  17.1729145  36.7130814  70.7988815  15.8979902  36.5924873
  60.3835258   5.0247459  18.9518204  60.2319031   4.2357864  18.4314499
  61.3170509   4.9975443  19.1616287  36.8968315   1.6911128  50.3619957
  36.6561928   2.5364056  50.7412109  37.0021896   1.1114473  51.1163979
  17.7963848  37.8848457  77.3684387  18.2006683  38.2257538  78.1662903
  18.4677219  37.9929008  76.6947403  41.5812416  59.0230751  70.0475311
  42.2473869  58.5198746  70.5158005  41.4127731  59.7790565  70.6099777
  14.7335405   0.0584159  31.3179722  14.2988644   0.1821845  32.1617546
  15.0702400   0.9256148  31.0925140  68.0739899  40.7714462  81.3116760
  67.4849777  40.2128906  80.8044128  68.8459167  40.2270813  81.4667130
  33.8018188  58.5549583  81.6520691  33.4707031  58.7889824  80.7849884
  33.6312370  59.3279419  82.1902390  30.7165318  16.5060520  26.1769295
  30.1596756  15.7278528  26.2003937  30.2535400  17.1481819  26.7150173
  33.2844582  10.2547045  21.1238098  32.5239258   9.6973019  20.9591236
  33.0257034  10.7994356  21.8671455  28.7579937  40.0314980  19.9383774
  29.4658909  40.5751572  19.5926228  28.1920567  39.8670158  19.1841259
   2.7743680  49.1351967   2.8070259   3.4185531  49.8399315   2.8749144
   3.2901249  48.3597374   2.5859234  62.0723610   4.6154809  56.9043121
  62.0201263   3.8961067  56.2750206  62.5664787   5.2969484  56.4485893
  29.2119942   2.5026579  18.7161198  30.0563850   2.5621407  18.2692451
  29.3023357   1.7492249  19.2995663  46.2082443  64.2522964  46.8006744
  46.3746223  64.6617203  47.6497498  45.6389084  63.5092316  47.0005264
  62.7872734  22.0066319  72.2157745  61.8444672  21.9349232  72.0667496
  63.1723366  21.3521652  71.6329880   2.1372612  30.9319363  75.0065308
   3.0724137  30.7335320  74.9579849   1.7279406  30.3037853  74.4114532
  46.2524261  66.1023788  57.6527328  46.6387825  65.4705200  58.2591248
  46.8115234  66.0624390  56.8768196   7.4326487  69.9615097  19.4842033
   7.2799277  70.4477539  20.2944374   8.0281649  70.5163803  18.9805069
   7.2818880  15.7504177  87.1840363   7.4777226  16.3347187  87.9164810
   7.1481586  14.8939562  87.5900192  84.9854889   3.0904827  31.8428936
  85.9171143   3.0816176  31.6232586  84.6759567   2.2154081  31.6090908
   9.7032413  31.9865494  38.3438988  10.0613251  31.7892113  39.2093849
   9.3410873  32.8684120  38.4299164  56.6150665  35.0874710   8.6471415
  56.6093369  35.5229187   7.7947421  57.1304665  34.2931671   8.5068674
  44.9808044   7.9651089  80.8376923  44.9957466   8.1116133  79.8918915
  44.0851822   8.1790485  81.0990753  43.5962753  11.1459532   0.5591166
  44.3028831  11.4813042   1.1109152  43.8890610  10.2723513   0.2996368
  27.2592316  50.0496292  15.7813492  26.3818970  49.8035355  16.0745277
  27.2586594  51.0066299  15.8009672   3.2265327   1.0561470  48.9310036
   3.2684917   2.0056214  49.0448837   3.7629259   0.7056885  49.6421242
  38.6776733  11.1599951   6.0862103  38.8736801  10.3466988   5.6210628
  38.5990944  10.8982801   7.0035777  33.4539795   3.2504580  31.1766510
  32.7496185   3.2367113  31.8246632  33.0981789   2.7748516  30.4260292
  11.5178328  61.4052849  53.8166351  12.4255276  61.1173325  53.9136276
  11.1732426  61.4160080  54.7095909  68.6616669   1.2683716  42.7931633
  69.0863800   1.3103787  43.6499481  68.8729095   0.3948411  42.4636917
  43.6679039  15.1802063  77.2872086  42.9859619  15.0216589  77.9399338
  43.2074661  15.1535416  76.4484482  37.2914009  64.9637070  25.2925854
  37.4181862  65.7710266  24.7941952  36.3465309  64.9184341  25.4388790
  29.0484428   9.9654064   8.1513481  28.6609287   9.1923571   7.7409086
  29.2962780  10.5274878   7.4172688  35.9594917   9.4181252  35.8509178
  36.6250992   9.5220709  36.5309105  36.1316109   8.5537739  35.4774170
  41.4843750   7.4309053  42.3534966  41.0217628   7.1375909  41.5685196
  41.6467438   6.6286001  42.8496552  26.5373859  13.9667864  65.2243118
  26.4454556  13.1725321  64.6980591  27.0247040  14.5704861  64.6636887
  72.8979340   0.7461246  32.6666222  73.7278671   0.7437185  33.1435356
  72.5762863  -0.1523312  32.7411156  78.8106613  48.2159920  39.3804703
  78.5304489  49.0414429  39.7758713  78.0240479  47.6705780  39.3818169
  14.8981199  45.3441010   9.1083174  15.2770958  46.0793800   8.6266804
  15.2970390  45.3956490   9.9769020   5.5729141  70.1014862  73.4579697
   4.7030454  70.2610245  73.0917587   5.9391251  70.9752197  73.5947647
  18.8555851   2.7217650  20.3360291  18.7413559   3.5929773  20.7157307
  18.7924938   2.8620937  19.3912754  46.3967857  42.7307701  81.6470490
  46.0139847  43.5512886  81.3364944  46.9457436  42.4329262  80.9216766
  19.4396725  45.9939613  36.7843513  19.9892387  45.3911476  37.2851753
  18.5515633  45.8267174  37.0998306  76.3181839  66.3191376  87.0824890
  77.1937332  66.0889664  87.3934174  75.9055557  65.4783936  86.8846893
   9.1571121  45.3482132   1.9169805   9.3268242  46.2887077   1.9708291
   8.3765879  45.2767525   1.3675189  83.2020493   8.5337839   8.6813421
  82.4748306   7.9282193   8.8251343  83.0174484   9.2719612   9.2620726
  77.7553482  64.7933044   1.3227985  77.8449631  63.8414001   1.3684558
  76.9423294  64.9801254   1.7922024  36.7845039   8.2813044  48.5352402
  35.9810295   8.2045755  48.0206795  37.3398018   8.8714342  48.0257072
   8.5120630  20.5650253  89.1550827   8.0072927  21.3775158  89.1911240
   8.8161287  20.5119553  88.2490158  29.2927380  62.5575981  36.7162857
  30.0370827  62.6612663  37.3091049  29.1645546  61.6109352  36.6560478
  74.8783569   1.9776131  28.9686718  75.3814850   2.7804003  28.8321705
  75.1385651   1.6770092  29.8393974   8.7314615  57.9111938  81.2212219
   7.9815636  57.7118912  80.6607208   8.9555225  58.8171234  81.0083542
  71.7313843  26.8234959  12.1113997  72.6403885  26.8349991  12.4110870
  71.7655945  26.3887138  11.2593279  41.0233841  34.6829338  19.6421700
  40.3415871  34.0539055  19.8782024  41.8138733  34.3500328  20.0670605
  81.9504471  69.8571396  68.3813553  82.4449539  69.2140732  67.8732529
  81.1069031  69.4354706  68.5452652  37.4741669  56.2453575  52.9338646
  37.2597122  55.9013824  53.8009987  36.6993790  56.7447853  52.6759720
  41.1252251   1.4572430  20.1328964  41.0811386   0.5517709  20.4401569
  40.3885307   1.5408694  19.5274887  29.6863060  11.2996216  51.6182060
  30.5433044  11.7216120  51.5572777  29.8793373  10.4046354  51.8974380
  41.1566048  11.7861691  76.7980576  40.4467888  11.4403086  77.3391418
  41.3183670  11.1015377  76.1489410  45.1461792  -0.1867103  76.4684830
  44.6981430   0.5748762  76.8365555  45.1506958  -0.0288138  75.5244064
  62.6591263  38.2189636  43.0136909  62.5056267  39.1509514  42.8585510
  62.2135735  38.0373344  43.8411713   2.7826455  23.6263218  15.8407726
   2.4748743  24.3690090  15.3212299   2.3039856  22.8747196  15.4911833
  61.0178490  13.8498545  39.0950089  60.6497002  13.3445721  39.8198471
  60.8482628  13.3148365  38.3196220  20.6377964  54.8427010  26.1842270
  19.8833542  54.7936707  26.7712898  21.3323555  55.2279358  26.7184658
  57.0102615   6.8476186  30.6320400  57.6082878   7.4508977  30.1908474
  57.5697327   6.3476763  31.2264156  48.1312866  14.5154810  11.3770771
  47.5722656  14.1356640  10.6992378  47.7386627  14.2267113  12.2009058
   6.0030150  61.3222160  -0.0295980   6.2354717  60.3992767   0.0722835
   5.0816789  61.3667908   0.2261052   2.8445222  46.6543465  52.3031616
   3.4986064  46.5785103  52.9978981   2.3753166  47.4642906  52.5033302
   5.0850821  71.8103104  20.8486023   4.9621820  71.5790100  19.9279346
   5.6695976  71.1333694  21.1896591  66.0253983  18.4431248  14.7533731
  66.2036362  17.9543285  15.5568314  65.2105331  18.0673428  14.4201832
  40.8760796  12.2110987  48.5976982  40.7198524  13.1212387  48.8496323
  40.0308533  11.7795544  48.7225647  86.5504227   0.5747772  16.6438236
  85.6201859   0.4126109  16.8006706  86.9109344   0.7593485  17.5111160
  77.2988358  56.0534821  28.7085667  77.9869156  55.3961220  28.6053143
  77.7190933  56.8796539  28.4696999  46.7231560  10.5995340  34.8576698
  45.7765923  10.5790472  34.9984741  46.8453407  10.2062140  33.9936066
  71.3483124  52.3681412  35.1881104  71.6691284  52.0359879  34.3496666
  70.7882462  51.6685257  35.5244026  16.4243698   4.0354548  58.5107079
  15.8646717   3.7304022  59.2247887  17.0748329   3.3415256  58.4030380
  35.2795219  56.8822327  24.0306931  35.2433357  57.8369675  23.9723740
  34.4448547  56.6347733  24.4286022  62.8584747   9.0196095  26.6086502
  63.2817726   9.8774166  26.6435623  62.1133842   9.1439466  26.0207615
  26.0004139  26.1234417  84.8274612  26.3661499  26.5335293  85.6112366
  25.0835800  25.9597034  85.0484543  53.2430992  62.7375221   9.0309200
  53.4567757  61.9533195   8.5253525  54.0729980  62.9986954   9.4300327
  66.5595322  44.4251556  37.7436218  66.1591568  43.5656891  37.6122932
  66.1554871  44.9818382  37.0779762  48.3795471  50.4102478  73.2169113
  48.9752159  50.8226204  73.8424911  48.8401718  49.6209793  72.9321060
  72.9558563  71.6030273   3.9907482  73.2165527  70.9683685   3.3233061
  72.0228424  71.4379883   4.1267376  81.0978012   1.1277899  65.7875977
  81.2471390   1.3946211  66.6946487  81.8287735   1.5100874  65.3020401
  38.9447136  47.6668892  83.2031937  39.0136642  48.3897018  82.5794754
  38.1658974  47.1845360  82.9256744   0.8044441  40.4798050  46.3867836
   1.5754976  40.6105652  46.9386978   0.5167539  39.5885239  46.5844688
  35.7752075  69.5417404  61.2556267  35.4204445  69.9217682  60.4519119
  35.7756157  70.2649612  61.8826675   8.4642153  65.0281296  79.2240143
   9.2659845  65.4188843  79.5714493   8.1160631  65.6884842  78.6248856
  15.2044506  44.5361977  76.3630295  14.8348570  45.1060066  75.6885223
  15.3063564  45.1040688  77.1268158   9.0244064  55.5023613  66.5563431
   9.5917902  55.7809143  67.2751694   8.1392097  55.5508194  66.9173279
  75.1560135  49.9043617  30.6790676  74.3400116  50.1597557  30.2487812
  75.4407196  50.6933365  31.1402493  20.8570385  67.7809830  74.3513184
  20.3322754  67.6416016  75.1396255  21.4868488  68.4577560  74.5994034
  69.1520615  33.7944908  81.1239853  69.6223831  34.6269226  81.1696320
  69.1439133  33.5747681  80.1923828  16.4362469  34.2775803  82.2921143
  16.4391193  34.4360809  81.3481293  16.6714592  33.3539581  82.3806076
  75.8279266  23.7146626  56.2463989  75.8617935  24.6204967  55.9389076
  76.1394196  23.1977234  55.5034447   1.1095207  16.7159672  67.1291046
   0.5048747  16.7205830  66.3870697   0.5651224  16.4799271  67.8802032
  73.5054932  41.8521805  27.9430618  73.6451721  41.8001175  28.8885841
  73.3854904  42.7858772  27.7697353  44.0121765  23.2264423  31.6146603
  43.1759186  23.2144909  32.0802345  44.4755821  22.4524651  31.9347324
  55.4844551  65.4227295  35.9011536  56.1616402  65.6419907  35.2611732
  54.9573746  64.7494049  35.4709740  23.0262127  52.7936363  59.8040695
  22.1449242  53.1345139  59.6512146  23.5680542  53.5740891  59.9203873
  15.9667454  22.1408272  48.8757973  15.2346354  22.3084755  48.2823830
  16.7432709  22.3894043  48.3743477  77.4016724   8.8118811  42.0576096
  77.8053436   9.0467911  41.2220879  76.6686859   9.4206600  42.1490288
  67.2605896  57.9523087   6.9434209  66.6716003  58.3596344   6.3082738
  68.1148987  58.3449707   6.7639704  54.9148483   7.9099154  87.8492203
  55.5023727   8.5595608  88.2352371  55.0258980   7.1318989  88.3956528
  47.2717018  62.6062393  36.3144951  46.3319397  62.5551262  36.4890518
  47.3422585  62.5417747  35.3620796  79.6000443  62.6436348  61.9060936
  78.6671219  62.8065796  61.7670250  80.0131531  63.4985733  61.7850609
  81.6133194  21.3291302   1.4001557  82.2888412  21.9255447   1.7229420
  81.1246109  21.8452415   0.7590435  68.6632385  -0.1556277  52.6176376
  67.9388962   0.4700913  52.6117401  69.4440155   0.3830272  52.7459755
  51.6283684  49.1309624  37.5427513  51.8595238  48.6568794  36.7439728
  52.4096336  49.0694542  38.0923615  51.5678864  63.9501343  20.6757317
  51.7298508  64.3903275  19.8413277  50.7741203  64.3639526  21.0147266
   6.0486622  57.3654518  28.2998695   5.9157605  58.1977921  28.7534962
   6.7943306  56.9652901  28.7471752  38.0114555  56.6968918  44.2169952
  37.1606178  56.4426689  43.8596725  38.5168457  56.9788742  43.4545631
  14.3464794  58.8202438  83.8600998  13.4663477  58.4781265  83.7034073
  14.7377043  58.2014656  84.4767685  75.1156845  23.8555641  78.5066605
  75.0074387  23.3716431  77.6879196  75.5176315  24.6836529  78.2440872
  38.7387581  11.0337706  10.9219551  38.7086143  11.8853512  10.4859104
  38.0322418  11.0697136  11.5667629   5.5777087   9.7746792  19.6431751
   6.1620564   9.6180887  18.9013882   5.8264689  10.6410370  19.9653168
   7.3343754  13.1411524   0.1214698   7.0829034  13.1255522   1.0449146
   6.7545547  12.5038061  -0.2954603  63.1566887  36.5358315  58.0072632
  63.0542221  37.4142570  57.6410637  63.3907127  35.9893837  57.2570267
  10.1143274   4.4655280   4.0533013  10.5804920   4.7281656   4.8469915
  10.5993891   4.8829017   3.3414402  78.6201019  68.1151581   1.4727093
  78.2984848  67.2160645   1.5392547  78.5831833  68.4496765   2.3687916
  54.4600220   3.1174920  64.6273270  54.9619179   3.9325173  64.6190338
  54.3421555   2.9182334  65.5561142   4.2403803  44.3632202  18.4173717
   4.4600177  44.8650360  17.6324043   3.2839355  44.3790436  18.4519329
  15.6247091   3.7155623  43.7864723  14.9207191   4.1766505  44.2425728
  15.1753836   3.0599952  43.2530212  43.8320160  55.1573143  85.2647705
  44.2187843  54.3386040  85.5751801  43.9477081  55.7679977  85.9927216
   7.9631338  50.4728279  27.4949417   7.2696729  49.8759193  27.7760887
   8.0300674  51.1128883  28.2035122  41.7874527  18.0291939  76.5675125
  40.8994865  17.7249832  76.7551422  42.1223488  17.4070187  75.9217758
   5.4800239  36.8579521  48.8905869   6.4135742  36.9404335  49.0853004
   5.1054535  37.6988869  49.1528168  20.4340839  45.0065689  27.4616642
  20.0768814  44.9582062  28.3484001  19.7152958  44.7205200  26.8979683
  52.8490143  14.8089342  79.8451691  52.0309448  15.2694874  79.6584015
  53.5338402  15.4490585  79.6515427   0.3383954  41.9367638  14.2012157
   0.6158365  41.5697746  13.3618250  -0.6163914  41.9722023  14.1432667
  62.0956841  63.6794319  79.9679871  61.2912369  63.1839600  79.8143616
  61.8229599  64.5962296  79.9315643  50.1902733  67.5085678  78.0821991
  50.4680176  66.6955719  77.6601562  50.8658409  67.6808929  78.7380524
  39.0942421  55.2931252  69.9675522  39.9728279  55.3450851  70.3438721
  39.0819397  55.9724007  69.2932663  15.6308603  71.0363312  68.1902847
  15.1802883  70.8342896  67.3702850  15.3266478  71.9141541  68.4207382
  81.2783279  60.3627625  66.2600403  82.2189407  60.1907997  66.3038406
  81.0157776  60.0402679  65.3978958  70.4716415  17.8357239  21.8200607
  69.8442383  17.8660259  22.5423317  70.3180695  16.9870510  21.4048481
  64.4195175  67.4769211  21.0999775  64.0639038  66.7941971  21.6688919
  64.9774933  67.0061798  20.4808655  49.7686615  68.8466187  71.8881607
  49.1710548  68.9145660  71.1435242  50.6289215  68.7056808  71.4927826
  14.4084787  41.2096176  82.9097366  13.5522242  41.3957329  82.5244827
  14.5829535  40.2977982  82.6765518  19.7537861   6.9277525  69.6441727
  19.5194302   6.2949157  68.9653244  18.9230309   7.3357291  69.8883667
  22.4956303  66.8280792   6.5058093  21.7565327  67.4359436   6.5275574
  22.6271515  66.5781174   7.4203873  67.1608810  38.0819969  25.3416958
  67.8227768  38.7734680  25.3415394  67.2378922  37.6765251  24.4780445
  26.5409164  51.0949936   7.1597428  26.2663689  50.7761421   8.0195055
  27.4810772  51.2500343   7.2508059  75.2042618  63.6895638  14.6059589
  76.0467758  63.3180237  14.3445206  75.3804398  64.6229630  14.7241497
  34.0842590  60.1805840  70.7323151  34.2421875  60.6751671  71.5364761
  34.8793488  60.3055763  70.2142029  21.8238544   4.7755203  41.3108788
  21.4750633   4.0595737  40.7798462  22.7252293   4.8820777  41.0069046
   3.5082271  66.1987762  11.9484358   3.1228101  65.4470673  12.3985662
   3.0052135  66.2762222  11.1377506  19.4638710  34.3673630  71.4978638
  19.8960724  34.6179047  70.6813660  19.2129097  35.1985359  71.9008484
  29.2647476  24.2044353   8.4521084  29.1396008  23.4328041   9.0045156
  28.4115334  24.3464069   8.0421057  73.7001953  62.0336914   6.5883274
  74.5733337  62.3819580   6.4078608  73.1522980  62.8097763   6.7055364
  86.5615540  51.0973701  36.1459045  86.4763947  50.3833275  35.5141449
  86.3385315  51.8845787  35.6491203   6.0389218  59.6395798  13.7368822
   5.3722086  60.2548447  14.0421228   6.6876516  60.1884918  13.2963409
   0.8818923  65.0146866  58.9227333   0.2047063  65.6770477  58.7851334
   1.1442997  64.7534714  58.0400429  29.6846600  61.5230789  16.1347485
  29.8862801  61.1529121  15.2753553  29.0230217  62.1918869  15.9582186
  49.1909294  64.5932617  62.5638504  49.3279381  65.5348816  62.6678123
  49.8878136  64.1911316  63.0823822  24.8121872  17.3053017  68.6024017
  25.4101906  16.6317177  68.2785034  25.3730297  18.0623932  68.7712250
  38.5417595  45.0138206  31.7195816  38.2253227  45.0793266  32.6205864
  37.7463951  44.9891968  31.1875858  26.5545063  67.4164658  25.5722542
  26.8576069  66.6044388  25.9784222  27.3565884  67.9028473  25.3816547
  78.5210800  17.0640850  84.4201126  77.6419678  16.7516060  84.6340103
  78.6697311  16.7654057  83.5229340   3.1478167  55.1358299  85.3887253
   3.3228352  55.7330475  84.6614456   2.1930814  55.0794716  85.4279251
  42.5959358  68.5381088  72.7727127  43.4740143  68.3553772  73.1071091
  42.0842552  68.7584076  73.5510941  66.2170181  67.7865524  66.5527954
  66.7417145  68.3672638  67.1038971  65.3353195  67.8382034  66.9218216
  85.2710648  68.3571930  60.3532600  84.4599533  68.8236847  60.1514969
  85.0153351  67.7018433  61.0023766  64.6417389  40.8889160  63.2820587
  65.5890579  40.8930817  63.1449623  64.2735672  41.0618286  62.4155807
  75.8752365  35.4432602  45.2150497  76.1489868  36.1973953  44.6929665
  76.6879807  34.9731789  45.4013252  28.4585419  32.4011459  83.5186081
  29.2571468  32.6713257  83.9718857  27.7483025  32.7641144  84.0478058
  35.4307594  53.8010712  86.3612671  35.7905350  54.6866531  86.4116287
  35.9446144  53.3723564  85.6768799  56.8893356  46.0430832  10.9025450
  57.2275429  46.5105438  10.1387854  57.4815483  45.2987022  11.0093660
  41.6957397   4.0634093  13.5403376  42.1387901   3.6680186  12.7896013
  42.2677994   3.8727570  14.2837315  40.7522087  46.9538727  37.7039833
  41.6854095  46.8449402  37.5209351  40.3233452  46.2882500  37.1661644
  76.4458542  20.0925865  43.6072044  76.5917435  19.5944653  44.4114571
  75.6974945  19.6636429  43.1922302  41.4290810  70.8757935  71.0102768
  40.5573578  70.5978851  71.2915115  41.9644279  70.0847626  71.0727692
  85.3917465   9.1685953  74.7807617  86.2648468   9.5425825  74.6621933
  85.5193481   8.4563522  75.4073868   8.1414032  10.3074560  46.9015732
   7.9751997   9.5877590  47.5103798   7.2935023  10.7413235  46.8064194
  70.8676224  47.2664948  27.2365417  70.8522034  46.5440483  26.6087952
  70.0095215  47.6808510  27.1459675  13.5437775   1.3919595  33.4268227
  13.6906967   1.7591605  34.2984924  13.8519049   2.0704587  32.8260498
  46.2962265  16.9623928   4.0633941  46.8760719  17.6525402   4.3854294
  45.4158936  17.2673321   4.2830782  10.1242075  60.3555183  35.7336960
  10.7955675  60.8117409  35.2263832  10.6165800  59.7893066  36.3280067
  79.4303055  48.0321960   8.3792362  79.1952744  48.7889748   7.8423223
  80.0260162  48.3836975   9.0409021  52.4984627  68.2069092  56.3744049
  51.7512741  68.5394745  56.8717384  53.1861572  68.8585892  56.5108261
  72.3691788  34.2215958  14.7164221  72.7741013  33.3552551  14.6748571
  71.8713913  34.2926445  13.9019365  52.0610619   4.3518357   7.1915970
  52.5073090   4.9383459   7.8024158  51.2639389   4.0885048   7.6514711
  22.2309494   0.5883518  37.9968300  22.4440117  -0.3447121  37.9817238
  21.3723755   0.6311892  38.4178352   5.3620334  29.8889751   2.4714403
   4.4493914  29.6965466   2.2562950   5.3478866  30.7915878   2.7897511
  85.5634155  63.5941582  75.9875565  86.2364807  63.2873840  76.5950928
  86.0096436  63.6466713  75.1423569  61.9785538  38.2414627  51.0251312
  61.4462318  38.1047134  51.8088188  62.8463860  38.4654846  51.3611565
  38.5906372  12.8200998  54.8171997  39.3540077  13.3691235  54.9962883
  38.8676796  11.9373102  55.0624771   0.1012992  34.7953949  87.1561584
   0.7289883  34.0753441  87.0947723  -0.5688855  34.4779701  87.7614059
  75.3055496  22.6482258  42.5804138  75.6610031  22.6848392  41.6924095
  75.4980621  21.7593975  42.8789978  85.3409424  13.8322887   4.0653362
  85.7895050  14.6574383   4.2501392  85.0558319  13.9132786   3.1551805
  54.3822594   2.9232264  88.6511841  54.6402397   3.5965860  88.0216904
  53.6328697   3.3005669  89.1119003  43.3575287  62.4960289  57.3756027
  44.3022156  62.6498299  57.3635712  43.1248703  62.5070724  58.3040314
   1.0102967  33.8766479   1.0082893   1.9399846  33.8771477   1.2361318
   0.5610954  34.0546036   1.8345953  48.6139450  45.2574615  80.3120804
  47.9865341  45.5068054  79.6335449  49.4635963  45.5272636  79.9634628
   7.6770382  39.1057014  67.5070114   7.7019625  40.0184288  67.7943115
   7.8388548  39.1467819  66.5644836  79.5274658  46.0662193  49.7221680
  80.2975464  45.9899597  49.1587868  79.8851852  46.1761742  50.6031799
  60.1185722  37.4221916   5.6887336  60.5293427  38.2338486   5.3908863
  59.7273636  37.0480270   4.8993087  68.0528717  21.9943733  68.5412445
  67.8017502  21.0710411  68.5161667  67.4539108  22.3883400  69.1754990
  78.2306442  25.1328907  38.4584846  77.6466675  25.5749016  39.0747871
  79.0268021  24.9637108  38.9622192  13.3157444   6.6697726  54.1115685
  14.2089329   6.9203296  53.8756294  13.0150070   7.3710494  54.6894951
  51.0285683  44.5457802   9.5002298  51.4652672  43.7731094   9.8587036
  50.3547592  44.7608833  10.1451693  34.8492851  58.4447021  34.8018036
  34.0198860  58.2660408  35.2449799  35.4810295  58.5570602  35.5120926
  59.7625160  53.0422020  14.7527161  59.2932396  53.3244247  15.5378027
  59.2669945  52.2869682  14.4359941  66.3670883  60.7461624  83.1078644
  65.7461472  61.1573639  82.5065536  66.2760468  61.2414780  83.9218750
  84.1357727   4.9921231  29.6724148  84.9866333   5.2437925  30.0314865
  83.6488495   4.6546712  30.4242573  49.8201485  40.4671822   5.2966056
  50.4567451  41.1470528   5.0758100  49.1888771  40.9062004   5.8666868
  29.2876434  66.5340424  54.7132072  29.5802345  66.8827744  53.8711815
  29.1994896  65.5925140  54.5648994  69.4709244  29.2398300  14.9195290
  70.0670547  29.4188156  15.6467314  68.8883667  28.5560417  15.2501211
  68.7128830  50.0358810  52.9527588  68.0363312  49.3898888  53.1557579
  69.2988663  49.5858459  52.3442192  71.5322418   1.9082290  66.3641815
  70.7391510   1.5873473  65.9349060  72.2017822   1.2599362  66.1458588
  16.6760273  44.1487160   6.9671016  16.4497700  45.0742989   7.0584054
  17.2460899  43.9666786   7.7141776  -0.2286765  56.9389725  81.4063492
  -0.3711410  57.3212891  82.2722397   0.6145220  57.2931976  81.1239090
  18.5439358  13.9247875  30.8927174  18.3724556  13.2783451  31.5775070
  19.4094849  14.2742977  31.1046104  31.0056667  12.1181746  88.6139679
  30.3503380  12.1928587  89.3076477  31.8174591  11.9035397  89.0734863
  64.0480804  67.4320831   5.4129767  63.4860382  68.0917511   5.8193946
  63.5597725  66.6136322   5.5020432  35.1284561  43.0959549  83.9552765
  34.3568687  42.5306244  83.9911728  35.8418884  42.5115013  83.6990356
  24.8082390  54.1700134   1.1042688  24.4101601  54.7702065   1.7347707
  24.6545620  53.2997551   1.4720514  34.3664970   9.8025236  81.9041595
  33.6591682  10.2966566  82.3185959  34.0187035   8.9151735  81.8153839
  33.3539581   8.2053289  16.0585232  33.2539215   9.0408030  15.6022253
  33.5604248   7.5774851  15.3661242  21.9496975  50.4017677   4.7927651
  21.2762356  50.9526100   5.1918321  21.6268711  50.2320213   3.9077790
  67.6284180  57.5113716  35.7858162  66.8788605  57.6175003  36.3715973
  67.7654877  56.5650826  35.7412758  68.9603424  28.4601421  31.5282536
  69.2917480  29.3204155  31.7858067  69.1156921  27.9050217  32.2924118
  44.5097580   7.0432649  34.2969437  45.4430809   7.2274885  34.1910858
  44.4171944   6.1239882  34.0467567  82.7154922  29.6233177  48.5195427
  82.7422638  30.3777695  47.9310570  83.6265106  29.4920921  48.7823296
  30.2302952  37.6355667  22.1511917  30.3700733  37.9803925  21.2692680
  30.6830158  36.7921982  22.1531487  62.8039627  27.5202255  78.4192429
  62.8278351  27.6127014  77.4668198  62.9570274  26.5879841  78.5732803
  53.3403740  54.7734032  59.0155830  53.4502869  55.7187424  58.9131775
  53.9085464  54.5445061  59.7511215  83.1429596  19.2178936  38.5658684
  83.7511444  19.5318737  37.8967171  83.1576996  18.2651482  38.4748306
  40.8547363   2.1313603  49.4087830  40.6674690   1.3115081  49.8659515
  40.5403328   2.8136101  50.0020103  61.7584496  48.0021172   1.0721487
  61.3853912  47.1356812   0.9098247  62.6884499  47.9046059   0.8676430
   9.2101917  48.0851097  20.3420315   9.9398632  48.6132469  20.0181770
   8.4989033  48.2550125  19.7244282  61.3611717  35.8226776  36.2617722
  60.4401512  36.0364609  36.1126289  61.5157852  35.0436440  35.7275085
  75.4213867   9.3916779  23.3300400  75.0242996   8.5207748  23.3394108
  75.5836411   9.5709763  22.4038906  24.1034775   2.0351067  39.5490990
  23.6190853   1.5416988  38.8871765  23.4468651   2.2601013  40.2082443
  79.5141373  51.9976807  37.9389305  78.6726074  52.0815392  37.4905663
  79.3351822  52.2738190  38.8377914  63.1849442  44.7321892  69.1687164
  62.7533531  44.2207718  68.4843063  63.1650734  45.6322784  68.8436432
  32.2642899  10.9082994  83.7188797  31.5833759  11.5479116  83.9274063
  32.8354492  10.9074812  84.4869995  81.1938553  35.2401924  57.3190689
  81.5337982  34.4664650  57.7685318  81.8912125  35.4909592  56.7132301
  54.6550293   3.7131648  12.9923487  54.3908920   3.0534914  13.6336708
  55.5765991   3.5220983  12.8178949  66.0340576  68.9195633  42.7632866
  66.5505142  68.2454224  42.3216553  65.7795105  69.5223236  42.0646324
  51.8215370  32.5049782  15.8788404  52.6994019  32.1265564  15.8300457
  51.7310524  33.0054665  15.0679426  80.9153748  38.7882156  75.1369324
  80.6025085  39.6253853  74.7941589  81.1256256  38.9681168  76.0532608
  48.7547684  67.4618912  66.1371689  49.6969376  67.4898224  65.9705353
  48.4250870  68.2897873  65.7876816  18.9766483  47.9813194  39.4501266
  19.0265560  47.8344383  38.5055809  18.0436497  47.9158173  39.6537323
  73.0951080  33.5119057  53.7164612  73.0756531  34.0501137  52.9251404
  73.9710159  33.1259346  53.7221336   2.5344927  27.3072109  77.6919479
   1.7309644  27.8197403  77.7807693   2.3472283  26.4871502  78.1487427
  32.8036270  67.0554733  31.5843220  32.1783562  66.8502121  32.2793999
  32.2615433  67.3618011  30.8573093  11.3919439   0.9532757  45.2639389
  12.3175678   0.7153448  45.2106400  11.1487885   1.1723849  44.3644409
  80.7916412  30.8480186  50.8270149  81.1171341  30.3725319  50.0626869
  81.5030518  31.4451485  51.0584526  59.6073227  23.2764378  15.6074944
  60.0242004  22.7137165  14.9549665  58.7303429  23.4377270  15.2594748
   0.1552707  33.8783607  32.0855675   0.3188663  33.6416359  32.9984894
   1.0242501  33.9021683  31.6848927  34.6098747   9.5415049  12.5192881
  33.9270020   9.3227339  13.1533642  34.3421822  10.3879967  12.1614857
  69.2451859  65.8164673  17.5864563  69.6909103  65.0675507  17.9822845
  69.6757126  66.5810165  17.9690056   0.5427268  26.0558376  16.7086887
   1.2972515  26.2618999  16.1569080   0.8930559  26.0456238  17.5994167
  45.0686340  25.7517529  31.4406376  44.2916489  26.1479340  31.8350506
  44.8921165  24.8111038  31.4564972  51.9940071  55.1888008  32.9939880
  52.6924782  54.6207466  33.3190765  52.0589828  55.9790993  33.5301208
  70.6663132  12.2500792  80.8383331  69.9251175  12.6501980  80.3836212
  71.2670975  11.9945240  80.1383438  74.2980804  54.6842499  57.1472397
  75.1314011  54.5670090  56.6910896  74.0758896  53.8103867  57.4685249
  65.6106110  40.8814240  43.1825256  65.0110779  41.4485664  43.6674423
  65.8921204  40.2276154  43.8224602  10.2619848  47.6269798  86.8094025
  10.1712513  48.1772385  87.5873566  10.0103674  46.7518158  87.1043777
   9.0200176  35.8151779  26.3522892   9.5919523  36.1548347  25.6639900
   9.5559511  35.1686592  26.8116608  11.4109449  61.7212257  20.8209572
  11.9476814  62.5042763  20.6985645  11.5072098  61.5075226  21.7490158
  34.0890083  51.4667053  43.3768158  34.2934952  51.5725060  44.3059120
  33.2440262  51.0170975  43.3672333  56.3665504  46.6451454  50.9010086
  55.6182404  46.3456955  50.3846817  56.8251495  45.8415947  51.1464157
  44.3107758   3.9828291  76.5803070  43.8374443   4.8083949  76.4772034
  45.0992165   4.0907393  76.0483780  75.4620056  18.4642830  26.8167667
  75.4339294  19.3495960  26.4539108  75.5640182  18.5949497  27.7595024
  35.0957069  66.1131363   9.2120581  35.4781303  66.9541321   8.9616489
  34.1624832  66.2968979   9.3195572  21.1390877  25.6768284   0.8829670
  20.1989174  25.5015221   0.9226973  21.2889538  25.9777412  -0.0132604
  22.4594803  16.2287903  47.8801727  23.3977528  16.3368454  48.0357361
  22.0938187  16.0385075  48.7440681  80.7699432  36.6752090  17.3576355
  80.0814896  36.7359352  18.0198841  80.3550034  36.9830818  16.5518608
  56.0323029  14.1238070  38.2405281  55.3363075  14.7158146  37.9553070
  56.4005089  14.5439129  39.0178108  54.9086266   0.1876324  77.4194107
  55.2307053   0.8099821  78.0714645  55.6585121   0.0330589  76.8449402
  51.7192688  10.7609453   8.3749828  51.5567741  11.4058409   7.6865516
  51.4135628  11.1846085   9.1770325   3.1608512  28.6715317  84.7253799
   3.9826887  28.4832458  84.2722092   2.4861338  28.5532856  84.0568008
  23.2419930  15.3093739  20.6832371  22.4035435  15.3137970  21.1449871
  23.2089443  16.0821209  20.1193199  16.9979610   6.4109230  75.9389343
  17.4516258   5.5701594  75.9984055  16.7459927   6.6114063  76.8403473
  64.1421432  47.9328041  88.7354126  63.7903900  47.3087158  88.1005783
  64.4345856  48.6743584  88.2055054   2.8476312   0.3909343  80.2889862
   2.2104855   0.9414216  79.8337479   2.3221557  -0.2996500  80.6929703
  60.7398605  43.7573471  78.5675507  60.0067635  44.3332176  78.3503494
  61.4986458  44.1693382  78.1543427  17.8495388  16.8989811  69.9117203
  18.5957661  16.7389526  69.3339996  17.4841900  16.0298958  70.0773849
  82.7983322   7.2568960  29.1400051  83.1951141   6.4022708  29.3085632
  83.4409561   7.7170072  28.6000309  24.6746159  48.3637238  39.7018471
  23.7862682  48.0100746  39.7466164  24.5698338  49.2979927  39.8818245
   0.2349033  50.5745239  28.5634842   0.9373711  50.9078331  29.1217613
  -0.2868029  51.3475189  28.3477726  62.5127563  57.8371201  49.4947052
  62.2746582  57.0718727  50.0180969  63.4698524  57.8303375  49.4821548
  26.1962204  44.8523788  88.0599670  26.2930470  45.2485008  88.9259567
  26.4055653  43.9281044  88.1946030  86.4104462   0.9550886  87.0246811
  86.7868500   1.3352749  87.8184128  85.5538559   0.6275738  87.2989426
  78.2753372  45.3636398   4.9830422  78.7931366  44.9020309   5.6426134
  78.0913315  44.7016487   4.3166027  29.8656139  54.1338959  84.6264496
  29.7257900  54.1453476  85.5733109  30.8154678  54.0723801  84.5253296
  21.1998596  60.3787498   9.1831093  21.4306259  59.7805214   8.4724035
  21.6843033  60.0494690   9.9401560  47.0779915  29.8175030  28.7520771
  47.8589020  30.2243519  28.3767281  46.8744354  29.0958195  28.1571255
  32.6449547  14.6417675  47.2088089  33.3276291  15.1591644  47.6359978
  32.4166794  13.9696493  47.8509750  58.4419365  16.8041401  49.8256149
  57.6507568  16.6487637  50.3414879  58.6556969  17.7232990  49.9858894
  73.1161118  29.0212154   9.8561907  72.2695084  29.2121410   9.4524097
  73.3452835  29.8246231  10.3233604  18.6658325  65.9266739   0.8639563
  19.0721798  65.0638428   0.7824855  17.9545898  65.9179077   0.2234179
   4.5789690   9.8644047  39.7641449   4.2502246   9.4399586  38.9716759
   3.8056393  10.2683001  40.1579247  24.1966820  59.0440025  77.7067032
  23.3337669  58.6761665  77.5161667  24.8077602  58.4781151  77.2349167
  79.1166229  39.3832932  29.9911308  78.7047882  39.7873230  30.7549267
  78.5934601  39.6858482  29.2488403  78.5721970   4.6407413  66.8041687
  78.6775742   3.7847474  66.3889618  79.3163452   4.7100778  67.4022293
  66.4294586  60.4884415  45.1896591  65.9467239  61.2089157  45.5947685
  66.1129074  59.7051353  45.6396141  72.3112564  11.0149040  82.9068985
  72.9870453  10.8671980  82.2452927  71.6459503  11.5360966  82.4574890
  77.9975891  66.2226791  12.4027910  77.0881195  66.4436646  12.6034365
  78.0168915  66.1294632  11.4503365  26.0273533   8.1384706  56.1861763
  26.3331127   8.7076216  55.4799118  26.4526176   8.4821415  56.9718437
  75.5839844  40.0170822  30.7788124  75.4984818  39.1795845  31.2343521
  75.8496094  39.7803650  29.8901958  11.1452589  62.0907860  41.2415314
  11.1136951  61.5116463  40.4800644  10.4354115  62.7162895  41.0962982
   2.8971364  37.1334114  21.3400459   2.2589195  36.4800720  21.6264992
   3.6313057  37.0327911  21.9459362  26.8267670  42.7218628   6.5347676
  26.5042324  41.9398956   6.0867357  26.2438564  42.8244553   7.2870450
  70.0197525  62.1950874  78.0869904  69.5128174  61.3838921  78.0522156
  70.6957169  62.0271378  78.7435684  72.7440186  20.4417686  32.8351974
  73.3036728  19.6904030  33.0313377  72.0985947  20.4506626  33.5420151
  13.1465225  30.0960808  64.3393707  13.5309849  30.6949501  64.9795074
  13.0523853  29.2688522  64.8116608  72.4469528   5.0481520  14.4168606
  72.3143005   5.1174126  15.3622913  71.8616180   5.7073622  14.0439491
  35.0266113  69.4912262  66.0009537  34.9216042  69.8173904  66.8947220
  34.2559471  69.8160629  65.5353470  25.8120899  66.0716095   7.4319744
  25.4098454  66.9027863   7.1798139  25.7998219  65.5469818   6.6314459
  80.8789825  47.3911781  34.2697144  80.5038605  47.7745895  33.4769287
  80.7328415  48.0512924  34.9473000  75.7517853   0.2400128  22.0133858
  76.6992340   0.1495787  21.9114151  75.5739365  -0.0838225  22.8964100
  21.9126797  57.1883965  58.3305244  22.4320869  56.7416725  58.9990196
  21.1184521  56.6600037  58.2515717  69.6613312  30.3050766  63.3754120
  69.1697693  29.4883080  63.4619637  70.1746445  30.1920681  62.5754318
  67.8202820  37.7079544  38.9063683  68.5941925  37.3033600  39.2982788
  67.3568954  38.1034088  39.6446953  45.2827110  28.6234322   3.6843557
  46.2352524  28.6493111   3.7750766  45.0694733  29.4042778   3.1734324
  11.7877083  30.8291817   8.1589193  12.0709953  30.3303738   7.3926487
  11.7908554  30.1925392   8.8736982  55.2320595  50.6003876  80.3173141
  55.4807587  51.1146431  79.5492477  55.9535065  49.9825478  80.4357376
  31.2113400   8.2862883  61.4453506  30.7526836   9.0662527  61.1330681
  30.5743084   7.8416448  62.0045624  41.1465759  19.7946358  36.5404739
  41.0533829  20.6170616  36.0596771  40.3132935  19.3430824  36.4064217
  78.1133957  39.8617401  43.9303246  78.9196091  40.3195534  43.6922798
  77.6482086  39.7491417  43.1013756  72.5656281  58.8988686  81.4433899
  72.3445358  59.7965622  81.1954041  72.8211823  58.9606743  82.3637772
  52.5643158  15.2025337  84.5926361  52.7780151  16.0312786  85.0212936
  53.3234253  15.0158672  84.0402451  25.4662704  13.4626265   5.8052459
  26.3947868  13.6489067   5.9444828  25.3626232  13.4597816   4.8536782
   6.5609999  23.9776783  82.5514984   6.2074714  23.1273861  82.8127518
   6.6881533  23.9038315  81.6056595  49.5341568   9.2717648  27.1555538
  48.9522438   9.3897562  27.9063454  49.2253761   8.4681253  26.7371655
  43.9529037  65.5601883  82.7543564  44.8722496  65.6054916  83.0170059
  43.7478447  66.4431763  82.4469299  21.1446457  39.2960167  65.1812515
  21.7129688  39.9878807  64.8427734  21.6964893  38.5139198  65.1865158
  67.3908768  69.6067581  54.1134071  67.1187210  70.2056656  54.8087311
  67.7615356  70.1756821  53.4387398  33.0213432  63.9149590  20.4278355
  33.7242088  64.4736557  20.0960732  33.4422379  63.0703621  20.5882454
  53.7623558  62.6405830  24.4353256  53.4197311  61.7468643  24.4249535
  54.6831398  62.5469398  24.1911488  57.7004051  54.3923035  11.8084002
  57.7969742  54.6531334  12.7243004  57.0542297  55.0022545  11.4525194
  61.0691071  47.0079956  20.4023151  61.9721260  47.3164597  20.3272343
  61.0358276  46.2275429  19.8491230  57.8428955  46.8656998  20.2067471
  57.7944565  45.9402466  19.9671211  57.7620926  46.8707008  21.1605167
  81.1429672  67.3862839  87.9789124  81.5998688  67.7076645  87.2016144
  80.4726105  68.0470047  88.1529999  73.1586533  38.2493362  58.7758484
  73.9105072  37.8282280  59.1925163  73.3250198  38.1621132  57.8372612
  33.7856522  66.8601456  52.7413445  34.3879776  66.9146423  53.4832802
  33.9703941  66.0087128  52.3449020  67.5469208  64.6898193   0.6268839
  67.2615967  64.0006561   0.0269849  67.3722000  64.3357773   1.4988701
  66.6067047  50.4404831  48.2503128  67.2534180  49.7367210  48.1982918
  66.3326263  50.4465981  49.1674194   2.8505802  42.4904709  65.3632736
   3.6783173  42.1416473  65.6940384   3.1085489  43.1347427  64.7040329
   7.9625306  49.3478241  45.4545326   8.4481564  50.0413017  45.9011726
   7.1099586  49.3341408  45.8894615  62.0858879  28.9447575  63.7346573
  61.2385597  28.5986671  63.4544983  62.4081573  28.3045769  64.3691177
  52.0617485  46.5684013  85.9322433  52.6124649  45.9276543  86.3821182
  52.6296043  46.9405136  85.2574844   0.8474653  39.8911362  78.5561600
   0.7924252  39.3772049  77.7505035   1.5911716  39.5170174  79.0285645
  51.4914703  38.6378059   3.1390831  51.7547607  39.5561981   3.0801826
  50.9802322  38.5865364   3.9466953  83.7499542  39.5199051  38.2321434
  84.2392502  39.2327499  37.4611931  84.3486710  40.1102257  38.6896248
  24.8152981  68.0302277  61.4152908  24.2033501  68.5547104  60.8988914
  25.6737442  68.4096832  61.2273674   2.4159150  58.0392189  62.7484436
   2.0629020  58.7504463  63.2830162   2.6783669  58.4618034  61.9306602
  68.5780792   5.1494894  37.8908806  68.6083298   6.0716724  37.6361389
  68.6832581   5.1602316  38.8422241  72.7856064  30.1967468  59.9787254
  73.5726852  30.4509468  59.4969330  72.1335526  30.0257816  59.2991447
   2.2253742  61.8493004  42.1875763   1.9645753  61.5855675  41.3051567
   3.0573344  62.3064804  42.0648613  14.8493176  57.6551781  76.2651520
  14.8386068  58.4301033  76.8269424  15.2689323  56.9792633  76.7974091
  36.3790169  57.2142220  48.9904022  37.0324059  57.0774651  48.3043900
  35.5604057  57.3592873  48.5159912  31.1959724  59.9670029  74.3393021
  30.6452332  59.4835091  73.7235489  31.5344467  59.2979126  74.9342651
  72.4668884  27.7179890  25.4769287  73.3859253  27.6602879  25.2156467
  71.9824066  27.3751144  24.7259636  35.4257278  20.5669956  86.9675217
  36.2305527  20.7834206  87.4383163  35.1539764  21.3922081  86.5657654
  13.0359049   3.6044047  54.5625076  13.4851694   3.4731863  55.3974762
  12.7315884   4.5113878  54.5942078  57.0097427   3.2504890  11.7038965
  56.9952126   4.1499238  11.3767300  57.7144432   2.8282747  11.2126102
  31.2189922   9.8284397  10.2393351  31.5165691  10.5536737  10.7886209
  30.7068787  10.2466688   9.5471964  61.5949593   0.4094703  48.2748871
  61.3611298   0.9914593  47.5518074  62.1947021  -0.2269981  47.8857269
  37.2533913   6.3743129  42.0401421  37.1240501   7.0208359  41.3462296
  37.0857735   6.8557262  42.8503113  59.2909508  31.9996204  14.8530340
  59.1720200  32.9315376  15.0363712  59.6455727  31.6389923  15.6656990
   6.8424611  43.4527283  77.3942413   6.0525370  43.0320511  77.7337723
   6.7467546  43.4095268  76.4428177  22.4290104  63.5030708  17.9088268
  21.6571236  63.0958405  18.3019981  22.1039391  64.3228378  17.5366058
   1.9536229  52.9203148  63.7763786   1.8807225  53.8660583  63.6479950
   2.7011580  52.6623116  63.2370644  20.5027428  12.2196493  59.5160942
  20.9000378  13.0252056  59.8469543  20.7444153  12.1961460  58.5902023
  31.7233944  47.5596542  84.4991150  30.8734188  47.1581879  84.3185654
  32.1052094  47.7111549  83.6345291   5.7284083  56.2356415  36.5854683
   5.7114205  57.0922241  36.1586075   5.1356640  55.6956978  36.0626411
  64.9456100   7.5259590  33.7776909  65.5794601   7.7818213  34.4477577
  64.1151352   7.8926787  34.0811043  10.2218428   4.1085949  65.1185913
  10.5062790   4.5164590  64.3006897   9.5229855   4.6782970  65.4399490
  67.4032898  55.4239540  24.1463661  67.3994446  54.9948387  23.2907524
  66.4783173  55.4983902  24.3811398  67.3469391  61.9038086  10.8820229
  67.4635544  61.4420013  11.7123041  66.9443665  62.7372589  11.1260109
  62.4848824  10.1142530  13.8392963  61.7847176  10.1884165  13.1908350
  63.0982285  10.8125896  13.6104622  35.8594055  59.4066429  11.6913939
  35.8120461  59.5715828  12.6330862  35.3304977  58.6198807  11.5591402
  10.2494879  36.8598595  15.1737928   9.3209085  37.0895653  15.1390352
  10.6579752  37.4122353  14.5072746  62.0138893  30.5562096   8.4700527
  61.2165680  31.0575390   8.6408691  61.8379288  30.0993023   7.6475539
  67.2842178  45.8764038  82.9161911  67.4653931  45.4107933  82.0997314
  67.2752151  46.8007812  82.6678467  70.6138077  58.5311813  25.5379620
  70.4424210  58.5140305  24.5963879  71.5323792  58.2744560  25.6189251
  67.3632507  16.7531509  86.6515656  67.2401886  16.8252926  87.5980759
  67.7222748  17.6014576  86.3913651   0.4674760  49.2324791  52.7308121
   0.1945814  48.3162041  52.7777290  -0.3520076  49.7238388  52.6738663
  62.3625946  12.8012629  31.6526012  61.5453987  13.2846222  31.7741814
  62.8765182  12.9988871  32.4355812  13.9721060  56.7994156  65.6158066
  13.6911154  57.6446075  65.9664230  13.9992676  56.9303780  64.6679993
  46.6091270   2.0502245  81.5366974  46.8984299   2.4744778  80.7288971
  47.0536919   1.2025286  81.5345154  39.0396080  32.9077225  20.6430626
  39.6427727  32.1648903  20.6680984  38.4269829  32.7430725  21.3598709
  49.8616638  15.1702976   6.8333488  49.5947685  16.0770741   6.6825070
  49.1890488  14.8162746   7.4151459   5.7376275  11.4749365  87.3750229
   5.8509350  10.5369148  87.2216949   4.7890458  11.6009007  87.3986435
  25.0075760  61.4372139  84.5223923  25.9645100  61.4258385  84.5028992
  24.7899799  61.9034081  85.3295746  83.3699417  45.5419006  10.8724298
  82.4525757  45.2923927  10.7610397  83.3968430  46.4684525  10.6336670
  84.8972931  35.7002831  10.2726002  85.0004425  35.1559143  11.0531483
  85.7737045  35.7383499   9.8896103  12.0506802  68.6393738  51.0172310
  12.2908297  68.3292923  51.8903961  12.3217230  67.9340286  50.4296417
  69.2851715  64.5175781   5.7321324  69.2051468  65.2480316   6.3455429
  68.4008636  64.3975067   5.3860054  59.4144135   5.0875115  83.8220749
  59.8510895   5.7892327  83.3392334  59.4686470   5.3577795  84.7387238
  81.5185013  31.5134811  76.8940659  81.5873184  32.3557777  77.3435440
  82.2887726  31.0241737  77.1830063  53.3119125  24.7283878  84.5160370
  52.5295486  24.2166862  84.7216949  53.0173607  25.3650208  83.8647537
   5.1310930   7.9568410  29.3553867   6.0119119   7.7626548  29.0349464
   4.6179452   7.1806917  29.1306572  22.9893341  57.5806427  49.8314514
  22.3476925  57.2586632  50.4645844  23.2388954  58.4438782  50.1612587
  25.2192059  18.0225887  87.9418716  24.4625721  17.4556484  87.7924805
  24.8654671  18.7734241  88.4186783  61.2872162   9.4255495  32.3485909
  61.4711609   9.3546705  31.4119072  62.0379906   9.9005871  32.7048378
  79.9583511  46.1857910  61.2594833  80.5872498  46.4675369  61.9238167
  79.4448166  45.5024986  61.6903191  59.9412193   7.6132655  18.0144196
  60.0824471   6.7738380  18.4521961  60.5235901   7.5884008  17.2551727
  23.0933857   5.2004452  84.1753540  23.9648876   5.3462501  83.8073120
  22.5402756   5.0171690  83.4159393   4.1395288  22.3888149  79.7896271
   3.7389309  23.0498753  80.3542099   4.4598451  22.8814449  79.0340195
  85.4164352   4.6667304   3.3556175  85.6335983   5.4912024   2.9205091
  86.2478409   4.1947827   3.4031913  58.6101608  27.8203335  82.5882797
  57.6917915  27.5934772  82.7344437  59.1006775  27.0984306  82.9813232
  37.5726471  61.0838699  55.9075089  38.2433739  61.2659187  56.5657005
  37.5972404  61.8424835  55.3242989  67.9176788  70.7312012   4.5055861
  67.2496643  71.0905991   3.9217842  67.4278107  70.1936111   5.1278811
  70.6900101  34.7335548  87.0478516  70.8126373  33.8997116  87.5016174
  71.2141342  34.6519852  86.2510681  76.7343826  59.8627129  30.4479370
  76.3084793  60.6871300  30.6828175  76.8154449  59.3904228  31.2765541
  24.8463154  50.4958076  63.6844559  24.8655586  49.7024994  63.1491814
  24.8232307  51.2122574  63.0501099  80.9104156  54.6135750  67.9556580
  81.0087051  54.6147118  67.0035248  80.7544937  55.5306015  68.1814423
   1.4179952  29.1693516   9.2663670   0.7801775  29.7139015   8.8049726
   2.0056231  28.8545952   8.5794497  46.6081543  51.3073387  57.0054817
  47.0246925  51.9740372  56.4593658  45.6844521  51.3363380  56.7561493
  55.8056068  56.7560120   8.0809088  55.1562500  57.4563980   8.0174456
  55.5109024  56.0983620   7.4509268  78.4405212  64.3331680  48.0496712
  78.7061539  65.0338669  48.6452332  78.4433746  64.7409439  47.1836815
  66.5251770  25.8267937  29.7036686  65.7909088  26.1104984  29.1590672
  67.0305557  26.6247387  29.8589363  12.2790537  49.5498505  77.6713181
  12.5024643  49.6270561  76.7437592  12.8075447  50.2219276  78.1017151
  27.9127731  22.3389130  19.8876038  27.9383240  22.5124454  18.9466133
  27.8657036  21.3851833  19.9540806  28.8307095  47.9550743  58.0837517
  28.2630463  47.3454628  57.6121979  29.2397232  47.4225769  58.7659454
  43.6401024  57.0033340   5.8489852  43.3114967  56.3268776   6.4411469
  43.9135361  57.7155228   6.4271326  70.4144592  18.0926914  62.2619743
  70.7157440  18.0280132  63.1682167  71.1993408  18.3221207  61.7644310
  46.7756996  36.9661713  64.6379318  47.5452271  36.5478172  65.0239868
  47.1006813  37.3688545  63.8326607  59.8125610  21.2723465  83.6551666
  60.5650368  21.8598537  83.5855484  59.0683479  21.8537827  83.8110886
  33.3536301  11.6690712  11.3789539  33.1551285  11.8380404  10.4579334
  33.6101532  12.5221987  11.7291002  47.5158195  58.1121445  72.7609177
  47.8976173  58.3429146  73.6078033  46.6811295  58.5801620  72.7389755
  81.0077515  29.2794762  80.3015518  81.1697083  30.1611176  79.9658279
  81.2551804  29.3256550  81.2250671  82.6462479  37.6289787  88.4932632
  82.8352966  38.5113258  88.1739502  83.4792099  37.3194389  88.8490524
  18.6292858  56.0419998   7.1905112  17.9762478  56.6017265   7.6106052
  18.5500069  55.2014275   7.6414986  18.0462856  61.0879135  66.4314041
  17.6202335  60.8022308  67.2395477  17.4303627  60.8492737  65.7386398
  46.5974846  68.1967392  36.0003357  47.2639198  67.6140823  35.6361847
  46.6948090  68.1089325  36.9485168  45.0099640   3.5809495  66.3530197
  44.8835297   2.8673623  65.7276917  45.7336044   4.0918531  65.9903183
  72.9876099  28.2507381  74.5951080  72.4577560  28.6889324  73.9291763
  73.5931320  28.9256935  74.9017258  49.1951981  48.8292274  35.9314156
  49.7095032  48.5494995  35.1741371  49.8478546  49.0490723  36.5962029
   7.6738124  16.8373852  81.8920593   7.8905497  17.7677021  81.8306808
   8.5016623  16.4129505  82.1173325  86.2369919  60.4396286  28.9526844
  85.3036346  60.3866692  29.1582680  86.6338425  59.7287636  29.4560833
  44.5092392  40.5611229  77.7576752  45.1033516  40.1902351  78.4101334
  44.5853004  41.5080185  77.8752975   2.0060420   6.7118669  13.2867479
   1.9868085   6.1941180  14.0916071   1.1561015   6.5498581  12.8773756
  81.9725266  40.2270317  72.6130676  81.7395248  40.3130836  71.6886597
  81.1582565  40.4067841  73.0830536  69.1430588  61.3784485   2.6032298
  69.2592926  61.3333397   3.5522749  69.9866257  61.6876335   2.2730386
  40.0505409  55.7627945  10.5940142  39.4369431  56.4712372  10.7885351
  39.5988350  55.2269707   9.9420271  85.0545120  -0.3009547  84.7811661
  85.3319244  -0.0800258  83.8920822  85.0405121   0.5373594  85.2429733
  71.2574539  42.8843575  44.3314133  70.8282394  43.4932709  44.9324417
  70.5870056  42.2304001  44.1337242   7.0410385  15.6362820  69.0891266
   6.6038456  16.3619785  69.5346146   7.2492714  15.9792910  68.2200928
  48.1766853  69.0761642  25.0334358  47.5668488  68.9360046  25.7577877
  48.8889389  69.5887527  25.4157677  12.5469246  13.5146713   6.3980045
  12.6909666  12.8290901   7.0502791  13.0801821  13.2484913   5.6489944
  23.8963165  54.2690582  79.9761124  24.7147827  54.7479553  80.1065140
  23.6026077  54.5299797  79.1032486  67.3468170  70.4268723   1.4050028
  67.0138626  70.6258774   0.5299203  66.9829102  71.1150665   1.9619553
  81.3999481  18.3882904  74.2480850  81.4434357  19.0301952  73.5393600
  81.4465103  18.9114914  75.0482941  38.2646332  71.3244171  28.0425949
  38.6422005  71.9914322  28.6159706  38.8353195  70.5637512  28.1518536
  52.3269920   3.5844278  59.9378777  52.9737930   3.6464732  60.6407471
  52.8228264   3.7656739  59.1394196  65.2203369  36.0007591   7.1005082
  64.3362808  35.7014198   7.3128114  65.4395142  35.5435295   6.2886376
  80.7459946  55.0467148  79.1425018  80.9181747  55.7959023  79.7128525
  80.8104935  54.2861557  79.7201080  12.8849564  49.3547668  24.4347324
  11.9608192  49.5937729  24.5059986  12.9002380  48.4096527  24.5855904
   8.3226271  43.3553047  63.4626045   7.4050584  43.5819435  63.3111649
   8.8031168  43.8411407  62.7922859  53.8791084  51.2639275  72.8544846
  52.9584846  51.5242691  72.8846130  53.8635674  50.3144417  72.9747696
  43.0339622  66.5270233  62.0072098  42.2050667  66.3330841  62.4448776
  42.8231087  67.2339783  61.3973122  64.5129471   2.7570841  19.9775982
  64.6710968   2.2615633  20.7811394  65.0295792   2.3040230  19.3112183
  19.6562347  46.7789764  33.0820694  20.1038952  46.1611481  33.6601028
  19.6496906  47.6022034  33.5704155   0.0657579  16.0202370  45.8642426
  -0.3916621  16.2369900  45.0518303   0.6606365  16.7562542  46.0078735
  80.9596634  37.6859818  82.3736649  80.9029388  36.7805595  82.6789856
  81.0049591  38.2067528  83.1755219  66.8657532  34.6863747   9.4893351
  66.3946152  35.0740204   8.7517776  67.0613174  35.4263420  10.0641670
   1.5364643  51.5039749  31.6468639   1.9514313  51.1872978  32.4492035
   2.2589676  51.6043663  31.0270729   7.5566840   0.2272439   8.2847166
   7.7503185   1.1571549   8.1663828   7.0640078   0.1876040   9.1044302
  84.6479797  20.1475315  47.3492889  84.6844025  19.2111263  47.1542320
  83.7132187  20.3530998  47.3632355  10.6354532  28.4705372  51.0953903
  10.4150867  27.8405266  50.4092751  11.2127542  29.1012020  50.6650238
  22.5495663  46.4844856  11.2713366  22.6370163  45.6548920  10.8019066
  22.8860416  46.3000870  12.1482706  34.5566750  18.8788548  14.4842901
  33.9034500  19.3815250  14.9709654  35.2031479  18.6251068  15.1430111
  14.7687759  70.6248169  65.4584656  15.4885473  70.3619690  64.8848190
  14.0057392  70.6657028  64.8819809  74.8675613  14.9693470  29.5064678
  75.1206665  15.8609686  29.7455864  74.5082321  15.0511408  28.6230507
  13.1299658  40.1613159  85.3430862  13.5639982  40.9106522  85.7509384
  13.5691185  40.0606689  84.4985504  72.1109467  25.7753639  60.7149811
  71.9773178  24.8391819  60.8630943  72.5540466  25.8229790  59.8678513
  21.2922821  26.9601135  16.8642216  21.7632904  27.6835461  17.2777767
  20.4790421  26.8871193  17.3637676  83.0859604  19.8164463  19.7188587
  83.6651688  19.5121670  19.0201683  82.7968521  19.0155392  20.1561184
  53.5392227  18.3919430  20.3323746  52.8794327  17.8973503  20.8184681
  54.3753052  18.0372314  20.6346626  25.9615250   8.4014235  79.9843674
  25.0192947   8.4442778  79.8212814  26.2906170   9.2586651  79.7140656
   3.5621424  67.9821167   0.8974432   2.9094415  68.6156387   0.5993398
   3.0519962  67.3004761   1.3348788   4.2042127  20.7790298  36.1274872
   4.2665582  21.7183399  36.3008118   3.5916409  20.4538784  36.7872353
  78.8694916  53.7891312  58.0449524  79.3841629  54.4470139  58.5124283
  79.5220261  53.2252884  57.6296082  68.0973892  53.6489716  68.4078903
  67.5837784  53.7397270  69.2105103  68.2250443  54.5470810  68.1023865
  41.0673180  52.1038666  23.6049767  40.9671097  51.6373711  22.7751751
  40.8805046  53.0177307  23.3900661  81.1067123   7.4810271  57.1163712
  81.0137711   7.3560719  56.1719246  82.0236969   7.7280231  57.2362022
  69.1454544  51.0713959  84.8687210  70.0267944  50.7377777  84.7008743
  69.0915146  51.8757439  84.3526382  81.7821121  40.5343742  59.5493050
  82.4998550  40.8284874  60.1101799  82.0912933  39.7079659  59.1782417
  58.7567139   9.3442993  24.0944748  58.1883125   9.9279871  23.5920200
  59.6357651   9.5175772  23.7576180  77.0638657  70.6516953  69.8993225
  76.5990601  70.1290054  70.5527573  77.2083588  71.4959717  70.3265991
   1.7863389   2.1134181  19.3989086   1.6011461   1.1754420  19.3526897
   2.7114658   2.1867383  19.1643963  67.0085068  15.1537876  21.2423954
  67.8136292  14.8574162  20.8179302  66.7157974  14.3995476  21.7539387
  71.1930542   1.4100931  83.7495346  70.4344025   0.8267351  83.7690201
  71.9082718   0.8849569  84.1085968  72.4181137  20.3899918  28.9049358
  72.2714996  20.4213905  27.9595528  73.2222900  19.8807201  29.0058079
  39.8330002  67.3106766   7.8730168  39.9719963  67.4437637   6.9353600
  40.0896912  68.1413269   8.2734699  71.9542313  14.4489422  54.0905914
  71.6450577  14.5577030  54.9899330  71.4039612  13.7533407  53.7306252
   9.0468531  30.3148232  15.7765293   8.6965857  29.9382362  14.9692335
   9.9075108  30.6530380  15.5293245  58.0653191  34.9332085  69.9865875
  57.8212967  34.5568504  70.8321838  58.1618042  35.8695984  70.1600723
  27.0937252  52.0690041  37.2781944  26.1369171  52.0434380  37.2684021
  27.3577385  51.1490936  37.2954369  39.7463074  53.8814926  66.8178482
  39.1216011  53.1667175  66.9406204  39.2746429  54.6636505  67.1041946
  19.3199558  14.3466415  55.0417137  19.2012272  14.7128420  55.9180870
  20.2558270  14.4442921  54.8660965  70.5800247  38.4584274  73.6553421
  69.9611816  39.0170670  73.1850281  71.2606049  38.2603836  73.0120544
   3.9858475  29.2538548  71.5952606   4.1682739  29.0633945  72.5154114
   3.3078830  29.9291096  71.6202850  47.4954910  24.4367237  24.6000538
  48.0256767  25.2137146  24.4228020  47.1282120  24.5908356  25.4704494
  52.8157883  32.9038467   1.2802788  53.3693542  32.6138611   2.0053360
  53.1823006  33.7497063   1.0225577  30.9894047   5.8881636  32.9412308
  30.3996506   6.1603694  33.6443138  31.2261314   4.9874640  33.1624374
  55.6121216  56.2158165  50.8500290  56.4463272  56.3247681  51.3066101
  55.0439148  55.7852859  51.4887886  73.9052124  52.5575409  23.7764225
  73.0303650  52.3919067  24.1277637  74.3444824  51.7080688  23.8172207
  37.8272552  27.7643261  88.0844193  37.1481018  28.2280159  87.5945511
  37.3971634  27.4986820  88.8972473  36.4522018  57.9285927  38.5710297
  36.4022484  58.8724709  38.7221260  37.2213974  57.8158073  38.0125923
  35.7420921  52.1646461  54.8965073  36.4346466  52.6310654  54.4284706
  35.9056091  52.3568497  55.8198433  66.9972000  47.7783051  59.0936127
  67.8804092  47.9600258  59.4147720  67.0609131  46.9100037  58.6958351
  62.5980873  38.7924004  28.4399204  62.0692177  39.3180237  27.8397160
  63.4483414  38.7171097  28.0067577  14.2367887  39.5979195  38.9519501
  13.4870110  39.9736786  38.4905739  14.4292040  38.7891617  38.4774818
   5.1925097  19.7695122  54.2176056   5.4656782  19.1051922  53.5849190
   5.1032810  20.5701981  53.7007179  15.3243742  58.2566719  49.2875710
  15.6277924  57.8728333  50.1102715  14.3758783  58.3304558  49.3931389
  66.0766525  51.3627129  76.0279160  66.0154495  51.6716385  75.1240082
  65.7226257  50.4737740  76.0017090  60.7155952  41.9424057  81.3495178
  60.0910263  41.5369949  80.7480316  60.8151817  41.3051529  82.0567856
  60.4324341   7.4444976  21.9643326  60.7316360   7.9089608  21.1826782
  61.2345314   7.2502618  22.4492474  16.4201660  37.0695076   8.9469967
  15.9257612  37.8875999   8.8967943  16.4720860  36.7650490   8.0409937
  20.9324265   6.4791970  20.2998581  20.9783821   5.8709273  21.0375080
  20.5149555   7.2615633  20.6602097  73.6367340  55.0463715  50.6451912
  74.3328323  54.9280739  49.9989052  73.7455826  55.9463654  50.9524269
  35.8025475  21.7723789  13.8816967  36.5011368  21.5436344  14.4947872
  34.9942322  21.6034184  14.3657532  70.8174973  63.7238235  81.7918396
  71.3078461  64.5330429  81.6470947  69.9198227  63.9392014  81.5388031
  19.3586750  18.0903854  79.9420395  18.6272125  17.5218182  79.7013626
  19.5900841  18.5399494  79.1292801  51.8593178   1.5795293  47.8024139
  52.4539604   2.1000276  47.2623062  51.2968979   1.1283308  47.1728630
  21.7670326  63.4123955  65.2891693  22.6215324  63.4093781  64.8578339
  21.4141693  62.5373726  65.1277695  31.3465748  17.8403130  23.9456654
  31.0782108  17.3279495  24.7083549  31.6615047  17.1893215  23.3185596
  60.7543297  58.3100281  16.7989578  61.0376167  58.0048866  17.6608562
  61.5435562  58.6819801  16.4052467  27.5011425   6.7845201   8.8832493
  28.2613029   6.9629812   9.4369106  27.6160088   5.8761115   8.6042671
   9.3911428  51.6672363  85.2758331   9.3051815  51.7744904  86.2231140
   9.3058281  50.7246399  85.1327972  53.0216331  64.2867355   5.9783988
  53.6985512  64.0325928   6.6056380  52.2746468  64.5389099   6.5212150
  37.0079041  12.8130388  52.4900398  37.4304123  13.2226925  51.7351189
  37.6759377  12.8274450  53.1754265   7.5709085  38.4533005  39.6272507
   6.8729382  37.7989540  39.6572990   8.1883688  38.1152573  38.9786377
  81.2764511  69.6312256  72.2093658  80.7269440  70.3128738  71.8225403
  80.7691498  68.8263321  72.1043396  61.5510750  23.5412426  49.9494019
  61.9098434  22.8881950  49.3485298  61.7564240  23.2031307  50.8210335
  59.5587692  28.7764492  12.1495380  59.6397820  28.8148766  13.1025286
  60.4472122  28.9283485  11.8273182  37.6622505   2.0869596  55.2353401
  37.3291550   2.9222391  55.5633469  37.4958000   1.4672076  55.9455719
  77.3556595  46.0104599  56.2910805  77.6671600  46.0322342  57.1959152
  77.9690857  46.5685616  55.8130989  71.6669235   7.0799494   9.1160870
  72.2676926   7.4733710   9.7489605  70.9876175   7.7418857   8.9871922
  80.5638733  53.8497467  12.9193668  80.8797913  54.7388992  12.7586565
  79.8763351  53.7181892  12.2665186  75.8438873  64.8423080  49.3628235
  76.2995987  65.6597977  49.1621590  76.4804993  64.1570511  49.1594086
  67.4738922  23.5867577  31.1797123  66.8487625  22.8618908  31.1838608
  67.0740356  24.2446175  30.6108818  31.3392601  10.9474087  37.3743935
  32.2291260  10.6113167  37.2675591  31.4501839  11.8935690  37.4677124
  30.7663708  60.6147690  53.6758003  29.8655434  60.5193977  53.3665352
  30.7199078  60.4213448  54.6120987  60.4914589  18.3481178  19.7604370
  60.0882187  19.0597897  19.2632942  61.2572632  18.0985832  19.2432251
  65.9010010   1.1398662  17.9492188  66.2264252   1.6489966  17.2068424
  65.5687180   0.3318235  17.5582142  67.2445602  55.7420387  29.2679958
  66.8674774  56.0537148  28.4452572  67.4682846  56.5402870  29.7465134
  82.9242020   7.6875515  66.6338501  83.4670792   8.4757318  66.6507339
  82.2478180   7.8764858  65.9834366  17.3182831  10.9365473  64.7443542
  17.5284748  10.7558355  63.8281670  16.9560490  11.8225279  64.7367249
  58.2638016   4.0547781  66.3785400  57.4371109   4.3633499  66.0075989
  58.0048370   3.4132972  67.0401077  64.0130844   3.1454356  85.8133392
  63.8689651   2.2017312  85.8832245  63.1519089   3.5039971  85.5987625
  26.4429455  39.3248367  80.2305832  26.4539948  40.1550941  80.7068024
  26.6593285  39.5629120  79.3290710  67.3868103  28.2060280   4.7861099
  68.3397980  28.1531639   4.8585010  67.0618820  27.6129036   5.4635005
   9.0096445  49.1656265  75.8058548   9.8965330  49.4492455  76.0277100
   8.9074821  48.3260841  76.2541428  52.2754784   2.7424433  28.5147209
  53.0315361   3.1438646  28.9430504  51.5281334   3.2610877  28.8125744
  38.6345901  32.8239632  12.7957010  39.0792351  32.6108627  11.9752684
  39.3343010  32.8465729  13.4484854  49.4855003  14.2267179  17.5692959
  49.8269730  13.7582598  16.8076057  48.8507118  14.8441782  17.2059498
   7.7092152  29.3526917  13.4749022   8.4540825  28.7533569  13.4279842
   7.1377449  29.0812111  12.7566042   5.9566159  66.1126404  53.1865158
   5.6402254  66.6508408  53.9121056   6.5750070  65.5044174  53.5913429
  37.3401680  41.7994804   7.0113935  37.9250755  42.5118675   7.2695060
  37.9263725  41.1063423   6.7078233  55.8784599   6.1311507  42.7094536
  55.7509651   5.2073493  42.4936562  55.0461655   6.5468097  42.4841843
  54.6901398  70.1528702  44.6895523  53.8103828  69.7880325  44.7852478
  55.1768456  69.4820175  44.2106857  45.4141083  32.8849487  88.9890823
  45.2489014  33.0499153  88.0607910  46.2115860  32.3556633  89.0000687
  21.0593166  28.2987518   5.8312364  21.5872822  28.2434998   6.6277480
  21.5396843  27.7765312   5.1887693  50.1909714  21.0068531  27.9242878
  50.6362038  21.5699329  28.5574875  49.2601242  21.1186695  28.1173077
  40.5682678  36.4560661   9.1873350  40.6877594  35.7149887   9.7812691
  41.4316826  36.8665352   9.1397810  25.0231304  58.0453911  71.2228470
  25.2006054  58.8219376  71.7536087  24.1574879  58.2050247  70.8467941
  22.3747158   2.7263279  33.8857765  21.5305119   2.2774177  33.8407173
  22.2140102   3.4826105  34.4500809  67.0305862  35.9565659  73.6747742
  67.5514450  36.3649063  72.9832535  66.5541077  35.2539825  73.2325439
  56.4215508  38.4675407  23.8484135  55.5175552  38.4863014  23.5342884
  56.8457718  37.7936974  23.3171825  16.6454105  28.2328224  84.3671951
  15.9326849  28.6442356  83.8783264  16.2316532  27.9100285  85.1677246
  44.2987785  31.7435932  13.1246729  43.3832703  31.5296955  12.9448833
  44.7982635  31.1005974  12.6213827  18.2315369  55.7324409  79.8990479
  17.9837761  56.6124458  80.1826706  17.8278904  55.1506844  80.5431366
  24.5615940  41.2516937  76.9446106  25.3524628  41.1083336  77.4644241
  24.5839844  42.1834335  76.7264709  67.1469193  42.2029839   9.5337610
  66.4435654  42.3415146  10.1680565  67.9513016  42.2904434  10.0451803
  85.9472275  14.8396702  76.9811401  86.6954498  15.3927355  77.2058945
  85.3308029  15.4333248  76.5523911  37.6706009  31.0266514  33.2733421
  37.7618408  31.9098568  33.6309090  38.2165070  31.0289993  32.4870758
  57.2890129  40.3356934  17.4784412  57.2597923  39.6041603  16.8618069
  56.4624176  40.2781487  17.9576683  25.5684509  16.4642849  31.8286610
  24.9378185  15.7935028  31.5667706  25.6660423  17.0170326  31.0533047
  25.7414246  20.5993862  26.2329845  26.4061050  21.2778912  26.1144066
  26.0395489  19.8736229  25.6846943   6.9181128  29.7349892  22.4234276
   6.7387180  30.4549065  23.0282154   6.9963284  30.1554298  21.5670738
  43.4455833  32.9656944  20.8388062  44.3428116  32.6357307  20.8871422
  43.1264687  32.9248314  21.7403202  29.1552067  59.9937859  88.4988327
  28.3351116  59.6884689  88.1109467  28.9547806  60.8721046  88.8222885
  49.3205032  19.2255402  12.7384949  50.0097847  19.8098145  12.4226704
  48.7853546  19.7743587  13.3117714  76.5985184  11.4549370  24.9969292
  77.3137360  11.7713242  24.4450226  76.1279602  10.8306227  24.4446297
  79.2508163  18.2573357   4.7497287  79.5203476  18.7807655   3.9950073
  78.5015259  17.7515488   4.4351220  53.5151634  68.8732910  78.8027115
  53.2955666  67.9459534  78.7129517  53.8614845  69.1214676  77.9455719
   9.5888939  10.3158712   5.1034641   9.3961630  10.7041197   5.9568982
  10.4765053   9.9689636   5.1930976  50.9606857  71.5567322  66.3533554
  50.8666954  71.7873001  65.4291077  51.7530403  71.0207596  66.3871231
  16.8830700  65.8680954  20.1215496  16.3039684  65.1913452  20.4720955
  16.9538670  66.5115280  20.8266869  81.7913132  48.3600731  13.2322330
  82.2581711  47.6005096  13.5805655  82.3313599  49.1092453  13.4838886
  48.0771294  23.6303501   6.2769580  47.1426506  23.4256363   6.3097138
  48.4044762  23.3948822   7.1450768  27.2187099  41.6303406  35.4600525
  28.0789356  41.7092514  35.0477219  26.7420120  41.0143661  34.9036636
  13.4147863  66.7340698  49.5208244  13.1999588  66.1426620  50.2421532
  14.0981607  66.2763367  49.0312233  47.3177223  55.3266525  45.5495567
  47.6799583  55.2771988  44.6649246  48.0655022  55.5538597  46.1022148
  11.6015987  56.5805130  33.1598015  12.0679045  57.3764420  33.4153214
  11.0056286  56.4076576  33.8886185  16.2223053  23.6593609   8.2384529
  15.8260183  22.7907543   8.1698122  17.0306873  23.5946751   7.7299590
  85.9320831  63.3266411  29.6116848  86.0625000  62.4114265  29.3634720
  86.1598129  63.3575859  30.5408859   7.9277577  31.9330692  48.7997932
   7.2609882  31.6364002  48.1804085   7.4325328  32.2075768  49.5715637
  81.8949814  15.4204283  28.5009193  81.4855728  15.5975361  29.3478260
  81.2258835  14.9480324  28.0055542  14.4427214  60.5517464  66.9826660
  15.2478466  60.0341530  66.9927673  14.6092997  61.2412605  66.3399734
  49.6495552  24.0667133  75.7957840  49.0228844  23.3797035  76.0227890
  49.6681595  24.0672321  74.8387604  16.5451374  17.3355789  78.8630142
  15.8122797  16.7326698  78.9881210  16.9940338  17.0084286  78.0834656
  47.6276131  19.7196960  38.1691513  46.8934326  19.4267044  37.6293678
  47.2654915  20.4274406  38.7022552  46.6599693   3.6261432  29.6172943
  45.7607613   3.8448555  29.3727131  46.9218254   2.9525855  28.9896126
   6.4029002  37.7260933  69.6049728   6.9784837  38.0518265  68.9129944
   6.4985743  38.3611031  70.3147888  73.6402893  43.2492523  57.5311813
  74.3137131  42.8140488  57.0083733  72.8275375  43.0980034  57.0486984
  59.7895775  35.2088318  22.7514305  59.9538269  35.0196266  23.6752567
  58.9468193  35.6626625  22.7460480  59.9332657  43.9652290  67.6772156
  60.8012199  43.9764709  67.2737808  59.8492966  43.0835419  68.0402679
  52.8429375  10.2142582  37.2839699  53.4084625  10.8663607  37.6977043
  52.0867157  10.7138357  36.9761009  85.7732468  21.4216232  21.2767773
  86.5776291  21.4267273  21.7956066  85.8998260  20.7132015  20.6456280
  83.7098618  15.1772251  41.3740807  83.0662231  15.1099138  42.0793648
  83.7355499  14.3013372  40.9888649  18.3959866  54.9528732  41.7982712
  17.5717869  54.4856491  41.9347458  18.2494240  55.4709244  41.0068321
  25.3989964  66.6756134  63.8824463  25.0452023  65.7904205  63.9689560
  25.0930405  66.9731598  63.0256538   8.8102121  53.8970070  44.7611542
   8.2150774  54.3164711  44.1397896   9.6380177  53.8217926  44.2864838
  68.1475296  41.6256905  21.5804253  67.3234711  42.1061821  21.6597881
  67.8835983  40.7090416  21.5008888  85.2581482  13.5177717   9.7171745
  85.3586273  13.5263968   8.7653017  85.9698410  14.0715570  10.0381708
  15.1876822  32.8034515  30.6609840  14.8781605  32.8058243  29.7552128
  16.1227512  32.6100655  30.5940552  47.1211128  71.2127075  85.6856384
  47.9175835  71.6261063  85.3525314  47.4354973  70.4882050  86.2264633
   1.1857668   8.8282986  18.5505199   2.1142011   8.9090347  18.7689762
   1.1743330   8.6777163  17.6053066  82.4053116  38.5169754  19.1628113
  82.7754517  39.2538757  18.6768055  82.1965561  37.8677330  18.4911404
  52.9314804   4.8806086  11.2272692  53.6673851   4.5925479  11.7673588
  52.2319374   5.0647154  11.8541470  24.5477428  24.0171375  32.5103798
  25.3831272  24.3984833  32.7804527  24.7702751  23.1313267  32.2239342
  79.0243149  16.5475864  68.4259720  78.3866653  17.0184536  67.8893967
  78.8782272  16.8744621  69.3136902  84.1075439  26.7100201  14.8611002
  84.2953949  27.3339214  15.5623074  84.6078186  27.0338135  14.1120272
  32.0498085  52.4731483  10.6039429  32.6100426  51.6970253  10.6054506
  31.3543777  52.2653427   9.9799051  13.5890722  19.5019569  79.2338867
  13.4877710  20.4047546  79.5354233  13.7782421  19.0036774  80.0289764
  33.2015953  10.4737053  32.9158821  32.4225769  10.0015507  33.2098846
  32.8958969  11.0065603  32.1818237  27.2076969  59.4892845   8.8970366
  27.8228493  59.0814552   9.5065393  26.7176380  60.1129875   9.4328251
  20.6043358  67.0855484  71.8263016  20.8719959  67.0092545  72.7421417
  19.6583710  67.2267838  71.8642044  12.8984013  33.3033943  84.3586578
  12.2256956  33.4821167  85.0157394  12.4425335  32.8089409  83.6775360
  68.1483994   9.5799694  86.7340164  68.6408005   9.0882978  87.3913040
  68.6378784   9.4505072  85.9216843  81.9949646  61.0275726  18.6966610
  81.1562500  60.5664444  18.6845570  81.8864670  61.7386627  18.0651455
  61.1555214  49.2149048  46.7473602  62.0314064  49.1530914  46.3662643
  61.2963982  49.6069832  47.6091347  11.8691034  35.0820312  29.1363983
  12.0167208  34.9545975  28.1992741  12.6690111  35.5042458  29.4496307
  66.7667084  57.7615051  57.8768272  66.4254456  58.1094933  57.0530128
  67.6972046  57.9857025  57.8643723  17.5658894   9.7539892  34.1600838
  18.0980015   9.2855663  33.5169144  17.4906731   9.1469975  34.8963814
   8.8108959  23.0065804  17.5244675   8.9242868  23.9260597  17.2837734
   8.5917587  23.0281162  18.4559956  20.0360622  54.6887016  69.9237289
  20.1949615  55.6133995  69.7342072  19.2565136  54.4700737  69.4131012
  29.9348278  32.9611702  31.2637119  30.7945900  32.6592789  31.5568027
  29.6928101  33.6414261  31.8921318  56.4942055  28.5106926  12.9516315
  55.8240585  27.9267235  12.5965109  57.3138580  28.1930218  12.5728350
  38.1484909  67.7075882  10.9722013  37.4466400  68.0602341  10.4251385
  38.6379051  67.1271820  10.3892469  24.1343651   8.0070467  25.3845406
  23.2084885   8.1570311  25.5755558  24.4943657   7.6608624  26.2011108
  11.1843157  32.0232315  14.4300880  10.6844063  32.6846542  13.9517126
  11.5536060  32.4954453  15.1763258   6.9026103  61.5007477  22.6987991
   7.5014534  62.2416306  22.7921333   6.1458697  61.7352905  23.2359791
  11.8770704  16.6457367  85.1914444  12.1956949  16.3046169  84.3557739
  10.9319935  16.4959202  85.1666031   5.2095780  57.3192635  12.9621964
   5.5090508  58.1519470  13.3271418   5.9330430  56.7134018  13.1226959
  52.8085670  70.5996628  38.8539276  52.6326485  69.7975159  38.3621483
  51.9438248  70.9115372  39.1207390   9.5688324  71.3324356   5.4950337
  10.5084038  71.1976852   5.3714290   9.4463778  71.3094177   6.4440894
   7.1218619   1.6963816   1.3174626   7.6117301   2.3282075   1.8438249
   7.3497443   1.9105179   0.4127819  39.6592369  10.2918739  55.1592484
  39.6611824   9.6469622  55.8665810  39.0482521   9.9371662  54.5134087
   0.1316326  23.7136307  70.6627579   0.3454146  22.8496399  71.0149689
   0.4094865  24.3255806  71.3443298   7.6699324  45.1540413  79.5289307
   6.8122902  45.5649261  79.6378021   7.4917550  44.3560333  79.0312653
  58.0503044  38.1485405  64.2813568  58.1452713  37.2036438  64.4012985
  57.1286850  38.3227882  64.4723663  69.5902328  50.9105492  58.1329613
  68.7620087  51.1526566  58.5472870  70.1139221  50.5396576  58.8431854
  86.1056519  69.1856003  18.8647499  86.7817459  68.5080032  18.8648129
  85.3283691  68.7483521  18.5170879  79.6185913   1.2720519  19.9851742
  79.7593079   2.2164061  19.9171619  78.7712173   1.1252775  19.5648708
  78.6478882  37.9117737  78.0520859  78.4550095  37.7853432  78.9810867
  78.6838074  37.0255508  77.6921539  50.9305382  51.4880905  63.4449234
  51.1819611  52.0093956  64.2073288  51.0677795  50.5812912  63.7189941
   7.6826444  38.0429459  15.4188099   7.9661145  37.8540573  16.3133488
   7.3882155  38.9532661  15.4480410   7.9750428  47.4776840  63.9939766
   8.3812895  46.7956352  64.5287704   8.7119036  47.9354477  63.5893517
  76.8826981  20.0566978  86.2388229  75.9258728  20.0308952  86.2464371
  77.1002426  20.9516449  86.4995422  29.7524261  31.1822624  88.3422699
  28.8179913  31.0125046  88.2229233  29.7854996  31.9424057  88.9230652
  85.2217026  23.4996090   6.5832939  84.7180634  24.0251656   7.2048793
  85.3244781  22.6514320   7.0148759  17.3123035  44.9509468  30.2522125
  16.7567692  45.4594803  30.8429813  17.0625496  45.2449570  29.3761940
  61.6110001  53.7757072  64.0150909  60.8354721  54.0456963  64.5069122
  61.4373131  54.0614624  63.1182022  30.9175491  60.4966888  10.6205540
  30.3722076  59.7286568  10.4503698  31.6332932  60.1666260  11.1636944
  10.9455032  58.2969093  46.6302032  10.3650141  57.7632103  46.0875893
  10.3554802  58.8673286  47.1228752  35.8498802  12.6102524   9.2000914
  35.5838585  12.9814301   8.3588467  36.2519836  13.3419170   9.6682911
   1.4482943   9.0175314  61.9381485   0.5456113   8.9237833  61.6338387
   1.6057363   8.2345152  62.4657211  10.6463118  12.6352434  55.1586876
  11.1213093  11.8550148  54.8725891  10.8755236  12.7296047  56.0832367
  61.2815895  63.2667427  73.4076920  62.2275314  63.2892036  73.5523453
  60.9113426  63.0869522  74.2718811  52.3199539  54.6735992  13.3686390
  52.5729065  55.0138664  14.2268152  52.0471268  53.7721252  13.5393419
  50.0828018   0.9277144  45.7052612  49.1354103   0.8711978  45.8297081
  50.1884117   1.4158278  44.8886681   9.0292311  39.4671440  65.0965500
   9.3800316  40.2245789  65.5650253   9.7910080  38.9096146  64.9381638
  72.5183868  19.4093037  61.3518677  72.8355026  20.2145824  61.7607613
  72.5474854  19.5901909  60.4123650  49.8555603  62.5691566  60.4761696
  49.2164307  62.1337852  59.9120789  49.3658981  62.7869835  61.2692757
  74.5979538  55.3023758  15.6192904  74.5268478  56.0945206  16.1519070
  75.1658249  54.7226334  16.1268921   0.3943170  66.1809464  83.1233826
   0.2510543  67.1273117  83.1336899   1.3456173  66.0831528  83.0822067
  24.8099346  13.8163996  78.2889557  24.4332523  14.1167908  77.4618454
  24.1527481  14.0419273  78.9473419   5.1216874  70.2901917  58.8255844
   4.7420926  70.9407730  59.4162483   4.5212789  69.5461044  58.8711510
  58.0859299  62.1920815  73.7821198  57.2177238  62.4018860  73.4379730
  58.5621147  61.8379402  73.0310745  21.0187588  62.8638763  71.3614273
  21.2886200  63.2572632  72.1912766  20.9586201  63.6019096  70.7548599
  12.5872612  33.5180168   8.4939051  12.3403931  33.9717827   9.2997503
  12.4501820  32.5910683   8.6893702  65.3269577  28.5756779   0.7272272
  65.4915695  27.6800423   0.4323150  65.9650879  28.7187862   1.4261841
  56.8623466  54.8337326   4.8303113  57.4217567  54.3974228   5.4729042
  57.2252388  54.5762711   3.9828110  51.0227737  34.0323067  87.0982208
  51.5520668  33.2353630  87.1292496  50.4187012  33.8904114  86.3693924
   8.5903769  43.3976173  11.7876568   9.5289564  43.5521965  11.6808586
   8.3114538  43.0289726  10.9494829  81.3498154   8.6142321  81.4845734
  81.5304642   7.9723496  82.1712952  81.7107697   9.4340258  81.8220444
  16.6094284  55.7009468  18.8067226  16.0841656  55.9920921  19.5520859
  16.0629845  55.0482216  18.3690205  67.5414276   7.4464583   1.0425676
  67.5504303   6.4897623   1.0722923  68.3445358   7.6791801   0.5766426
  26.1847591  57.2911377  76.6298370  26.7900162  57.8021889  76.0925064
  26.0645733  56.4747849  76.1446991  71.0756531  40.7406120  13.8877449
  70.3711243  40.1055031  13.7592468  71.8037491  40.3989105  13.3687630
  74.6265564  55.2671356  53.7474136  74.9129639  54.3547096  53.7884026
  73.6869431  55.2315063  53.9265518  76.9598465  45.8422127  49.1406059
  77.8807983  45.9233322  49.3885918  76.8537445  44.9187279  48.9122429
   1.7433580  67.5818558  80.9057541   2.6394987  67.8797760  80.7495270
   1.1935824  68.2885971  80.5673828  55.6493950  18.2587070  70.8064423
  54.7008591  18.3871689  70.8095016  55.7657814  17.3287792  71.0011673
  79.6039429  21.2033501  65.5116196  80.5570221  21.2918205  65.5054779
  79.3319855  21.4809513  64.6368561   8.9891043  51.9949608  72.2733536
   9.2152004  52.2588196  71.3814545   9.5104742  51.2075691  72.4296265
  81.2726288   9.5328503  77.6993179  81.0151825   9.2834263  78.5868683
  82.2145615   9.6922970  77.7590408  22.0775681  66.0945587  62.9914894
  22.5739822  65.7096481  62.2692337  22.7456875  66.4259720  63.5914993
  20.8788681  66.8145599  55.1604385  21.8154755  66.6414871  55.2555389
  20.6798878  67.4435120  55.8540154  80.3558578  13.4422932  16.8548126
  81.0951309  13.0756826  16.3697281  79.6551285  13.5124207  16.2065144
  21.0573082   2.0431795  86.5654907  20.6099701   2.8891830  86.5455246
  21.3242016   1.9348484  87.4783173  84.0200348  23.7379494  30.4820843
  84.1675110  24.2663631  31.2664719  84.2054520  24.3319759  29.7547703
  15.3517885  18.0452290  18.2398567  14.7727509  17.6893559  18.9138737
  15.2685680  18.9945850  18.3294697  82.0259781  62.5509300  40.1993752
  82.7998428  62.1842308  40.6270409  81.9561920  62.0682755  39.3757210
  51.6947021  33.6563301  24.1479187  51.0834427  33.1302299  23.6323471
  51.3608475  33.6024437  25.0433903  80.0139465  49.0206947  36.6265793
  79.1842728  48.5873413  36.8267822  79.7697220  49.9238243  36.4242325
  67.3014908  21.0537720  79.4996567  67.5014114  20.7519855  80.3857651
  67.8896255  21.7961521  79.3610764  17.7447090  22.3286591  34.4504471
  17.5336437  22.6580372  35.3240547  18.1056118  21.4555721  34.6043930
   6.0682502  49.0525589  78.8237991   6.4509997  49.5063744  79.5746613
   6.4773903  49.4628792  78.0619125  75.4855728  46.3426018  42.0193596
  74.7866058  46.8277435  41.5808258  75.0275269  45.7029343  42.5645676
  24.9485359  15.9827003  62.1245766  25.7980652  15.7737741  62.5130157
  25.1356945  16.6868324  61.5037689  60.3982391  18.4518890  37.5067635
  60.2955322  17.5657616  37.8538361  60.1227341  19.0233002  38.2235718
  54.6286087  11.7073078  85.6761932  54.5052452  12.0991917  86.5407410
  54.2818832  10.8194427  85.7639923  38.0761642  19.4833164   3.5347953
  38.9048119  19.3415375   3.0771105  37.5792961  20.0623093   2.9567640
  34.6372337  26.1776638  31.9174347  35.4599113  25.7638512  31.6562901
  33.9588776  25.6453114  31.5019073  18.6258698  62.2856598  69.8746338
  18.7019939  62.5363312  70.7952881  18.4275913  63.1038971  69.4192200
  41.2475281  61.6281853  55.9393768  40.7225533  62.3679733  55.6338539
  41.9327316  62.0262604  56.4762840  78.0388336   5.2058425  33.7395935
  77.2848358   4.9093127  34.2492905  78.5106277   4.4023833  33.5202904
  31.5923233  62.7899895  38.2374611  32.2912712  62.2732124  37.8366547
  31.7802200  63.6911774  37.9751854  50.2958260  69.0836639  34.0244293
  49.6401405  68.4174347  33.8184090  50.5649109  69.4264908  33.1721992
  67.1776505  42.7516861  50.6923256  67.0523300  42.2123947  49.9114990
  66.7704544  42.2494698  51.3981552  44.3094902  37.9291153  31.4046326
  44.6610336  37.6175957  30.5706043  43.3611221  37.8355751  31.3147182
  84.9181747   3.7919524  86.5369186  85.8234863   3.9680722  86.7931137
  84.4363708   4.5736370  86.8072205  33.7099037  36.7091789  17.5352345
  32.9621048  36.7769356  18.1288967  34.1350288  37.5652390  17.5868607
  75.1003876  22.9921341  37.5524864  75.8900146  23.1034813  37.0230293
  74.4246597  23.4783039  37.0799789  37.3790016  66.3090210  80.9991760
  37.3623352  65.8173828  81.8202972  37.5265350  65.6452103  80.3255157
  29.0240765   6.1499305  34.7743530  29.6115265   6.3065677  35.5136757
  28.1613064   6.0379806  35.1735115  11.2135029  44.2877426  11.9373493
  10.9138012  45.1883507  12.0611115  12.0995331  44.2782745  12.2994165
   7.2671885   8.8242502  35.9406586   7.8851376   9.3554163  35.4384308
   7.8150682   8.1824341  36.3924675   4.9252505  51.9246101  20.8430672
   4.3179870  51.1889801  20.7636204   5.1482363  51.9516983  21.7735386
  71.9592514  31.9028454  42.8533897  71.9772797  31.5218430  41.9754715
  72.8121109  32.3269997  42.9479752  27.9139538  44.1020203  22.6551132
  28.4467640  44.5661545  22.0094147  28.3957691  44.1978569  23.4766369
  12.7472248  25.4219933  45.0097389  13.3266287  26.0438194  44.5694504
  12.0419035  25.9624729  45.3656006  63.3863068  37.3654938  21.6223640
  64.1037674  37.8791847  21.2514114  62.7031746  37.3894348  20.9522972
  26.4979076  37.3357201  78.1953659  26.6473083  37.1281929  79.1177826
  27.0486603  38.1008835  78.0297699  73.5287781  18.5760059  23.2977467
  74.0322266  17.7653370  23.3724823  72.7974854  18.3516064  22.7223454
  14.6467457  27.8844337  24.3104687  14.3161411  28.2365437  23.4840622
  15.1264877  28.6121731  24.7060375  63.7117462  55.4187851  35.4606133
  63.9600182  55.0082893  34.6323128  62.9696732  54.9004364  35.7718582
  78.1371460  49.4090576  81.4407272  78.6036453  49.9068413  82.1121597
  78.2132645  49.9434204  80.6502228  20.5655823   4.9820590  60.5820656
  21.3285580   5.3707614  61.0098610  20.2958984   5.6337934  59.9349594
  73.6307907  60.1371307  67.3381958  74.2929993  59.4625549  67.4887161
  73.9247818  60.5891113  66.5472946  68.2956696  46.0498581  75.5880737
  67.7322769  45.3199768  75.3309708  67.8673019  46.4232979  76.3583145
  73.6813583  59.6200867  83.9544983  74.5342712  59.7084846  83.5291061
  73.5871658  60.4205093  84.4709167  79.8379059   4.5801349  48.7308769
  80.3684616   3.8857181  48.3403320  79.7882156   5.2537594  48.0526505
  64.4588547  69.4407196   2.1667566  64.1239929  68.8169327   1.5225564
  65.3744049  69.5715637   1.9200221  57.3240623  39.0824776  78.7305374
  58.2028923  39.3167763  79.0288544  56.7862167  39.1140175  79.5217133
  67.8532181   5.0118508  11.6883574  67.1756134   5.2580247  12.3180285
  68.5750885   4.6885805  12.2274628  54.4024086  16.9345703  89.1696091
  53.5354233  17.2923622  88.9784241  54.9946976  17.4239483  88.5987015
  12.1630173  24.4534969  16.3887806  12.0427170  24.9446487  17.2015095
  11.6088285  24.9047127  15.7519817  17.6824780  48.1226234  71.2363358
  17.7329865  47.8247566  70.3280640  16.8002968  47.8813820  71.5188065
   3.0515647  31.6443558  54.9539719   2.4647346  31.3008480  55.6276703
   2.7376869  31.2510357  54.1397171  67.1152802  49.1642303  84.5080185
  67.7587967  49.8660278  84.4100113  66.9081039  48.9022522  83.6109848
   8.5633097   5.3126540  30.8676510   7.8587174   5.8151345  31.2766685
   9.2449236   5.9597683  30.6863308  33.0594521  58.3525047  36.8753777
  33.1496735  59.2672768  37.1423683  33.1252251  57.8571167  37.6917686
  67.8566666  42.9500999  41.9149971  67.7553940  43.6736946  42.5333748
  68.1724396  42.2211342  42.4489670  77.7813873  10.9144068  78.9338226
  77.1666718  10.6856899  78.2366486  78.2389450  10.0962896  79.1276169
  66.8185272  29.7667789  68.1652603  66.2565460  29.1224499  67.7348633
  66.2114182  30.3371601  68.6367645  30.3475304  48.2088547   1.6644716
  29.9458981  47.3436623   1.5847025  30.0618896  48.5274925   2.5206902
  19.8532715  53.1727295  34.7504158  20.1813698  52.2735138  34.7512474
  20.6260834  53.7094994  34.5747070  66.8454666   3.5227914   9.5660696
  66.1474915   4.1465402   9.3660736  67.2625885   3.8742154  10.3526697
  67.2199020  47.0022163  50.7447777  66.6931152  46.2869949  50.3881454
  66.5779419  47.6367836  51.0632706  70.5526886  14.8258228  42.1901093
  70.7480392  15.4835377  42.8575516  69.6099930  14.9051771  42.0443306
   1.9916513  50.5133362  40.0745659   1.2087852  50.7798271  39.5925522
   1.9223636  49.5606270  40.1360054  74.0724945  14.6384716  85.3943024
  74.5050049  14.0765257  84.7513504  73.5836563  14.0327673  85.9514236
  78.3804779  69.2024460  11.8534708  79.2579269  68.9055481  11.6122999
  78.0079346  68.4722137  12.3476391  66.0761795  65.7567749  19.6644268
  66.5093842  64.9537354  19.9537277  65.9034653  65.6138535  18.7338505
  67.5450058   4.6425056  78.1649780  67.3241730   4.5263638  79.0890808
  67.4166183   5.5772419  78.0036850  57.8297005  10.1674185  10.2595692
  57.9012794  10.5600777   9.3895540  56.8965416   9.9803905  10.3618975
  53.3667068  48.6687584   0.6625113  52.7313232  49.3585014   0.8542827
  53.6958694  48.4010353   1.5205367   9.1715975   5.0775223   1.1353494
   9.6694775   4.2892623   0.9185693   9.6006689   5.4242492   1.9175963
  81.1097870  11.3258514   1.8970697  80.2513733  11.7260513   1.7585169
  81.7286530  11.9481449   1.5149829  17.2402668  63.5228615  86.9680176
  16.9638634  63.1628952  86.1252518  17.1142139  64.4674377  86.8779449
  27.6245804  13.2684927  71.2379150  27.4154949  12.5438061  71.8272705
  27.9906769  12.8469257  70.4604263  42.3818741  65.9301758  88.2372513
  41.8762474  65.5363770  88.9482346  42.3348198  66.8717651  88.4028549
  19.1644917  47.8744431  88.5657425  18.7042694  47.5381508  87.7967606
  19.8821430  48.3959846  88.2062988  57.8540878   6.0595288  47.3475838
  58.0154686   6.8008962  46.7640076  58.6493111   5.5301180  47.2877922
   1.3863125  60.3316231  79.8376617   2.2709599  60.4786949  79.5029984
   1.3265905  59.3826599  79.9478073  32.0027275  37.8993568  14.2185574
  31.4319859  37.4066010  13.6289148  31.4765053  38.0302315  15.0073509
  73.7608948  27.1922436  39.8711967  73.9794464  27.9464340  40.4186134
  73.7736130  26.4478760  40.4728546  70.0295486   1.9707243  39.0185585
  69.4760818   2.4914608  38.4365463  69.8320084   1.0629261  38.7880974
   6.6631374  43.7246284  82.9828339   6.3384233  43.1165695  83.6469498
   7.3986320  44.1692123  83.4042892  54.6754570  17.1045609  39.4681091
  54.3186340  17.9593906  39.7093048  55.5707741  17.1145973  39.8065414
  21.0078278  37.2454910  77.9044647  20.5565224  38.0870438  77.8385773
  21.0004387  37.0423355  78.8398285  33.6857758  67.2317429  21.3257179
  32.9825630  67.2715225  20.6775322  33.3913498  67.8043900  22.0339718
  23.3864479  36.7494659  86.3192139  22.6496410  37.0014305  86.8758698
  22.9893227  36.2419586  85.6114273  68.9074631  57.6276360  16.2222252
  68.9419327  58.5803566  16.3080845  68.1647491  57.4663124  15.6403379
  26.4378548   0.6148007  29.4207802  26.9837055   0.8670464  28.6760311
  26.5843048   1.3035047  30.0692177   0.5889456  34.3813553  83.6464920
   1.4432056  34.5506516  83.2492371   0.5501654  33.4289856  83.7343521
  79.3881912  37.5986671  10.8946495  79.8253860  37.0711021  11.5630560
  79.3710480  38.4829102  11.2607861   1.4761136  54.3665581   1.3173945
   0.5495251  54.5816536   1.4241632   1.4964978  53.4106102   1.2728816
  80.6152649  35.2119942  63.3577614  80.2601471  34.3598480  63.6106911
  80.7603302  35.6668320  64.1874084  40.9559402  64.4672546  18.1796799
  41.1737709  63.8911591  18.9124126  41.2006226  65.3419571  18.4817677
  14.6355400  29.0962410  33.6530533  14.1896286  29.7199516  33.0800095
  14.9309082  28.4003716  33.0658951   4.9978166  47.8532486  67.0788422
   4.1911321  48.3236923  67.2890244   5.3002844  48.2496185  66.2617569
  24.7721329  11.2663145  55.1288834  25.4798126  11.9086246  55.0754051
  24.1747589  11.5086470  54.4213181  53.4818878  59.7145042  37.5447731
  53.3673058  59.6107979  38.4894142  53.6515465  58.8282623  37.2253609
  14.7966709  17.5381546  32.3682861  14.7278872  17.8480663  33.2713127
  15.7316990  17.5861397  32.1691589  73.2403030   6.7008576   6.7988429
  72.8303909   6.8641181   7.6482840  72.5360489   6.8317981   6.1639309
  43.4477463  32.4793205   9.6995544  43.4236565  32.7257767   8.7749405
  44.1051598  31.7851009   9.7453337  15.3740540   6.6348085  40.2733040
  14.7094059   6.9966335  40.8594398  15.2319803   7.0871935  39.4418030
  71.9703140  43.4171715  12.8797350  71.8540115  42.5441208  13.2545605
  72.7518692  43.7612991  13.3121347  22.8021488  70.0786591   6.3329163
  22.4705582  70.8679428   5.9047589  22.0162449  69.5842590   6.5656281
  67.5991516  57.8073082  19.7767811  67.4032898  58.7356110  19.6497898
  67.5104141  57.6706543  20.7200108  49.9837990  66.8527908  69.1802597
  50.6726532  67.4957657  69.0120316  49.5082626  66.7889938  68.3519974
  33.2957993  53.7215424  78.2875290  32.9075012  53.3641663  79.0861130
  34.1167908  53.2403488  78.1842957  72.9751129  29.8636341  30.8527164
  72.8287888  28.9207001  30.7772312  72.2484436  30.1763916  31.3915806
  32.1416512  71.0857468  41.8260994  32.6779366  71.3219147  42.5829735
  32.7515907  70.6594391  41.2240448  11.6966324  15.1915979  55.0787926
  11.3423080  14.3375301  54.8312950  12.6393042  15.1110573  54.9334793
   9.5206995  36.6090126  38.2824249   9.6301918  36.5974541  37.3315773
  10.2820139  36.1349754  38.6169662   4.9660382  68.6642914  45.5805779
   4.3638630  67.9446869  45.7697296   4.7723646  68.9069519  44.6751251
  53.0242233  23.7219524   1.6197335  52.1253166  23.8308144   1.3093338
  53.4612007  24.5389729   1.3793976  40.3564835  15.0000086   7.6274581
  40.0915985  14.4091730   6.9224887  41.1882820  15.3691807   7.3307228
  18.8598804   9.7208900  19.5678196  19.3794918  10.2912788  19.0013466
  18.7837048   8.9019861  19.0781002  41.9416428   7.8921776  18.7296619
  42.6128387   7.2540493  18.9715691  42.4342651   8.6520758  18.4196453
  82.9228058  34.2019844  65.4625854  82.8594360  33.5893517  66.1953125
  83.2253647  33.6671295  64.7286758  56.7903595  12.8594694  20.7804718
  57.5642357  13.3500366  21.0574093  56.0525856  13.4188776  21.0233345
  68.6511536  69.4692993  59.8870811  69.5566330  69.6381683  60.1475067
  68.2713318  70.3391571  59.7633095  53.4555473  21.5322590  77.9590759
  52.6027451  21.7393913  78.3412552  53.8103867  22.3800392  77.6915131
  62.4259148  37.3273430  63.8125343  61.7301102  37.6203499  63.2241211
  61.9643898  36.9954109  64.5826263  51.7734070  13.3191919  18.5333385
  51.5703659  12.3866987  18.6072350  50.9308205  13.7338295  18.3479919
  85.9282608   7.2733955  86.7422409  85.1121368   6.7878332  86.8622284
  85.6578751   8.1025085  86.3476562  17.7848740  49.4216881  46.2754097
  18.2320042  50.1235352  46.7483978  18.1470242  48.6159363  46.6439743
  12.5698824  33.3232574  16.3306293  13.0263510  32.9856949  17.1012897
  12.4905672  34.2634315  16.4919338  10.2391882   7.7312951  88.8377533
   9.7681131   7.9829860  89.6320877   9.5525398   7.4652700  88.2262115
  18.5590839  15.6939478  46.4285355  17.9659405  16.4129181  46.2106056
  18.2589436  15.3867607  47.2839813  26.9192410  17.4452324  26.3407154
  26.4242535  16.6539688  26.1282978  27.1873741  17.3227615  27.2513962
  60.6980476  41.1721268  68.6755524  61.1629333  41.7041092  69.3213882
  61.3679810  40.5889740  68.3186798  43.8528862  57.2410202  17.2317486
  42.9093513  57.2906799  17.0784111  43.9679031  56.4539642  17.7642403
  74.7233124  38.9449997  72.4528656  75.5488815  39.0392151  72.9280319
  74.2585373  39.7659035  72.6151352  76.6227112  32.9386482   6.6028962
  76.1207275  32.2374382   6.1875129  76.0552521  33.7071915   6.5432134
  20.2537899  71.6690369  17.5394421  19.9370689  70.7795792  17.3820305
  19.5369015  72.0996475  18.0051441  52.9184761  22.4137363  64.6662598
  52.3892250  21.6745110  64.9657059  53.7996750  22.2232609  64.9878845
  15.6317587  14.7569761  67.9077301  16.2745533  14.9660788  68.5854645
  15.3606033  13.8600721  68.1033554  19.8448429   6.9942851   2.4282002
  19.0515690   7.5172181   2.3120630  19.5487328   6.0879526   2.3438673
  63.8648872  48.7094307  42.4728241  63.6680374  49.2646866  41.7183876
  63.0288162  48.6221962  42.9306526  25.4141312  12.7613544  61.5536156
  25.1683102  11.8443155  61.4317894  24.5802498  13.2236471  61.6382217
  47.5977592  64.2912750  59.1415062  47.3060417  63.9342041  59.9803352
  48.4902763  64.5946274  59.3077164  26.5685272   7.7824988  15.3645325
  25.6384468   7.7061238  15.5774927  26.5850334   7.9619889  14.4244566
  20.9532433  55.1285973  66.5681534  21.1514683  55.6609459  67.3385696
  21.7805843  55.0834770  66.0888748  29.9620056   0.5145457  12.4515829
  30.6158772   1.1406262  12.1406078  30.0840626   0.4923173  13.4007082
  65.5888443  45.6129837  72.6522293  65.0744705  44.8250160  72.4768448
  65.1518936  46.3009109  72.1501694  43.2377014  65.4734039  27.1216354
  43.6705704  65.5614700  27.9708099  43.3587303  64.5537567  26.8853359
  49.2880669  54.8538589  22.0341663  49.0615654  55.2050018  22.8953438
  48.9255524  55.4869347  21.4144669  51.0519333  57.6292648  20.6530704
  50.2143135  57.3279839  21.0049934  50.9289093  58.5680580  20.5124989
   6.4526701  71.1239929  82.4379044   7.0419621  70.8338699  83.1341782
   5.5877099  71.1404266  82.8475494  65.0300751  59.5503731   2.5463262
  64.3941498  60.2207909   2.7960775  64.5013580  58.7715340   2.3728232
  51.1651955   1.9743154  68.2737198  50.9645767   1.2266240  67.7107468
  50.5238762   2.6400692  68.0252914  34.5244942   8.5047741  31.6064396
  34.0616798   9.3418407  31.6432457  35.3770142   8.6848249  32.0027008
  59.9531517  48.3610954  31.0274906  59.3867378  49.1255951  30.9228821
  59.6221352  47.9232674  31.8116875   2.4227290  47.2195206  83.1471329
   3.0095797  46.5476875  83.4942322   2.1626556  47.7298203  83.9140625
  74.7257233  16.4525471  13.6009150  75.3671570  15.7693300  13.4059610
  74.5700378  16.3733959  14.5420465   1.2643832   5.6529136  16.5003262
   1.4452920   6.5898914  16.4256496   2.0934503   5.2302895  16.2761211
  48.2882690  24.4873428  29.1849232  48.8329086  25.0512962  29.7340641
  48.0635414  23.7479115  29.7496967   4.3220677  58.1951523  48.4053192
   3.9277060  59.0579033  48.5332642   5.2366905  58.3792343  48.1912842
  79.3225937  55.3199539  47.9625359  78.5509720  55.7794456  48.2937393
  79.0279465  54.9137383  47.1474266  22.7356148   8.1439180  84.6434784
  23.0362415   7.2727818  84.3846741  23.0001373   8.2261810  85.5597153
  48.7250137   0.0699725   7.9515948  48.2730789   0.8034083   8.3688011
  48.3014717  -0.0178653   7.0977039  44.2339668  71.0370789   2.7578797
  44.1457634  70.0882339   2.6676075  43.6480064  71.2644882   3.4797966
  78.9122620  39.6701469  64.3693695  79.5140457  39.8288841  63.6421165
  78.6848984  40.5439453  64.6871948   2.4721491  18.3565655  69.4827347
   2.3775878  17.8381443  70.2818222   1.6426362  18.2372265  69.0202484
  79.4555130  26.7591324  11.5416689  79.8057861  27.2947426  12.2534704
  79.3954239  25.8784542  11.9118385  13.2520351  65.8331375   5.2631893
  13.0387802  65.1192627   4.6622376  13.5914965  65.3956223   6.0439453
  -0.0815371  32.1723862  43.8235130  -0.0146164  33.0700073  43.4978867
   0.7025561  31.7371254  43.4888840  43.4216042  69.6894302  12.2065067
  44.1943626  70.0151672  11.7450113  43.0035095  70.4754791  12.5580063
  29.1920090  65.8828125  76.1698227  29.1830940  66.5155869  75.4516602
  30.0703602  65.9564819  76.5430603  26.8389339  10.5356178  68.5755539
  26.6060009  10.1253242  67.7427063  27.1713562   9.8161478  69.1122971
  41.0833588   3.9595752  21.2440605  40.2594299   3.9294705  21.7303352
  41.2547455   3.0482805  21.0065727   4.7987895  50.4124489   9.4099045
   5.3189492  51.2127342   9.4820662   5.2849255  49.8656540   8.7927160
  86.4150772  70.5644379  26.9548607  87.2353210  70.6985016  27.4296970
  86.2631226  69.6205063  27.0010395   3.1144266  48.2525940  61.2358170
   3.9571540  48.0180244  60.8472061   2.7584271  48.9209518  60.6503258
  19.3455963  43.3884850  29.8343487  19.0530510  42.5153847  30.0957699
  18.5676136  43.9387779  29.9246426  64.5982361  43.8329277  62.1144714
  64.4561234  44.7771988  62.0482063  64.9520645  43.7051582  62.9946480
  48.0725174  22.1397514  31.0618649  47.6310806  21.3291607  31.3154583
  48.4581871  22.4668140  31.8745899  44.1999207  43.0486526  78.5588150
  43.3910065  43.1428719  78.0558090  43.9281921  43.1515427  79.4708481
  56.5370827  23.6310768  79.5634766  56.0757256  23.9686966  78.7957535
  57.1733971  23.0111427  79.2070847  50.5269585  33.6700630  20.1964817
  50.5152321  33.1391754  19.4000835  49.7301292  34.1978607  20.1442490
  31.9412746  57.2552147  74.8815155  31.0795460  56.9943657  74.5565338
  32.5224838  56.5415382  74.6186600  78.0927200  23.2965088  82.8168030
  78.4501724  22.4142933  82.9175720  77.1872177  23.2239532  83.1185150
  24.5041218  51.2777672  80.1889648  24.9674988  51.8552666  79.5823364
  23.6488361  51.6910324  80.3069992  59.8126831  59.2209892   2.3712914
  60.1644173  58.3881645   2.0567803  59.9023933  59.1746941   3.3231530
  65.1363602  31.5746059  69.1441269  65.6430588  32.2151299  68.6449127
  64.7923431  32.0687637  69.8882294  19.6311970  30.5796928  14.1081800
  19.2944450  31.0580025  14.8658409  20.5249863  30.9041042  13.9980469
   4.5215526  63.9350700   8.0826368   4.6075325  64.8873672   8.0383711
   4.1479053  63.6887283   7.2365065  30.0286579  69.5446930  19.8456650
  29.5089264  68.9492798  19.3056736  29.4527512  70.2938309  19.9984970
  64.7188110   2.7351925  29.6401768  63.9758873   2.7783906  29.0381584
  64.3964310   2.2235155  30.3821239  26.2352543   2.4138441  77.8823547
  27.0540485   2.0582452  78.2278366  25.6289902   2.3815587  78.6223831
  26.0578346  63.4287910  23.1646786  25.6760197  64.3034286  23.0908203
  25.9819679  63.0592651  22.2849464  10.5473671  51.0152130   5.8507218
  10.8670168  50.1581421   6.1326547  11.1658487  51.6386490   6.2315617
  59.0487328   6.7159739  66.6218185  59.3904457   7.1889682  67.3805923
  58.9060440   5.8244400  66.9396820  77.3425903  68.8018112  19.8671875
  76.5437851  68.3186264  19.6558361  77.2485504  69.6342850  19.4041748
  82.6882401  22.3714161  83.2181625  82.5559235  21.4637070  83.4916458
  81.8428345  22.7933769  83.3713760   0.7760385  31.6987267  10.6864386
   1.5788351  32.2181015  10.7311506   1.0785465  30.8021736  10.5418196
  20.6764336  27.7439594  81.2061691  20.1015320  28.2884579  80.6683578
  21.3862476  28.3305340  81.4675598  16.0869389  52.8118668  13.0314379
  15.4905329  53.3813477  13.5174656  16.1452141  52.0173912  13.5621367
   2.9017367  31.7696857  71.6619110   2.9963367  32.1618576  72.5299530
   3.4772415  32.2890701  71.1004257   4.4552002  54.5531311  34.9793968
   3.6750968  54.4369850  34.4370117   5.1777596  54.2556610  34.4265404
  69.9934845  52.5104980  70.1594086  69.6644058  52.6800194  69.2766876
  70.7130814  53.1318970  70.2701950   6.6504369   5.3538961  26.7358971
   6.0358572   5.3911200  27.4687939   6.2626662   5.9207125  26.0691242
  16.4770870  57.7320061  80.7393494  15.7747269  57.3374519  80.2223892
  16.4366226  58.6643066  80.5262527  72.7558975  67.1091003  13.0392103
  72.5717316  67.9740295  13.4055548  72.2230530  67.0669022  12.2451534
  38.9294395   9.8262854   1.6069199  39.6483383   9.4123106   2.0844553
  39.2842522   9.9878092   0.7327057   0.9422684   1.4716067  79.0809402
   0.5711882   0.7545466  78.5667877   0.9337353   2.2218971  78.4866180
  62.0533447  10.1267633  37.0474854  62.6421661   9.5966635  36.5103531
  62.1663589   9.7857752  37.9347191  40.3320122  16.9776421   4.8979988
  41.0534782  16.3631115   5.0324297  39.5981483  16.4287033   4.6216998
  45.6352119  28.6381607  88.0825653  45.4905510  29.1791878  87.3062973
  46.4687996  28.9468060  88.4376755  40.3230591  13.3985090   5.2423658
  40.8937111  13.1442547   4.5171490  39.5336914  12.8705359   5.1224627
  48.6952705  26.7390633   9.5982780  49.5781822  26.3695850   9.5848799
  48.2641563  26.3027134  10.3331060  70.7999191  42.3999557  29.7037163
  71.6863937  42.5222168  30.0434837  70.2763596  43.0605888  30.1572380
  71.3812637  61.2102203  50.7161179  71.4924316  62.1044655  50.3933220
  70.6440735  60.8639641  50.2132339  56.9904099  23.8818321  71.1362076
  56.2476730  24.4130344  71.4232559  57.4722862  24.4491920  70.5344391
  84.0864563  46.6043091   2.4468529  84.9342957  47.0476837   2.4755771
  83.7714005  46.7475090   1.5544034  76.8054428  37.3061562  43.2395096
  77.3233414  37.8705826  43.8134766  77.3942490  37.0971107  42.5143623
  42.6160889   7.8761859  66.2024612  43.5239029   8.1796675  66.2044525
  42.4926872   7.4842072  67.0669556  30.1983356  30.9349766   7.3461366
  30.7324486  31.7250214   7.4285049  30.5591621  30.3329926   7.9970212
  55.5745163   2.5234365   6.8704295  56.3337784   2.0370305   6.5492430
  54.8477859   1.9039741   6.8043966  31.9631901  21.1668625   0.0325096
  31.3318443  21.4986248  -0.6059006  32.0678558  21.8822021   0.6598561
   3.3596570  40.5794525   3.3089306   3.0025904  39.8075867   3.7481978
   3.7263436  40.2417984   2.4917638  55.7620621  59.3293190  35.9289818
  56.0235901  58.4920578  35.5458031  54.9694138  59.1279221  36.4263535
  78.4464722  70.9702530  22.0910244  79.1451874  70.8933029  21.4413242
  78.8174591  71.5250702  22.7771587  67.4916840  66.7331314  51.4915504
  68.4189453  66.5014572  51.5439301  67.1301956  66.4670334  52.3369751
  84.2785110  45.9933777  53.8370285  84.7115707  46.0116577  52.9835892
  83.4642563  46.4783669  53.7028694  44.0761414  67.2698135  64.3229599
  43.8470993  67.0716171  63.4149475  44.8904419  67.7691269  64.2610550
  81.7495880  31.7323647   5.8178496  81.8366852  31.2050667   5.0237436
  80.8588257  32.0804596   5.7777138  72.1821518  61.1660156  32.8004723
  72.7093582  60.5087051  32.3463554  71.2767715  60.9164391  32.6154747
  38.5112457  13.9571609  58.0854225  37.9952698  14.7616835  58.1377907
  37.8648834  13.2537308  58.1456795  42.3113594  12.7377653  85.8489151
  43.0474434  13.2894430  85.5842209  41.9971848  12.3495750  85.0323181
  47.8978424  39.6369362  23.1491184  48.5450439  40.2046471  23.5675316
  47.1776772  40.2238998  22.9187469  64.9436188  31.8708744  14.7403202
  65.8599091  31.8125668  15.0109549  64.8576355  32.7509918  14.3739376
  33.2988014  12.8528099  27.4175797  34.2178955  13.1158752  27.3696575
  32.9376259  13.3738298  28.1347408  70.1897430  63.0836182  34.4037666
  70.0947571  62.3090401  33.8494797  69.2961884  63.2965469  34.6729546
  86.5334244  48.7689133  23.5587349  87.1598434  48.9570961  22.8598671
  86.4576340  49.5924950  24.0406094  35.9968719  47.7122078  34.5767403
  35.8810081  47.4631424  35.4936752  36.9265633  47.5638046  34.4038734
  65.0553894  46.3822327  30.5854874  64.1602478  46.6614342  30.7778397
  65.4839020  46.3457947  31.4406395  30.0511913  63.9749489   8.8731623
  29.4834671  64.7437210   8.8191719  30.4431591  64.0274124   9.7448511
  73.8364182  21.2494488  22.7480946  73.8177338  20.3605251  23.1026287
  73.0183411  21.6447048  23.0493412  40.9512100  68.5717163  77.8323288
  40.5934525  68.1228104  78.5983047  41.1952972  69.4390793  78.1553574
  39.3982964  20.2074089  83.1427689  39.7905540  20.9746456  83.5595627
  40.1452751  19.6714401  82.8763275  77.6018829  40.3012505  28.0080872
  76.9472961  40.9927101  27.9100018  78.0844650  40.3092766  27.1814747
  65.7218933  43.3240929  86.2454605  65.0168076  43.4262428  86.8847122
  65.2984772  42.9300957  85.4827576  18.6708241  70.6890640  46.4313583
  18.5166283  70.0863113  47.1587868  19.4974155  70.3955307  46.0481911
  23.4423332  30.9595356  18.9084473  23.1828709  31.8475113  18.6626644
  23.9549026  31.0726776  19.7088871  11.5714216  70.7325516  33.5210991
  12.1093683  69.9752502  33.2901421  12.1116161  71.4888458  33.2921066
  57.9539528  47.3441887   5.7959809  58.2089272  47.1667747   4.8905840
  58.2962074  48.2202225   5.9739189  28.8494606  67.3309402  69.8078384
  28.3697586  67.7326279  70.5322495  29.7708950  67.4860535  70.0155258
  72.6515045   7.9256191  55.0440254  72.0359726   7.2203550  54.8441544
  73.4843063   7.6275144  54.6782227   7.2773900  45.3007355  10.8053970
   7.7388010  44.5908737  11.2519684   6.5298018  44.8742561  10.3865204
  36.2909737  65.7785873  77.7229614  35.8470230  65.2941360  77.0269394
  36.6820335  65.1010284  78.2745132  63.5281639  53.4434319  46.0301704
  62.9366302  53.1687508  46.7307930  63.1604576  53.0506401  45.2385025
  30.9776764  39.0432701   3.1567543  31.3644981  38.1682854   3.1251445
  31.3161983  39.4256973   3.9663124   8.3364573  62.8881111   9.0898314
   9.1808882  63.0104408   9.5236549   8.1853857  63.7103119   8.6235762
   1.3039953  47.9898949  27.8234825   0.8280593  48.8036728  27.6576996
   2.1633999  48.2741852  28.1346626  85.2897491  61.4087448  67.2694550
  85.6891022  61.0936356  68.0802917  84.4543915  61.7863121  67.5448685
  36.6762733  70.5457382  14.7132788  37.3140259  69.8613129  14.9159164
  36.7103844  70.6303864  13.7604399  42.9115562  10.3803291  71.9143600
  43.7062721  10.8926306  71.7653427  42.2207375  11.0346975  72.0183182
  28.1904659  33.5556297  89.0794144  28.2217197  34.4584122  89.3960190
  27.9957199  33.6358795  88.1456757   1.7336252  60.0030022  86.4866714
   0.9854417  59.5525742  86.8785477   1.7120509  60.8803291  86.8688507
  65.2926712  24.0811863   1.7849815  65.7368164  23.5027542   2.4049668
  65.2565994  23.5779591   0.9715366  54.6151009  36.4358864  35.8169022
  53.8504181  36.8169861  35.3853302  55.3625946  36.8766136  35.4128609
   9.9572325  20.9680538  25.5983448   9.3919830  20.3782291  25.0995159
   9.8918543  21.8063068  25.1408615   0.5202959  -0.2266409  55.1279144
  -0.3369805   0.0815944  55.4216843   0.7619777   0.3738235  54.4227448
   6.7508712  62.3302765  42.0021820   7.5223303  62.8653564  42.1886597
   6.3941159  62.6979675  41.1936226  59.1677361  51.1025124  77.1810532
  58.7718773  51.5687714  77.9173508  60.0167313  51.5269432  77.0573654
  79.3757935  37.5896454  22.0335217  78.6243591  37.4199982  22.6016846
  79.3369598  36.8986053  21.3723202   9.0382395   2.6595905  13.6913986
   8.7890234   3.1298583  12.8958035   9.9146204   2.9848518  13.8972979
  54.3806381  49.9369583  35.8576736  54.4556961  50.7276764  36.3918686
  54.4999504  50.2430763  34.9586258  57.3576050  51.3786507  60.9665451
  56.4220505  51.4513702  60.7776451  57.6516228  50.6364975  60.4383469
  59.9458504  29.4821510  67.6830063  59.9171257  30.1989536  68.3167267
  59.0929756  29.5114479  67.2494431  39.9801636   8.5949230  30.3811436
  39.1804886   8.1799965  30.7045498  39.7309685   9.5057802  30.2247028
  43.9029999  67.5197678   3.6233799  43.7079201  67.2580643   2.7235553
  43.6172523  66.7775345   4.1559868   2.6370518  68.3776321   9.6530781
   2.0730345  67.7456207   9.2073412   3.5265806  68.1067047   9.4259825
  73.9157715  23.5512657  34.1933517  74.2136765  24.4529018  34.3139229
  73.5614243  23.5329571  33.3043442  84.2784119  28.8330364  61.7087555
  84.9898911  29.2782574  62.1689873  83.5849762  29.4899788  61.6470795
   1.3278571  12.7509880  79.1921997   1.3383077  13.5973625  79.6391602
   0.7941132  12.8989677  78.4115295   6.7913208  32.4811516  51.1068268
   6.4533615  33.3762550  51.1352463   7.1238375  32.3225212  51.9902878
  41.0901375  57.3694458  16.8854141  40.4626617  57.3273315  17.6070309
  41.2118187  58.3057671  16.7281590  39.7256966  64.3427505  75.7774277
  39.5526505  65.0107193  76.4408264  40.6094017  64.5380478  75.4657135
  58.5066185   2.4219840  56.3863716  58.5067558   2.2293441  55.4487572
  58.3176727   3.3589094  56.4383621  78.5975952  62.9740753  28.8936119
  79.2591858  62.9521179  28.2022018  79.0049133  62.5170822  29.6294632
  63.3489685  57.7599182  67.3799286  62.6655540  57.6799469  66.7145081
  63.1557198  57.0627670  68.0067215  15.6304426  44.9527359  43.2989349
  15.2388487  45.3984680  44.0500755  16.3781643  45.4999771  43.0587921
  62.4973640  51.4119797  70.1344147  62.9476929  50.5723953  70.2267914
  62.8294945  51.9428482  70.8583603  71.0219879  43.5607948  15.8481064
  71.9406281  43.7945061  15.9811916  71.0242920  43.0208817  15.0577145
  31.7186317  25.3042393  23.5760841  31.0486393  24.6247196  23.6508732
  31.2552204  26.0584526  23.2118778  42.4219437  59.3890038  56.9896088
  42.4940529  58.7950096  56.2424812  42.1290627  60.2173119  56.6096649
  68.9359665  47.4383354  37.4690933  68.0225220  47.4667549  37.7537727
  68.8953476  47.5633011  36.5209579  62.1286659  62.6399078  84.1079559
  61.7995033  63.2977638  84.7204132  61.3409729  62.2294846  83.7511292
   6.6479063  36.6377831  84.8886414   6.0560560  37.0924263  85.4880066
   6.9187512  35.8545799  85.3676682  80.5071640   2.8627758  12.5052691
  81.3461151   2.7071056  12.0714846  80.0770950   2.0076411  12.5088911
  78.6754684  68.3068008  51.8357277  78.6661377  69.0175171  52.4768410
  78.8983002  68.7334900  51.0083694  76.8325043  19.4228039   1.6078174
  76.6407013  19.0690422   2.4763198  77.7078094  19.8010998   1.6912386
  41.6400108  16.9415760  15.5775948  42.2446938  17.3547535  16.1939373
  41.0142059  16.4755173  16.1320229  10.3912964  44.6341438  87.7681961
   9.9610577  44.1399803  88.4660034  10.4906139  44.0039444  87.0546036
  34.9209480  71.1672821  56.6862488  34.4087181  70.4128113  56.3953285
  35.0477295  71.6903076  55.8946648   9.8552237  23.2080803  77.3132553
  10.7647238  22.9462891  77.1700516   9.4031181  22.9530621  76.5090179
  58.0307388  19.2821274  70.2283707  57.4419365  18.5284538  70.2673187
  58.8494492  18.9664726  70.6108780  74.9292297  19.9795399   5.7258701
  75.1906128  20.5930157   6.4125705  73.9731293  20.0242386   5.7160053
  17.9180698   0.2215782  52.8575821  17.3018494   0.4980075  53.5358810
  17.5057240  -0.5436778  52.4568481  61.5027695  14.5663748  68.4820175
  61.6414146  14.6903067  67.5430527  60.5901909  14.8175831  68.6245880
  79.3991547   6.3534040  12.7232571  79.2218094   5.4970503  12.3341055
  79.9917908   6.7797232  12.1041670  83.9681015  34.5392914  19.5869312
  84.5648346  35.0949326  20.0883312  84.5212479  33.8320923  19.2550755
  76.8555374  59.6498032  40.1226845  76.9862061  59.2559891  40.9852791
  76.2922363  60.4059639  40.2874565   2.9351139  20.7473221  77.3222733
   2.5431924  21.3568134  76.6968536   2.8325682  21.1767330  78.1715775
  13.9330301  23.4543304  41.3579597  14.4482327  23.2360325  42.1345825
  13.3539801  24.1602745  41.6453247  77.4718323  62.0496674  37.6030121
  77.2517090  62.7376900  38.2310295  78.1818008  62.4213943  37.0795631
  57.9614372  51.9633598  74.5742645  57.3256111  52.6072731  74.2622833
  58.5112534  52.4483795  75.1896439  68.2593613  48.7645760  10.8956852
  69.1450806  48.6831245  11.2493801  68.0145493  49.6734047  11.0698442
   5.1458054  62.8476639  16.6098747   5.0682745  62.1050339  17.2088127
   4.7768354  62.5301781  15.7856808  21.1381721  28.7857304  10.7664738
  21.0071125  28.5215950  11.6771259  20.5856247  29.5600300  10.6597824
  20.4826450  67.7369080  38.3376579  20.8528423  68.1567535  39.1141357
  20.8672371  66.8603821  38.3329773  73.2292175  26.8647079  18.7664967
  74.0057831  27.4234238  18.7984409  72.4955215  27.4771729  18.7134705
  30.2794018  10.1177864  23.8682213  30.3794842   9.2681332  24.2975292
  29.4697285  10.0374851  23.3640270   9.3470964   8.8391285  77.1371231
   9.1825323   9.7738161  77.2616653   9.7148848   8.7760534  76.2556534
  72.6342850  11.3528175  85.6392059  73.5870361  11.3602552  85.7310638
  72.4799957  10.9723377  84.7745285  71.0505676  61.2977257  66.7605667
  70.5504227  60.5141411  66.5323410  71.9481888  60.9847412  66.8726044
  13.3761282  68.6019516   6.2397876  13.4475136  67.7149734   5.8870654
  14.0013390  68.6226273   6.9642987  79.2975769  12.6309042  84.3388901
  79.6899948  12.6948433  83.4681702  78.3555374  12.6966619  84.1824646
  83.2713852  43.5399551  71.6373062  83.1120605  44.4773636  71.7473602
  84.1483002  43.4890900  71.2569427  63.9406509  15.2716417  16.9719009
  64.5642853  15.8113289  17.4577484  64.4799576  14.7843494  16.3490620
  83.1163483  62.8228836  65.2155457  83.0967407  62.3008080  64.4134903
  83.9255981  62.5589790  65.6533890  30.9685478  68.9423752   4.0993028
  31.7588005  68.9845886   3.5608323  30.8559437  68.0104904   4.2867551
  82.2226410  49.0338783  84.4967270  82.5817413  49.1346779  83.6151886
  82.5298080  48.1738777  84.7835846  36.3518410  59.1996498  86.2765121
  36.7262115  58.8651924  85.4615173  36.3685188  58.4509811  86.8727112
  61.7483749   8.6707945  87.5332108  61.0137901   9.0370073  87.0407639
  62.3450813   8.3393345  86.8621674  79.8867645  40.5478783  36.2881889
  80.2864151  41.3178444  35.8836365  79.2881699  40.9053993  36.9440002
  57.6061897  59.2475548  47.6297073  57.9001884  59.9602432  48.1970444
  57.7973061  58.4518089  48.1261864   4.7437005  50.9994202   2.4678862
   4.8550549  50.4026031   1.7278557   4.9597435  51.8622894   2.1143138
  80.3762436  50.4324303  49.0675316  81.2865906  50.1637039  49.1911926
  80.4255371  51.3723335  48.8932266  69.1242599  18.7009144  78.7096405
  69.1881714  19.5642700  78.3012695  69.7809906  18.7160606  79.4058456
  60.3079567  14.1846771  79.5145416  60.2756615  14.8573952  80.1947174
  59.3951263  14.0649662  79.2525406   0.3281150  53.1534576  57.6279297
   0.6343926  53.0390625  56.7282944   1.1261095  53.1385536  58.1563377
  11.1600924   4.4457273  45.1038094  11.1214333   3.5832677  45.5172119
  10.9490929   5.0586128  45.8081436  83.1444931  62.0824356  69.0206604
  83.2167206  61.1505165  68.8143845  82.2130051  62.2785072  68.9201202
  66.4770813   3.9450364  15.9999704  65.7444839   3.3313217  16.0537090
  66.6040115   4.2458668  16.8997593   2.2211163  33.5790253  38.7211990
   2.2873366  33.6053810  37.7666550   3.0469079  33.1890221  39.0078964
  44.9559669  18.4425259  20.2096214  44.9321899  19.0828552  20.9207077
  45.6927032  18.7177563  19.6640034  21.7529411  16.4764729  35.0983162
  22.6229153  16.8693523  35.1692047  21.4360657  16.7499313  34.2374763
  13.0310669   2.5826967  48.6262093  13.4843588   1.7498646  48.4952545
  13.0866680   2.7400320  49.5687485   9.1641178  21.2549419  36.8769684
   9.6317368  20.4200535  36.8539810   8.2629566  21.0187492  37.0968590
  44.2841339  67.5330048  69.7133179  43.5468636  67.5988464  70.3202209
  45.0146637  67.2350616  70.2553406  39.8046341  60.6521950  68.5485916
  40.1515617  59.8700447  68.9776764  40.5531006  61.0192032  68.0781326
  64.6974030  26.8422375  48.2173576  64.4550171  25.9173260  48.1723976
  65.5429611  26.8902035  47.7713051  17.5820274  58.9877777  53.5546532
  17.1614399  59.6749573  54.0714912  18.5182304  59.1068764  53.7145729
  46.5097084  53.3916245  83.7167282  46.2493820  53.2760658  84.6305695
  47.3876457  53.7700958  83.7638092  72.3262405  64.0376511  12.9801207
  72.8711624  64.8231964  13.0270929  72.1205978  63.8339005  13.8924952
  10.0545187  27.0620422  84.5816574  10.2199621  26.4546852  83.8605576
   9.5239382  26.5602741  85.2004776  64.8376389  41.2848396  17.0073509
  64.9181747  41.4817467  17.9406109  64.3977966  42.0506134  16.6380825
  74.3518372  57.6581650  70.2884521  75.2416382  57.3460617  70.1239243
  74.4623642  58.5749130  70.5406189  28.6122704   2.8715246  76.2469101
  28.8335762   3.4174976  77.0013428  27.7095432   2.5963783  76.4069519
  11.2813349  66.0416412  75.6770325  10.6135159  65.4218140  75.3836594
  11.9003325  65.5084915  76.1758575   6.0607867  25.3308792  56.7561226
   5.3566608  24.7056618  56.5842476   5.6426964  26.0303917  57.2582359
  82.8653030  66.3041687  10.2253542  82.3466492  66.3890686  11.0253649
  83.7725830  66.2803040  10.5295153  38.1685219  57.6146278  11.2627239
  37.5123940  58.3093071  11.2066183  38.3384209  57.5207748  12.2000380
   3.3039794  45.3948326  71.7285843   2.7956302  45.8932381  71.0887375
   4.1916580  45.7452354  71.6545868   0.5096964  57.3482361  20.6696777
   0.3138120  57.8374405  19.8705902  -0.2429927  56.7684746  20.7861595
   1.7815849  25.4760017   6.9044514   1.5134727  26.3784847   6.7316198
   1.2719675  24.9521847   6.2862773  17.5575485  58.8102837  19.8229580
  18.2547741  58.3062096  19.4034138  17.2935028  58.2762833  20.5721931
  61.4137726  10.7477388  65.8206863  61.0747604  10.7627230  66.7157135
  61.8169365  11.6078558  65.7028427  45.7315407   1.8444622  64.0766983
  46.6257973   1.6592383  64.3634644  45.6810875   1.4742451  63.1954384
   1.3270986  52.0824203  72.4706955   0.5762247  52.6329842  72.6927338
   1.8006541  52.5805435  71.8044739  81.8706360   0.5359641  60.6953697
  81.4121246   1.0192851  60.0080566  82.4888000  -0.0224315  60.2238808
  14.3851690  64.6725616  29.2950134  13.8723907  65.2111053  29.8977299
  14.9893284  65.2875824  28.8791103  12.1752806   1.5013729  39.3293571
  12.9675846   1.1786577  38.9000092  11.6935511   1.9519401  38.6357002
  71.3100891  18.9153328   8.2551804  71.3956146  18.0125008   8.5614710
  71.2574005  19.4361477   9.0565586   2.2582307  13.7426748  74.7370377
   2.4164612  13.8602991  75.6737137   3.0282929  14.1229925  74.3144379
  16.9541397  65.8250351  66.2913208  17.5523911  65.0878525  66.1693039
  17.3699856  66.5505905  65.8256149  20.1576176  39.2391243   3.7575269
  20.8185635  39.0242805   3.0993292  20.6398907  39.2574387   4.5841522
  22.2442780  57.9506683  63.8272095  22.9069748  57.8062668  64.5026474
  21.4098454  57.8358955  64.2819443  35.4083900  62.5687447  35.0162354
  35.4638443  61.7083893  34.6003685  34.8111229  63.0665741  34.4579544
  73.5248337  34.1795578  36.3343239  73.7794266  33.3032684  36.0453186
  73.5012665  34.1193695  37.2893410  72.0813446  36.5619736  46.0158653
  72.8944397  36.3001213  46.4477692  71.5321960  35.7784691  46.0438499
  44.8216934  54.0687637  22.1844196  45.1378403  53.1652870  22.1810226
  44.5888786  54.2376175  23.0973930  54.6289978  46.2375679  12.1233015
  55.4809761  46.1091995  11.7063046  54.0200844  46.3522339  11.3937063
  64.3637390  58.6938667  43.6969147  64.4778824  57.8601761  43.2406654
  65.2037201  58.8470917  44.1295662  72.8516006  38.6879272  30.2099419
  71.9489212  38.9573593  30.3796558  73.0391312  38.0384407  30.8876076
  84.6017685  56.5517921  28.5215263  84.2293015  57.3507805  28.1485462
  84.6067047  55.9281731  27.7953644  63.9434776  70.1988678  66.0202408
  63.6769485  69.7854309  66.8413773  64.4275208  70.9790268  66.2909622
   3.4526470  34.0873528  44.2341347   2.8439221  34.8187790  44.1306877
   4.3047667  34.4485321  43.9898529  45.6658249  47.6468544  10.9011154
  46.4860725  47.5234070  11.3788052  45.8813400  47.4279518   9.9945459
  62.1027870  21.6398220  41.2472038  61.8864975  20.7106686  41.3254585
  61.3223038  22.0355797  40.8593254  20.9546528  65.7574692  19.0308571
  20.8327065  65.8902512  19.9709263  21.6669216  66.3519974  18.7954006
  34.6420517  15.9694185  72.8558273  35.0813980  16.5761852  73.4516830
  33.9294472  15.5973167  73.3754196  63.9472885  62.9791451  73.9627609
  64.1626968  62.3711662  74.6700058  64.7244263  62.9815102  73.4039383
  83.5727997  56.6602821  67.3695526  84.4083405  56.7199287  66.9063644
  83.5541000  57.4355774  67.9306259  70.0759201  38.3303452  85.3352432
  69.5780411  39.1142120  85.5674133  70.3721848  37.9775276  86.1742783
  15.1759415   9.8272800  70.5099564  14.4563665   9.5871830  71.0937347
  15.2725010   9.0745039  69.9266586   1.0871788  31.2102432   3.3119996
   0.8543422  31.4499588   4.2089696   1.2338861  32.0469704   2.8708715
  14.5172119  25.6748772   9.3808908  15.0627432  26.2438488   9.9239359
  15.1328020  25.0548458   8.9899406   6.6178250   0.5733659  71.2637634
   7.1697826   1.2435055  70.8606644   7.0404310  -0.2544520  71.0349503
  77.1149063  70.9429398  18.1104927  76.7007370  71.7741089  17.8784199
  77.4907455  70.6251678  17.2895184  39.7148819  44.3402214   7.2658429
  39.7715530  44.4301949   6.3145676  40.3125839  43.6222878   7.4745498
   9.2104301  38.9991341  79.5803299   9.6473064  38.6730919  78.7935257
   8.3623676  39.3160172  79.2695160  78.3844223  61.5126228  57.8977432
  78.7969894  62.3181229  57.5859909  77.5416794  61.7966652  58.2517815
  21.4624691  14.1206751  82.6091614  20.5297718  14.0880890  82.8218765
  21.5779819  14.9615688  82.1666870  74.3538055  18.8373489  42.5740013
  73.5013580  19.0547657  42.9512253  74.3522491  19.2637100  41.7170029
  34.6502686  25.3821774  23.5181751  34.9379997  24.8268013  22.7936077
  33.7031822  25.2498226  23.5599365  65.8208084  58.1376991  82.3914871
  66.2228165  58.8524055  82.8852615  65.0823822  57.8583565  82.9327087
  32.4377403  54.1208611   7.8532495  33.0346909  54.8139191   8.1353016
  32.1552849  54.3891754   6.9789166  86.0112534  25.3973980  77.3914032
  86.3345032  26.0254612  76.7454376  86.2218323  24.5410786  77.0191040
  37.4148064  22.3011589  25.4098606  37.3345146  22.4609089  24.4695072
  37.2837944  23.1604023  25.8108215  76.8618774  28.4120312  47.8536110
  76.4059143  29.0212517  48.4342880  76.4706726  28.5630665  46.9931564
  12.4847441  51.8650284  20.2152519  12.4526196  52.4090195  19.4283104
  11.6212044  51.9702568  20.6145744   6.8524699  70.2505417  86.0184021
   6.6813698  69.3627625  86.3327484   6.0096054  70.5508118  85.6783371
  49.6007423  70.5493774  84.4837112  50.0145569  69.7011719  84.6435013
  50.3310432  71.1658020  84.4298096  36.5648994  68.7191086   8.9737568
  35.8042183  69.2199707   8.6792555  37.3108292  69.1471863   8.5535545
  40.2268524  27.8968048  87.5037842  39.2791672  27.7944813  87.5912781
  40.5601616  27.8143520  88.3972855  42.2971764  10.9855900  54.1308861
  42.9994469  10.3688879  53.9241791  41.5253754  10.4346809  54.2614861
  52.1809731  12.5115871  84.6910629  51.9999428  13.4249420  84.9129715
  53.0057869  12.3160362  85.1356659  19.4095516  35.1825790  77.2562790
  19.9335365  35.9809456  77.3217010  19.5505791  34.8762741  76.3604431
  32.1502266  32.2251472  29.4252586  32.0424385  32.0580750  30.3615818
  31.5188618  32.9179726  29.2313480  28.3953724  30.9064388  13.7961140
  27.7782860  30.2124786  13.5640430  28.1702499  31.1354351  14.6978416
   3.8217397  30.2427540  37.6126480   3.8540096  30.9916859  38.2078743
   4.6851425  30.2276440  37.1996841  13.3865137   0.4922994  21.9652252
  12.6407471   1.0092974  21.6606312  14.1192827   0.7873965  21.4246712
  41.5959206  64.1506119  15.5868015  41.4527664  64.2559280  16.5273590
  40.7790108  64.4470367  15.1855268  24.8381653  32.9297104  32.1393585
  24.2516670  33.2813873  31.4696007  25.2358379  32.1612930  31.7299404
   4.6711345  71.4968643  51.0894547   4.2408299  70.6680527  51.2995453
   5.3610950  71.2583313  50.4703522  77.2109070  40.0927620  23.7818832
  76.7393341  39.8380432  22.9888077  77.3217545  41.0400581  23.7007942
  82.8175659  50.4532509  36.8463364  83.5771408  49.9463501  37.1332664
  82.0717468  50.0268822  37.2684708  82.7148819  24.0376854  10.8509140
  82.6243973  24.8585949  11.3348064  82.6513290  23.3566761  11.5205545
  20.6973801  63.1258545  32.3267288  20.9385033  63.6874619  33.0634003
  21.3227253  63.3521805  31.6382866  58.7068596  50.6231308  18.2787552
  59.2543411  50.4106293  19.0346241  58.4581184  49.7727432  17.9165401
  84.8077469   7.8888907  27.5389099  84.9208755   8.8357859  27.4563065
  85.6931076   7.5532465  27.6793060  66.5503998  54.7559433   0.3348283
  66.3413620  53.8221169   0.3124472  66.9952393  54.9217949  -0.4963388
  26.0725956  51.5433350  -0.1309864  26.6368637  50.8337440   0.1761158
  26.2486858  52.2667847   0.4705477   7.0041857  40.1830635  78.7455597
   6.4676852  40.1815071  77.9528503   6.3798089  40.3250198  79.4570618
  56.9922562  55.3938484  76.5526123  57.7670403  54.8320351  76.5350494
  56.3571014  54.9095078  77.0800781  -0.0264922  15.4902344  36.6501999
  -0.5258273  16.2659798  36.9053802   0.7618217  15.5238647  37.1921082
  28.4575596  14.7710161  30.8377037  28.2021866  15.3054066  31.5896626
  28.1776562  13.8849564  31.0674515  84.3673630  55.4841003  88.4082565
  84.8162231  56.3201180  88.5340805  84.2007599  55.4410324  87.4666519
  76.8434525  39.9198227  41.2953758  76.3989105  39.8106384  40.4547234
  77.7631683  40.0508041  41.0647354  38.5173492  24.9644890  45.1485443
  38.2616386  25.8231964  44.8116951  37.7438126  24.4159851  45.0180817
  12.7759895  40.9052315  42.5303802  12.1276340  40.8498268  41.8283844
  12.3967247  40.3969765  43.2473602   3.8231010  13.7244062   4.9444141
   2.8956711  13.9603329   4.9233408   4.0314198  13.6547813   5.8760729
  54.1505013  54.6440620  35.0524025  54.0244637  54.0111656  35.7593613
  55.0512123  54.5018120  34.7613411  10.5822754   2.4621620  21.7692757
   9.6363716   2.5552979  21.8825111  10.7172747   2.5215416  20.8235054
  50.2800560  22.9707336  71.3781891  51.2208176  22.9958611  71.5530472
  50.0388870  23.8856239  71.2331238  19.0849457  69.0840836  48.9520645
  19.8862991  68.5966339  49.1430054  19.0954552  69.8141479  49.5710373
   4.6338148   3.0978260  63.8500366   5.1313877   2.2803042  63.8323975
   3.7199669   2.8206463  63.9155006  17.4993687  47.6173515  55.9899597
  17.7824078  48.4733124  56.3116035  17.8621521  47.5617485  55.1059189
  42.3210945  51.3407326  28.9758415  41.3681526  51.3181000  29.0631409
  42.6444702  51.3294983  29.8766937   6.5706897  20.8234959  32.3268547
   6.0142984  21.5880547  32.4755592   7.3659787  21.1794662  31.9305782
  60.4919777  42.8200722  35.0188828  61.4268074  43.0246277  35.0409126
  60.2787476  42.7741470  34.0868645   8.5812473  64.9157562  17.0335312
   9.4814577  65.2405701  17.0522690   8.6476135  64.0087662  17.3322010
   9.7296753   7.4825749  79.2585144   9.6140528   7.9521356  78.4324493
   8.8441849   7.2217836  79.5117493  23.7800350  68.9901886  68.8101654
  23.6676540  69.9074707  69.0595322  22.8904667  68.6744156  68.6514587
   8.6741571  17.0476818  49.8282471   8.1535206  17.7464046  50.2244225
   8.4648991  17.0926361  48.8952827  68.8684464  44.8670998  20.3017025
  68.0926666  44.7174759  20.8420811  68.9142609  45.8184624  20.2066231
  67.6670990  44.5801315  70.6164856  67.3337326  45.2938080  71.1603241
  67.0021439  43.8951454  70.6862183   4.9095292   2.3855119  22.4929714
   4.9390941   1.8512133  21.6993198   5.7211347   2.1741784  22.9543457
  61.6858025  54.9428101  70.7539215  60.9319496  54.3726654  70.6026840
  61.3615494  55.6145172  71.3538361  20.9768467  24.4338818  83.7436371
  20.6238136  23.8195419  84.3872147  20.3709927  25.1747093  83.7622452
  17.5762596  25.1282387  21.0802631  18.2669449  25.0818310  21.7413445
  17.5735073  26.0436707  20.8006039  69.7717667  63.1684837  12.6972437
  69.1828003  63.7214928  12.1838932  70.5931091  63.6589546  12.7298775
  43.5741615  17.2375603  17.8792496  43.9195824  17.7892303  18.5810871
  43.4000511  16.3956394  18.3000679  86.7871857  27.7783794  30.4614544
  86.4457169  28.0757446  31.3047848  86.0082703  27.6443195  29.9214916
   2.9306543   1.7804812  24.2455502   3.7700572   1.8539857  23.7914238
   2.3195572   2.2769449  23.7012024  50.2246704   7.3964663  61.7714729
  51.0211029   7.7827973  61.4072227  49.6488609   7.2778778  61.0160828
  33.8317833  66.2219086  68.3461533  34.1240120  66.3948593  67.4512100
  34.2256279  65.3781281  68.5678635  75.1574173  60.5029144  37.5346413
  75.3440399  59.7830887  36.9319344  75.9993057  60.9437332  37.6492310
   7.2640972  52.7513466  83.1667786   6.4235444  52.9491768  83.5797729
   7.7676835  52.3075409  83.8491745  47.6985855  61.3444099  50.6338081
  48.1514320  60.5920372  50.2528839  48.1154709  61.4683304  51.4864998
  66.4580154  52.2595291  80.0570755  67.2296371  52.6800842  79.6776505
  66.2735748  51.5248413  79.4718857  83.3243408  40.9450455  77.7793961
  82.8264847  40.2187538  78.1547318  83.2336349  40.8338051  76.8330154
  28.0358677  13.0521173  68.4311447  27.6132851  12.2703886  68.0753937
  28.9177284  12.7623539  68.6647873  38.9762955  12.2430058  73.7630844
  38.2214775  11.7938004  73.3826981  39.5599327  11.5371428  74.0412140
  66.9195175  65.3156815  77.6924973  67.6652145  64.9384537  77.2257385
  66.1563873  65.0493851  77.1797028  15.2961102  41.0168037  25.4877396
  15.3211918  41.6028519  26.2441463  14.4292517  41.1552429  25.1061344
  28.4574814  12.0426636  48.5751266  27.6442814  12.0928984  48.0727158
  28.1724834  11.9880524  49.4872818  63.5674057  42.4469986  27.5604343
  63.7506256  41.9108734  28.3319473  63.1564827  41.8434639  26.9414673
  45.7346687  61.2059402  41.1046219  46.5302277  61.4667587  40.6406250
  45.4223480  60.4355087  40.6301498  24.6445122  51.3660049  37.3053513
  24.4909191  50.7080536  36.6273117  24.0241432  52.0666351  37.1041298
  65.2178726  30.1727715  73.1134338  65.9839783  30.2869873  72.5510559
  64.6347275  29.6036911  72.6111221   9.2395248  33.6608238  72.0543747
   8.4329195  34.1760712  72.0425491   9.6678333  33.8673096  71.2236252
  17.2315941  49.9327431  22.5166111  18.0585957  50.4140663  22.5417061
  17.4900227  49.0113220  22.5372715  38.7773094   6.5461960  80.2897034
  39.0895424   6.0780330  81.0640182  37.9999008   6.0607672  80.0136108
  16.2870026  65.6755142   6.8349957  16.8086681  66.0949783   6.1507864
  16.7124329  64.8297119   6.9758973  41.4902153  12.0063553  32.3742905
  41.4050293  11.9974308  31.4209309  40.8609047  11.3517637  32.6771278
  39.3444328  57.5095673  72.2269821  38.7072754  57.5335083  72.9409027
  39.6583023  58.4110374  72.1557465  17.1871681  70.2090759  76.1370468
  16.6055069  70.0175018  75.4013824  17.1528206  69.4220581  76.6807938
  84.6847153  53.4231071  62.5177307  83.8136063  53.1173668  62.2649040
  84.7352982  53.2512817  63.4580193  18.9853210  51.0068932  80.2804718
  18.8223095  50.3327255  80.9401398  18.2365532  50.9474373  79.6871414
  85.5809479  21.3148193  86.8241425  85.9844360  20.4967022  86.5341034
  86.3203506  21.8848839  87.0352020  69.9402695  69.8712311  68.3596497
  69.9366379  69.7035141  67.4172668  69.6468582  69.0482101  68.7505264
   1.1799390  29.8687096  34.2899818   2.1017413  29.6465549  34.4209785
   1.1821400  30.4712830  33.5462570  26.4927635  13.0620222  88.5588226
  26.4865646  13.5493031  87.7349625  27.3575535  12.6527700  88.5885391
  55.2724419  35.0403061  25.9547958  54.3834534  35.3668327  25.8158321
  55.5069656  34.6237640  25.1255074  70.5124283  48.9388924  51.2437019
  70.9997711  49.1471519  50.4466057  71.1438446  48.4795227  51.7973480
  82.5997391  17.8222599  23.5478859  83.1665421  18.5512924  23.2959366
  81.7508163  18.2283268  23.7230282  51.0564346  21.1479816  11.6665783
  50.5836906  21.7323627  11.0739222  51.1521339  21.6523895  12.4744434
   6.0226707  10.6773214  70.1140823   6.0782266  10.1073761  69.3470688
   5.8832245  11.5525665  69.7525101  11.5050840  42.9308929  50.5615425
  10.8153896  43.5045547  50.2276802  11.5971432  43.1775246  51.4818306
  52.8897667  38.6553078   0.6476090  52.1298904  38.9030609   1.1743343
  53.2017975  37.8422813   1.0449226   3.2542531  68.5051422  49.3109398
   2.4657097  68.1104813  49.6833305   3.8711593  68.5431061  50.0418434
  78.1007767  55.5332298  16.5212479  78.7248688  55.8028984  15.8474369
  77.9442444  54.6054726  16.3452034  52.7818031  61.8700104  21.6191330
  52.4265480  62.5689926  21.0700912  52.6977119  62.2015152  22.5131493
  43.1218948  68.2090149  38.4249229  42.5407257  68.0289459  39.1638718
  43.0844002  67.4149857  37.8916893  50.6918640   3.3749037  17.0267963
  51.1162872   4.0764003  16.5328350  51.4140587   2.9037397  17.4423332
  21.5955753  45.5005722  21.9761143  22.1266327  44.7185783  22.1267776
  20.9254589  45.4702225  22.6589413  48.5323524  31.0751095  67.9024277
  47.6980438  30.9730930  68.3604202  48.2869186  31.2947292  67.0036697
  11.2934198  29.6378536  73.9436417  10.9767332  30.3549042  73.3942947
  11.0369759  29.8854465  74.8319931  32.3355408  14.8023872  10.2816401
  32.2770081  13.9811068   9.7934752  32.7786674  14.5656681  11.0963984
  75.3272858   3.7928760  15.3804350  76.0677109   4.0500808  14.8310299
  74.5586014   4.1272292  14.9183054  79.8690720  26.8099766  54.0118484
  79.7460632  27.7166157  53.7305870  80.6181030  26.5006924  53.5024033
  58.4752159  15.6822767  64.9022522  58.4637718  16.5731602  64.5523529
  57.7514420  15.2410173  64.4576492  71.5765305   6.5412903   2.7945473
  72.3329773   5.9585266   2.8608713  71.3110352   6.6932936   3.7015419
  13.3545656   2.8644984  28.9123058  13.6359482   2.6522744  29.8022575
  12.4172106   2.6707416  28.9048615  58.3685036  23.3676147  74.7759094
  58.6578751  24.2364044  74.4971619  57.5298958  23.2406902  74.3322220
  52.4251976  25.8032436  78.3988876  52.5347824  26.6397152  77.9466324
  51.4783401  25.7098255  78.5036087  20.4122143  36.9210739  30.4303913
  20.5316639  36.2496643  29.7586994  20.9984989  37.6303749  30.1669655
  59.1016006  30.3924828   7.9071603  58.6516533  30.0411301   8.6754904
  59.6112328  29.6556015   7.5702496  84.1277771   7.5424943  45.2216072
  84.6834793   7.8973932  44.5277252  84.6421356   6.8288512  45.5989380
  24.3092937  57.2382736  40.7364807  25.0989227  57.2683182  41.2766800
  23.7266235  57.8892441  41.1275864  59.9178505   5.1615291  72.6007233
  60.6735001   5.6833611  72.8707581  59.2402534   5.8071837  72.4001617
   0.4685907  62.9395294   1.6818271   0.1688523  62.2462578   2.2698450
  -0.1769226  62.9498978   0.9751186  52.6958199  69.7338791  67.3928223
  53.4690170  70.0613937  66.9333267  53.0220871  69.0060425  67.9219971
  66.4918442   3.4136412  88.9184875  65.8650513   4.1056781  88.7076797
  67.2424545   3.8758500  89.2915649   6.4838896   4.4938812  18.5109482
   6.6552291   4.2975388  17.5899029   7.3178873   4.8246841  18.8444901
  40.9169807  56.3780022  14.3276863  41.6113243  56.8796425  13.9005194
  40.8997116  56.7094154  15.2255154  77.1555328   4.4818463  13.6355982
  76.9756393   4.0992136  12.7768431  77.9432373   5.0091677  13.5025949
  31.7949467  19.0149441  85.0351334  31.8976440  18.3055687  84.4007263
  32.3662338  18.7698822  85.7630081   6.2928038  53.1376457  14.5506287
   5.9500570  52.3166771  14.1974039   5.7512517  53.3117714  15.3204546
   4.8325453  65.8138885   5.1981459   5.1759706  65.9273682   4.3119106
   4.2739458  65.0386810   5.1411076  57.9832687  11.3834352  18.7778015
  57.4503860  11.9256582  19.3594074  57.7251625  10.4851799  18.9845638
  71.4529724  52.5212822  87.6345291  71.3380890  52.7660675  88.5527420
  71.2375412  51.5890617  87.6064148   4.2785096   8.6596842  22.1211987
   3.3411212   8.8066111  22.2474823   4.4900265   9.1378937  21.3194466
  47.4631615  71.0344925  40.2460518  46.8141785  70.5013046  40.7051468
  47.5178719  71.8402634  40.7598305  66.5032501  19.8878078  53.4199295
  67.3748398  19.8784008  53.0243607  66.6025543  19.3879795  54.2302017
  71.9673157  55.1767235  64.1136398  72.5642776  55.6288071  63.5174065
  71.3168411  55.8384552  64.3486328  61.4323235  41.4035339  77.1894379
  60.7579727  41.6472206  77.8235550  61.6220436  42.2146606  76.7179413
  20.8405151  56.3898506  13.9411039  20.2478924  56.7436523  14.6043196
  20.8221836  55.4435349  14.0838671  79.3081360  13.7335911  62.3511581
  78.6435471  13.0757570  62.5556183  78.8253708  14.4328508  61.9104691
  64.4478912  38.4167290  40.0970230  64.1966705  37.8735008  40.8440323
  64.0389938  37.9913788  39.3432922  85.6060410  46.9135742  16.8528709
  86.2018814  46.2668533  16.4747734  84.9233170  46.3922005  17.2751160
   3.1373353   6.7574210  10.1649685   2.8059785   7.6095538  10.4483490
   3.8130946   6.5378556  10.8063517   6.1319036  16.6487064  14.2059784
   5.7377558  16.2865906  14.9995470   5.7693615  17.5321426  14.1401367
  54.3719559  49.1035614  45.8166618  54.1842117  48.7416916  46.6827049
  53.9458694  48.5004807  45.2075806  59.0054016  51.0330772  63.3701859
  59.9534683  51.1595650  63.3328018  58.6991959  51.2558441  62.4910660
   5.4513030  67.5906143  74.9782486   5.7224751  68.4718933  74.7212524
   4.5011978  67.6516876  75.0772552  73.6754074  18.4043407   1.8163660
  74.4365921  18.0091267   1.3913630  72.9230347  18.0016651   1.3827430
  60.7517509  56.0093155  47.8383293  60.5685081  56.8012619  47.3328857
  61.6629257  55.7997437  47.6332169   1.0931036  65.3938370  69.0276642
   0.3098929  65.8481979  68.7172318   1.7963248  66.0361633  68.9321136
  17.8954296  12.0108719  32.6803970  18.8191566  11.8113537  32.5282402
  17.5858021  11.2991858  33.2406349  84.9557266  52.7839622  17.1516705
  84.1916046  53.2703094  17.4612122  85.0912628  53.0951462  16.2566700
  56.1622810   4.8932753  60.6561279  56.5836143   4.1038833  60.3161736
  56.8798790   5.4072495  61.0264206  80.4753342  16.0331345  59.7017937
  81.1615982  15.5806446  60.1922226  79.6856689  15.9141407  60.2295265
  30.1518021  51.1901932  34.8278122  29.3778801  50.9397697  34.3232689
  29.8495922  51.9012985  35.3928146  81.2662582  28.8747177  16.9501133
  81.6107407  28.0235615  17.2204800  82.0064621  29.3089752  16.5261478
  65.1723557  62.8940811  46.1357880  65.6704788  63.4470673  46.7377167
  64.4187469  63.4292183  45.8869286  82.4001312  15.4129057   2.4690242
  83.1928329  15.9417791   2.3787489  81.7622833  15.8375435   1.8953873
  56.9672852  62.1626740  34.1108551  56.0537033  62.4397469  34.1803703
  57.2512283  62.4859810  33.2558250  52.1795654  61.9838753  59.1372185
  52.6466560  61.3305435  59.6580048  51.4073906  62.1995697  59.6601448
  37.0862312  64.0194016  46.4744987  36.9059525  63.2423210  47.0035286
  36.2218246  64.3776703  46.2728195  52.8278313  53.3474121  54.6916695
  52.9810219  52.5242386  54.2278214  52.4443550  53.0832977  55.5279846
   2.9600630  52.2176704  29.3211517   2.3538432  52.3122177  28.5864468
   3.4878185  53.0159645  29.3004684   5.6755142  63.7267151  24.2738132
   6.2373438  64.0925751  23.5906410   5.6303258  64.4128647  24.9396915
  20.1792889  60.0017090  79.9603043  19.4090061  59.9020348  80.5197296
  20.7677879  60.5663376  80.4613953   3.2939100   3.4536448  72.0236435
   3.9811034   4.1141305  71.9355774   2.6017704   3.8925924  72.5181122
  73.5686722   2.4361823  86.4323196  73.5882416   3.0586298  87.1592407
  72.8757401   1.8181142  86.6648254  62.8975601  68.9156418   7.1576138
  62.7570038  68.2548523   7.8357263  62.0192528  69.2312546   6.9450297
  61.2804527  56.9044914  43.2447205  61.0908165  57.2232552  44.1271362
  61.8386002  57.5806313  42.8606110   1.3498960  10.9934883  56.5076141
   0.8132441  10.3612509  56.9856453   1.2084152  11.8222122  56.9652519
   4.4476500  41.3002930  68.3877563   4.9545994  41.7974777  69.0296631
   3.5375392  41.4131012  68.6619873  85.5840912  25.8752747  79.9993591
  84.7858963  25.3946629  80.2187653  85.8139648  25.5699024  79.1217880
  42.9846458  48.6637878   4.8425584  42.0828629  48.5499725   4.5424528
  42.9447098  48.5069504   5.7859769  14.6914845  38.4128189  83.2207260
  14.2426758  37.5689583  83.2727356  15.5941525  38.1903687  82.9928284
   0.6723612  14.3098927  83.0050049   0.1984072  14.9861097  82.5209274
   1.3540354  14.7872229  83.4779816  58.9238167  10.1097975  42.5115585
  58.5805626  10.9260187  42.1479797  58.3638268   9.9297867  43.2667007
  40.4761429  65.7073975   1.4329658  40.0594482  66.5690079   1.4483461
  39.8321953  65.1373901   1.0126631  39.9046555  14.9871559  39.1343842
  39.3655434  15.6238298  38.6650925  40.5808487  15.5137949  39.5605850
  76.0029755  22.7234249   6.9172611  76.1910553  23.6507492   7.0619192
  76.6085892  22.4615383   6.2238088  24.1581211  58.0386887  87.9885635
  24.0428123  57.4701691  88.7499619  23.4440079  57.7969322  87.3987961
  32.8770828  13.7660265  24.9099083  32.4413910  14.6175432  24.8735409
  32.8433342  13.5189886  25.8340645   9.6648893  13.1179209  49.4443932
   8.7656441  13.2717237  49.1546783  10.1994448  13.2944546  48.6702385
  74.4748230  66.6579285  69.9453354  73.7300034  67.2566223  70.0004959
  75.0164413  66.8789902  70.7029724  44.8632164  44.9038849  60.7035332
  44.4395409  44.2279816  60.1744881  44.4485474  44.8302002  61.5630989
   4.4739866  10.4003468  30.1808777   4.5793743   9.5128946  29.8380165
   3.6589866  10.7134867  29.7885113  41.1478920  38.2007141  11.7252722
  41.5567932  38.7040024  12.4293537  40.7021294  38.8568420  11.1895266
   0.6655928  36.3994408   9.4436378   1.5167888  36.2864876   9.0206270
   0.8329985  37.0136299  10.1584673  20.8684349  50.2431870   2.3175859
  19.9446278  50.4065361   2.5076671  20.8861809  50.0241432   1.3859552
  54.0737114  50.2468033   5.8525181  53.4054031  50.6218529   6.4260459
  54.8887520  50.6662483   6.1282220  80.6758423  58.3725052   4.4017711
  80.2091675  59.2013130   4.5090866  80.1506348  57.7371597   4.8883114
  33.8803558  14.4520817  33.9638901  34.3085289  13.6554871  34.2774773
  34.5902634  15.0887661  33.8808365  19.6565914  63.8933716   4.1821136
  19.4746666  62.9536285   4.1780200  20.2435627  64.0204544   4.9274640
  55.8866730   3.4851050  32.0248299  55.4705200   2.7157426  32.4135818
  56.5492439   3.1263866  31.4344425  80.9838562  59.2791405  45.7930336
  81.4083862  59.9843292  45.3044472  81.3263550  59.3643150  46.6827965
  61.0283966  24.7059479  42.9084435  60.2112694  24.2579842  42.6896667
  61.1937866  25.2809448  42.1612778  43.6357231   1.9583149   1.4334619
  44.4209557   2.4966486   1.5326673  43.9421043   1.0611718   1.5657378
  77.3859787  65.3125305  33.5404282  78.0805130  64.8281555  33.9867821
  77.6495438  66.2299194  33.6122246  54.9670410  24.8523502  24.5612164
  54.9483223  23.8958111  24.5309982  54.2062721  25.1231537  24.0472870
  60.4252090  21.9396820  55.9216118  60.6139488  21.4554634  55.1177826
  59.6106415  21.5561485  56.2465973  20.7837677  37.1503563   1.9266500
  20.7926540  36.2003784   2.0436711  19.8735428  37.4023476   2.0822890
  80.9245529  65.8595352  38.7789078  80.4951477  65.0264664  38.9734116
  81.1354599  66.2264786  39.6374588  13.3084049   2.6532464  63.9483566
  13.6881847   3.2858207  64.5581512  12.6461115   3.1507981  63.4687309
  20.3191528  62.1178017  18.4079971  19.6361885  62.3303719  19.0440845
  19.8810902  62.1731834  17.5587234  68.6440353  21.4782219  12.5458279
  69.3700485  21.7810345  13.0912104  68.1155701  22.2617302  12.3939295
  13.2396021  66.3516388  22.6575413  13.9335318  66.5763016  23.2773933
  13.0121794  67.1828918  22.2409840  21.8862953  58.9564285  37.9618454
  21.7177734  59.7849693  37.5131264  22.7490349  59.0710106  38.3603249
  46.3916283  65.3445892  22.4911423  45.9934616  65.3302612  23.3614807
  45.9550858  66.0671234  22.0399132  46.6559601  27.3569031  15.3191671
  45.9792175  27.9673061  15.0264921  46.4275208  27.1640453  16.2284813
  14.7957535  14.0035524  60.5907173  14.4231291  13.4807987  61.3007278
  14.4785423  13.5828409  59.7915878  33.7767105  69.4396820  52.4702911
  33.0598106  69.6103058  53.0811691  33.8190918  68.4852371  52.4113159
   0.1996148   8.5266705  34.7490273   0.7398350   8.8647709  34.0348244
   0.3281490   9.1512289  35.4629135  32.8866119  67.1713867  81.8920059
  33.5171700  67.5606461  81.2861099  32.4731560  67.9203873  82.3212967
  30.5776024  12.7744026  85.2180710  31.3806133  13.2584543  85.4106827
  30.6583538  11.9656372  85.7236557   2.4197214  34.1860123  59.0420227
   1.7267857  33.6101646  59.3652458   2.2164974  34.3081551  58.1146545
  31.6512146  56.5140953  59.6937103  31.3906879  56.3373566  60.5976562
  30.8481522  56.8129158  59.2670593  58.2832870  53.9450912  36.0428009
  58.9945641  54.3664780  35.5603638  58.7236557  53.3342972  36.6337624
  45.9149551  70.2085800  71.7324066  45.7110901  69.3963547  72.1960526
  46.5720634  69.9557419  71.0839386  84.6184082  50.2352867   1.0345935
  84.1596298  49.4210739   0.8276673  84.5341187  50.3230591   1.9840267
  59.0837784  61.4144630  35.5040398  59.7612953  61.4365463  34.8282318
  58.2644958  61.5433540  35.0261383  15.2645168  24.7448635  46.9952240
  14.7238522  23.9592800  47.0775223  15.0004215  25.1309681  46.1601143
  43.5428162  15.3743944  42.6869278  44.3179855  14.8943205  42.9782524
  43.7648315  15.6758404  41.8059769   9.9831181   5.6747789  48.7582588
   9.9130249   6.1721983  49.5730553   9.7212353   6.2936106  48.0765724
   9.4905462   4.2400117  73.9235840  10.1790476   4.6508961  73.4007339
   9.8017988   4.3089857  74.8261337  24.5824814   9.6755199  22.8796120
  24.7381363  10.3564100  23.5341301  25.0461941   8.9089193  23.2165489
  13.5859375  66.7494431  46.4168816  13.3545904  66.6097717  47.3351402
  12.7770452  67.0609283  46.0107994  44.9325829  33.5019798  86.2828369
  44.2431488  33.5405731  85.6199493  45.6999512  33.8791199  85.8525467
  36.4826164  24.4280930  17.7778645  35.7366714  24.9181595  17.4319839
  37.1384506  25.0971012  17.9741821  43.4946518  54.2793465  70.3437958
  43.0849037  54.5044937  69.5085449  44.4291687  54.2226715  70.1445465
  76.8044434  52.8911781  27.5428944  76.7606430  52.2229843  26.8589153
  76.0107574  53.4119682  27.4201336  54.5478592  34.4990425  83.9037399
  54.9607010  33.6905403  83.6002274  53.6133957  34.2939339  83.9343872
  22.8703175  11.1267958  27.7230778  23.8012028  10.9318438  27.6150055
  22.7425976  11.9521627  27.2554359  86.4159927  37.7066193  87.0526810
  85.9769974  37.4929314  86.2293625  86.5941238  36.8572922  87.4565964
  83.5828094  40.8970490   3.6401372  82.8968506  41.4436722   3.2568710
  83.7890930  41.3206940   4.4733272  12.0183277  57.3527565  24.0507259
  12.7067204  56.7640419  23.7412701  11.2844057  57.1963615  23.4564781
  57.2539864  11.0067663  22.7711010  57.3117256  11.6994181  23.4292297
  57.0017166  11.4607677  21.9670639  19.7549934  48.3145599   5.3655734
  19.8181152  47.4578819   4.9432554  20.4550190  48.3119278   6.0184059
  46.4301224  47.1259804  18.0691528  46.0929794  47.8916054  17.6039810
  47.3373528  47.3512077  18.2751694  47.8887672  25.1792965  14.1407890
  47.5152245  25.9823818  14.5037661  47.9231644  25.3363113  13.1971817
  58.0409851  39.9151878  69.2956238  58.2102051  40.2402000  68.4113388
  58.8518181  40.0887070  69.7738190  27.3753605  65.0200195  12.4428205
  27.1403675  65.0125427  11.5149441  27.8108501  64.1798019  12.5863829
  62.1711578  40.8399429  19.4363003  61.2565536  40.6503258  19.2270603
  62.2832260  40.5204697  20.3316269  56.6055260  66.6789932   2.4774261
  57.0131645  65.9316788   2.0397208  56.7340050  66.5092621   3.4106543
  85.2708893  52.2045326  59.5836105  85.5668945  52.6230469  60.3919792
  85.7390289  52.6675606  58.8888550   8.3398590  49.1833687  85.2840881
   7.6965432  48.5422859  84.9817886   9.0354147  48.6570816  85.6783752
   7.1237059  18.5033665   6.9717846   7.3029146  19.3684750   6.6034055
   7.3844490  17.8912964   6.2835865   1.7891504   8.0305977  72.6350021
   1.0230008   8.5832129  72.4805222   2.4863696   8.4388914  72.1217651
  48.4392738   1.7277070  51.6510582  49.0362930   2.3575294  51.2471733
  47.7426834   1.6098551  51.0052261  12.1718893   9.0807800   5.3581839
  13.1150599   8.9295874   5.2965136  11.9443407   8.8142996   6.2489371
  36.9689140  10.2707767  31.9304829  36.8171196  11.1386538  32.3046188
  37.6818390   9.9054432  32.4544144  81.4530411  59.7431183   0.1035154
  80.7120743  59.2248039  -0.2104194  81.1343994  60.1542664   0.9070434
  73.0334244  34.6134453  51.3254471  73.5373306  34.5039902  50.5190163
  72.9842987  35.5611801  51.4504051  59.8762856  66.4934311   3.7348065
  59.9369354  66.4910660   2.7795329  60.5346069  65.8589554   4.0181665
  64.8512726  22.9301014  21.9764366  65.0221405  22.4870892  21.1453075
  64.7153320  22.2194557  22.6031246  24.3316498   7.3729911  77.3022079
  24.1749535   8.3143969  77.2284927  23.7238960   7.0815187  77.9818497
  82.0456390  51.3997879  66.7129135  82.2900696  51.3296242  67.6357117
  81.4282303  52.1306648  66.6835785  78.5681915  30.8202305  40.9950714
  78.8892441  30.0284977  40.5634270  79.2652588  31.0594578  41.6058884
  62.3787689  14.3462791  49.1759834  62.0682793  13.5043631  49.5091591
  63.3290863  14.3113050  49.2851067  17.2872524   2.8620107  71.1891861
  17.9618225   3.3084292  71.7009430  17.7713394   2.2413027  70.6445618
  35.2255363   6.3385701  36.0668526  34.7674141   6.4345355  35.2319031
  34.8127327   5.5806389  36.4808159   3.5503237  49.5002060  82.7598801
   3.1061637  48.6551933  82.8298950   2.9239905  50.0630150  82.3047028
   4.3791919   7.3730674   1.9032302   4.5503826   8.0154676   2.5918872
   3.4470131   7.4721003   1.7096665  10.3024025  11.8158655  73.1519852
   9.7918005  11.6356201  72.3626633   9.7174168  12.3371086  73.7018280
  86.4272156  57.3371811  38.6343803  87.3659744  57.4015160  38.8099556
  86.0269699  57.9610596  39.2400284  84.5847244  35.8675957  33.5149765
  83.8415070  36.3304863  33.1281929  85.2754288  35.9300461  32.8552399
  63.1410866  18.3765907  38.2221336  62.7118759  18.7304401  37.4431572
  63.4927902  17.5324936  37.9392281  68.5276642  55.8403130  32.9824295
  68.4393997  55.0846558  32.4015503  68.7583008  55.4638863  33.8317490
  81.0952530  38.0991096  35.8375816  80.7811203  37.4599419  36.4771271
  80.6064911  38.8975830  36.0370331  49.2476616  29.2199783  16.3484783
  48.9088936  29.2371655  17.2435608  48.7361794  28.5388298  15.9118395
  83.3550339   0.5231494  69.4218750  83.0428467  -0.2449747  68.9435883
  84.2726974   0.3294981  69.6132431  24.1493435  46.0106163  13.7990599
  24.8280659  46.2210922  13.1577597  24.6120644  45.5385132  14.4913321
  64.1042328  70.9140778  25.4049301  63.5207100  70.9873581  26.1601543
  63.8187447  70.1171570  24.9581089  25.1933060  13.4816790  50.9584351
  24.9705029  13.6245461  50.0385551  25.3566551  12.5406609  51.0219498
  10.3648529   9.8736439  24.0730400   9.4928570  10.0869179  24.4052601
  10.6691208  10.6828337  23.6621094  27.0999870  55.6837730   0.6562341
  26.3901100  55.0476646   0.7438371  27.8902111  55.1935616   0.8831128
  11.6963024  46.4467773  40.3754883  11.3249989  45.7445297  40.9095421
  12.3253183  46.8796463  40.9527206  37.9013481  13.8067522  22.5407085
  38.3434982  14.0897703  23.3411064  36.9903755  13.6758337  22.8038025
   8.6852665  12.5086222  36.8257446   8.5892916  12.1297808  35.9519577
   8.0188398  12.0675240  37.3525620  75.8788452  35.5708961  35.3065529
  76.5744324  35.9978027  35.8067017  75.4719467  34.9679375  35.9287300
   4.6830845  68.5854416  27.5785637   5.6112180  68.4655838  27.7796421
   4.5073256  69.5010300  27.7954502  66.0460205  69.7896652  50.5260391
  65.4626694  69.2961044  51.1025200  66.4834747  70.4136658  51.1052551
  73.5317688  21.7020702   7.4157319  74.2342377  22.3205547   7.2151189
  73.5417557  21.6296120   8.3701334   4.1512613  17.8180923   4.2118921
   3.7713797  17.7007751   5.0826149   3.4020844  17.7836514   3.6170990
  23.6667290  33.6355591  10.3156004  22.8601627  33.7535934   9.8138533
  23.4008846  33.7533112  11.2275734  18.8548145  37.8706245  20.5062103
  19.2399426  37.0208511  20.2922249  18.9998493  38.4030876  19.7241096
  20.2476158  37.4441566   5.7538853  19.7031879  37.2029610   5.0044494
  19.8387737  37.0032997   6.4986839  68.3066711  67.8481750  69.6349792
  68.8379898  67.0562592  69.5525208  67.6167755  67.6103058  70.2544098
  48.1683044  61.1493340  39.4743652  48.7253227  60.4744606  39.0864143
  48.7698212  61.6931267  39.9829941  24.4963455  49.1551132   5.0496550
  24.4987812  49.3235664   5.9919124  23.6649666  49.5176353   4.7436833
  66.4682083  65.9809647  23.8134384  66.6179886  65.0719452  23.5536709
  67.2809525  66.4322586  23.5853596  25.9044590  21.7365551   9.7665272
  25.0895290  21.7096138   9.2651358  26.1187916  20.8171864   9.9248104
  12.9550467  37.4428711  85.4743881  12.7453489  38.3396606  85.7352142
  13.9114466  37.4201241  85.4425354  33.2835693  53.2325096  73.8750992
  33.1515007  53.9030762  74.5452728  33.4904747  53.7251091  73.0808868
  63.5587502  52.9030609   2.3326552  63.6427307  53.7872620   1.9757627
  64.0100250  52.3451958   1.6991194  76.0443115  63.3017693   5.7198195
  76.3597412  64.2018280   5.8012714  75.7442551  63.2342377   4.8133769
   0.8133081  32.4561310  80.7115784   1.1028599  31.6146870  81.0642319
   1.5922242  32.8203850  80.2910538  30.4309940  13.3087044  80.3739319
  29.8205986  12.5901976  80.2084122  30.0710030  13.7573576  81.1390152
  65.5382462  43.9167328  43.2239227  65.6433487  43.6253319  44.1296082
  65.9950104  43.2548180  42.7048149  86.1087036   4.4566636  51.9503365
  85.3033752   4.1197891  51.5576706  86.0818863   4.1463223  52.8554344
  75.3582916   2.9643092  11.7248211  75.7775955   2.3279715  12.3040380
  74.7872086   2.4385202  11.1647787   8.9020023  55.6112175  72.3320312
   8.7426624  54.9778099  71.6322937   8.3441429  55.3177223  73.0523758
  68.4591827   1.3641709  25.2723217  67.6004791   1.2360131  24.8692913
  68.4497528   0.7953692  26.0421314   3.2117612  44.3699875  76.8948593
   3.0615392  44.7880325  77.7427444   2.3544071  44.0283051  76.6410294
   7.6621475  68.3191376  66.1244049   8.0172596  67.5000381  65.7791595
   6.9048376  68.5047302  65.5691833  79.0758514  22.7740154  87.8850479
  79.6555557  22.0655136  88.1646957  78.9189072  23.2830753  88.6803207
  19.4881306  70.1431198  64.2309265  20.4099903  70.3740311  64.1165390
  19.0829010  70.9388351  64.5756760  56.0615005  35.4294052  74.3363266
  56.1347389  35.5542526  75.2825165  55.7492676  36.2721863  74.0069885
   9.6163731  51.6124573  47.0039330   9.9769201  52.3518143  46.5144501
   9.3950291  51.9775047  47.8606606  45.2556305  49.7449760  25.3502369
  44.5020370  49.5958824  25.9212894  45.9825287  49.3079338  25.7939110
  66.6302490  40.1386833  32.0229721  65.7918549  39.7256660  31.8162327
  66.9844666  39.6149864  32.7416573  19.0363274  54.4158859  23.7195778
  18.1011009  54.5260696  23.8911629  19.4665260  54.7870712  24.4898911
  44.8446732  21.3387527   9.4960489  44.3402786  20.7308502   8.9554243
  44.2014923  21.9791431   9.8001060  64.7109680  66.1145859  50.0270882
  65.3347855  66.7676620  50.3442192  64.4049911  65.6715088  50.8184776
  75.3721695  30.8928566   5.4329948  75.1573257  31.2924271   4.5901332
  74.6055984  30.3617210   5.6486087  28.5201454  66.0699081  43.5713501
  29.4760056  66.0589523  43.6207695  28.2690792  65.1463013  43.5835609
  29.6062660  12.2725906  25.4148502  29.8283176  12.1942024  26.3426323
  29.9327087  11.4634275  25.0212479  63.2860680  15.0095129  25.0590706
  62.9783096  14.1245508  24.8632202  62.5006447  15.5538712  25.0041676
  10.7490091  17.3801746  40.7576141  11.5567770  17.8694992  40.6017189
  11.0171738  16.6442719  41.3078575  29.5370464   7.3508468  10.7515879
  30.0563698   8.1495733  10.6590023  30.0069294   6.8341813  11.4061871
  55.6727753  64.7945709   7.7967529  56.1389160  64.3018265   8.4721375
  56.3646240  65.1474152   7.2372174  66.3691330  10.5002508  84.1098022
  65.5039368  10.5137615  83.7005539  66.6336823   9.5808058  84.0803604
  70.2339325  36.3236542  51.3498726  70.2679825  36.8222160  50.5334740
  70.0378876  35.4278336  51.0754509  57.3109055  10.1857929  65.3115082
  56.5542679   9.9328890  65.8404465  58.0457001  10.1767988  65.9248886
  46.4531479  64.0159225  78.3742371  45.8759308  63.2828484  78.5878906
  45.8582993  64.7347488  78.1605072  23.3222332   9.0569267  74.3408356
  22.7397099   8.7146759  75.0188904  24.1696415   9.1477699  74.7765884
  42.3594856  34.3958626  84.9839478  42.2811356  33.9384613  84.1467667
  42.5018196  35.3115501  84.7441864  12.1331320   4.4093528  42.5216942
  11.8014727   4.3612409  43.4183121  11.5956450   3.7854881  42.0337067
  77.7728882  13.9570389  23.8210506  78.2599716  14.3254442  24.5581112
  76.8702011  13.9010782  24.1345119  80.6910706  28.6640701   3.7861164
  81.3664703  29.0915852   3.2595322  79.8841782  29.1284389   3.5635710
  79.2491684  60.5641251  81.2913589  79.9327621  61.2341461  81.2898178
  78.6977692  60.7862549  82.0415878  25.8576946  69.5610886  40.2954025
  26.1618576  70.4195938  40.0009727  25.6206608  69.6928482  41.2133789
  11.4551868  59.8944855  87.4069290  11.5609550  59.2819786  86.6790009
  10.5086346  59.9490547  87.5384293  12.7940226   4.3784919  38.0234947
  11.9390192   3.9521327  38.0819664  13.0829458   4.4614453  38.9322701
  31.5345879  16.6529236   8.2741480  32.4495735  16.6742210   7.9938273
  31.4960747  15.9403925   8.9121513  53.4891281  65.0942917  59.2152672
  53.5662613  64.1454544  59.1152916  54.2424927  65.4470520  58.7417374
  69.7179413  47.3059349  21.3888626  69.9024811  47.8257523  22.1711445
  69.8966980  47.8992996  20.6593437  84.2835846  30.8440285  54.8356972
  84.4325562  29.9057674  54.7186241  83.3802414  30.9062157  55.1460800
  62.0872498  27.8464947   0.5829338  62.2756691  27.0341415   0.1130282
  62.9440079  28.2540607   0.7097729   0.2585856  65.6604919  28.5934296
  -0.0642038  64.8425751  28.9716434   0.6278957  66.1384201  29.3360100
  29.8866882  22.6291733  23.1221218  30.1692429  21.8519611  22.6401100
  29.6115856  23.2452316  22.4431343   7.4194231  27.7225609   7.1309361
   6.8243794  28.4105339   6.8328629   8.1834478  28.1940002   7.4629679
  35.3881798  16.2949142  22.2768517  35.2417793  16.7318192  23.1158466
  35.5293503  15.3764591  22.5065117  22.7191353  46.0525055  82.9850845
  21.8129768  46.1403580  82.6894608  23.0578251  46.9477768  82.9884872
  18.1086884  51.3673172   2.0998940  18.0554237  51.0883217   3.0139818
  17.4250164  52.0314636   2.0119572  37.5262413   4.8469648  72.3306503
  38.2254906   4.2503300  72.0636063  36.8863373   4.7991524  71.6203918
  25.3814335  55.8743973  33.1542664  25.8778229  55.1229134  32.8300743
  24.4726009  55.5741882  33.1657639  29.5482655  57.7119827  58.1633797
  29.9434948  58.4682083  58.5971413  28.6529961  57.9887276  57.9680977
  69.1074524  13.9048052  75.9354477  69.6043243  13.5386877  76.6670990
  68.4021072  13.2752028  75.7860489  15.5392065  17.0959358  51.8838043
  15.2378883  16.7521439  51.0428238  14.9613428  17.8384228  52.0599327
  20.9601116  42.4659958  59.3549194  21.5624561  42.1901894  58.6640167
  21.1858997  41.9142952  60.1038361  16.9277954  60.4246788  75.8731308
  16.6183147  59.8113823  75.2065506  16.9723568  61.2672653  75.4211349
  23.9153976  66.3835068  81.4271927  24.4370270  65.9032898  82.0702515
  23.0338020  66.0211945  81.5152359  28.9181576  62.0992737  77.1212463
  29.2730103  61.6719627  77.9008102  29.6779919  62.2332840  76.5547409
  72.6755981  27.2290497  30.9912014  72.0908813  27.3876724  30.2501316
  72.4894562  26.3278046  31.2545242  34.6954918  27.4629593  15.6783075
  34.3541718  26.9526424  14.9439325  34.5447960  28.3742752  15.4272575
  67.1334686  53.8684769  21.7824135  67.1228714  52.9836845  22.1474609
  66.5292130  53.8289757  21.0410976  67.4672318  21.8571014  25.8991756
  66.9022675  21.2730370  26.4050579  68.2454910  21.3329372  25.7099628
  83.2035217  64.9142227  75.7260742  83.3638763  65.3837967  76.5446243
  83.8702087  64.2275848  75.7092896  16.2337399  65.1467667  51.7298279
  16.0181007  65.6033173  50.9166298  17.0876045  64.7482224  51.5615730
  72.2034302  20.6087189  67.7876053  71.5769348  21.1446209  67.3012466
  73.0414429  20.7657051  67.3524933  31.2800465  47.8468857   6.0857110
  31.8818188  48.4370422   5.6320395  31.8344975  47.1301918   6.3942003
  67.9252930  24.4074802  45.0532913  67.0335464  24.7312775  45.1804810
  68.1839142  24.7480621  44.1969299  67.6676331  22.2777462  22.8496017
  67.4337692  23.0403233  22.3204365  67.1057053  22.3407116  23.6219349
  82.9584045  53.4124565  40.6263275  82.7062759  53.0540314  39.7753296
  83.7056274  53.9794502  40.4355392  62.3691788   5.5211678   8.1526213
  61.7825928   6.1501069   7.7324009  62.0231056   5.4268208   9.0400696
  30.4971809  71.0987320  17.3099728  29.7656975  70.5084915  17.4910240
  31.2544403  70.6714706  17.7102718  13.5965605  35.3697777  69.1906586
  14.4590616  35.1053238  69.5106430  13.4864664  36.2650833  69.5108871
  69.0496445   0.5387772  80.5468292  69.3688049   1.4342940  80.6582489
  69.1331863   0.3697607  79.6083755  38.3599167  12.3236418   3.3379657
  38.7951202  11.5879879   2.9071045  37.4317932  12.2041349   3.1366313
  66.1303711   8.6329803  55.9902153  66.6787262   9.1800127  56.5526085
  66.7520370   8.1551380  55.4411964  52.2544441  42.0763550  11.0291090
  52.1533966  42.0194778  11.9792595  51.9907150  41.2139931  10.7081518
  15.0487785  69.9929886  58.8138657  14.2072754  69.5791245  58.6219788
  15.6590147  69.5935974  58.1939240  71.5814972  40.4965858  23.1915607
  72.1046677  41.1151848  23.7013302  71.1029968  41.0438347  22.5688343
  29.6956539   9.1566162   3.9550009  29.1693649   8.5475931   3.4369822
  29.1445732   9.3684082   4.7084513  69.3881531   6.2485242  86.6377563
  70.0689545   6.1128516  87.2968063  69.7223053   5.8111076  85.8546600
  52.5899048  70.8871689  49.6196365  52.4335251  71.7838440  49.3233986
  51.8700104  70.3813782  49.2425995  35.6339188  62.6492043  57.3744431
  36.3479614  62.0499420  57.1570473  35.1973801  62.2404861  58.1218491
  83.0997696   9.9324474  10.9656649  83.0612564  10.8875189  10.9147882
  83.6254807   9.7551508  11.7456789  65.3168945  17.6159439  49.0889244
  65.8817520  17.4654617  48.3309517  65.6260529  16.9919701  49.7456627
  82.2600403   2.7372000  10.4256754  82.3822327   1.9565556   9.8854027
  82.3712616   3.4686289   9.8183270  67.8892593  57.8675423  25.1580944
  67.6942444  56.9825668  24.8498497  68.8374634  57.8720856  25.2889252
  59.1230888  52.4084473  85.5252457  58.4111824  51.7714157  85.4651260
  59.2277832  52.7356491  84.6318207   6.4376516  58.1477242  23.8253078
   6.6340442  58.9813309  24.2528114   5.9622655  57.6453514  24.4870186
   9.2927876  58.3408279  19.4436550   8.4911518  57.8959923  19.7188587
   9.4709482  58.9684639  20.1440582  76.0578690  49.1455498   8.3526726
  75.8893661  48.6978111   7.5235949  76.0573730  50.0757561   8.1269474
  70.0231705  57.2144737  56.8590927  70.3335037  56.4501686  56.3735352
  70.3719254  57.9632797  56.3754692  19.6326771  48.5853348   9.5350790
  19.5164127  49.2785988   8.8853903  18.9866695  47.9211235   9.2948008
   6.2713451  13.2232618  62.3062325   5.8507009  12.4710302  61.8897743
   7.1816998  12.9527464  62.4258499  44.2485657   9.9682856  25.4464302
  43.5629234  10.5947218  25.6781731  44.5133820   9.5831366  26.2817535
  57.1944160  37.0535622  26.3524799  56.4610748  36.4764519  26.5655212
  56.8698502  37.5986481  25.6357021  31.3652401  14.1126099  66.6977921
  31.8240356  13.9017591  67.5109863  31.1644650  13.2615252  66.3084641
   5.3817616  26.5805779  12.6675844   4.5107312  26.7880058  12.3291883
   5.9838152  26.9449730  12.0187550  34.3540688  20.6384163  39.6656418
  33.4736710  20.6881237  39.2932663  34.7058525  21.5232258  39.5677109
  50.2831688  58.5332336  69.4679260  49.4586525  58.0858498  69.2775116
  50.9259644  58.1000557  68.9063187  28.7662048  13.5632114  18.2169952
  29.0817776  12.6964779  18.4727669  29.5620823  14.0770035  18.0797749
  62.9905243  47.1425629  49.3797531  62.7476654  46.8287201  48.5086861
  63.5035782  47.9336510  49.2148781  53.8210182  65.0463715  47.6712761
  52.9389763  64.7939301  47.3983269  53.8505592  65.9939728  47.5393486
  69.5559692   2.0002372  72.9969254  69.3842850   2.4858987  72.1901474
  69.1997452   2.5550199  73.6908646  57.6849480  44.2023697  29.7151928
  58.4382744  43.8241615  29.2616673  57.5747719  43.6559715  30.4933567
  66.6532364  38.8089790  36.7286873  67.1915512  38.5369301  37.4719467
  67.2644958  39.2506676  36.1391907  46.3388939   9.8296566  68.3590088
  46.4969978  10.7717056  68.2975311  46.7831459   9.5642824  69.1642685
  31.5495014  54.3457718  13.4816017  32.0557785  54.7956810  12.8052168
  31.1037121  53.6380692  13.0161352  12.5407219  17.9217625  54.3745422
  11.6681929  17.6111031  54.1328506  13.0863352  17.1353588  54.3642044
  82.0180740  58.7761765  11.3866301  82.9684067  58.7918129  11.2732487
  81.8802032  59.0558167  12.2916298  22.8948860   6.3284640  66.7478561
  23.4221783   5.8270144  67.3697433  23.0021324   7.2391071  67.0225525
   5.5689745   4.7650099  84.6220932   5.4609284   5.2554612  85.4369659
   4.6758242   4.6180072  84.3107986   5.8562841  17.4248962   1.2180196
   5.0323639  17.6970634   1.6221379   6.0870728  16.6124287   1.6684268
  73.1558228  19.9223709  79.0040512  73.0404892  19.0373592  79.3499985
  72.9553528  19.8429947  78.0714493  77.2759094  28.8745670   0.9651504
  77.3702850  29.8269768   0.9496052  77.6106491  28.6146908   1.8234324
  79.4563675  33.5080872   5.6536503  79.5018692  34.4551697   5.5225296
  78.5200043  33.3197517   5.7168417   3.3952134  25.2949505  74.0988159
   4.1045003  25.9268208  74.2166519   2.6810017  25.8050747  73.7168350
  47.9585342  47.0117569  87.7221298  48.1378670  47.5993881  86.9881287
  48.0677910  47.5593681  88.4995728  84.3249435  13.5779867  74.5099792
  83.7436981  14.0866308  75.0753708  83.7831955  12.8519955  74.2006683
  62.7821846  58.8675499  83.9881363  63.1950912  58.0141602  83.8559875
  63.4248619  59.3695488  84.4893265  84.2145233  23.6098843  69.8145905
  85.1240311  23.8765545  69.9484177  83.7343750  24.0294914  70.5284653
   8.0780926   0.9212200  44.4504623   8.7688675   1.1104994  45.0854683
   7.2637124   1.0613199  44.9335632  50.7006187  57.9543762  26.8219948
  50.0689850  58.1893234  26.1422348  51.3158607  57.3660851  26.3842468
  14.6665840  59.9341583  77.8389359  15.2244854  60.4008141  77.2166748
  15.1563387  59.9537010  78.6611252   6.1210666   7.2105007  74.3067780
   6.2578635   6.2638235  74.3431168   6.2769079   7.5095816  75.2025986
  28.7186184   5.0085902  82.7032013  29.2313557   5.7099395  83.1049957
  29.3498478   4.3040509  82.5568924  57.4530716  50.5111732  84.5970764
  56.5582733  50.1849442  84.5014801  58.0037575  49.7362862  84.4851608
  26.6163845  69.6095352  60.2143822  26.9019337  70.3057861  59.6228333
  27.2398052  68.8985062  60.0659981  78.0339584  46.5326233  86.3744125
  78.9081726  46.7107620  86.7211838  77.6983948  47.3916168  86.1179733
   7.4101100  66.5917969  77.2628479   7.5746555  67.4178391  77.7176132
   6.8575892  66.8335342  76.5195312   3.8528924  40.9465027  87.7177048
   4.2544975  40.7227859  88.5572891   2.9129069  40.9601440  87.8979111
  16.3838997  65.6746292  14.0206766  17.1760159  65.4419937  14.5050955
  15.6804752  65.2108383  14.4749041  26.1610451   4.5487857  21.6581478
  26.5085640   5.1479239  20.9974709  25.3654537   4.9766541  21.9746857
  42.4139442  50.6493111  36.3700638  42.7774849  50.6267929  37.2552528
  42.7849998  49.8793640  35.9390945  27.6131248  69.7592773  46.8458519
  27.9663811  69.4717026  47.6877213  28.2846775  69.5159760  46.2086296
  61.3105049  11.7907391  55.4431801  60.7298241  11.9242229  56.1923332
  61.7075539  10.9335785  55.5976448  31.8314018  47.0883064   9.4338741
  32.3616905  47.8813400   9.3556261  30.9806156  47.3321457   9.0692692
  44.5005989  21.8928013  18.0913944  43.8128815  22.4919605  18.3817158
  44.0412521  21.0746250  17.9021416  11.2489138  22.1644669  69.1422119
  10.8785925  22.8610592  68.6001282  12.0768089  21.9434948  68.7156067
  43.1233711  64.2310028  42.7768326  42.4824677  63.6307907  43.1579132
  43.3952789  63.8061256  41.9633369  71.5894394  49.8078690  72.7196426
  71.8884506  50.6309662  72.3332062  71.4331894  50.0183182  73.6402588
  16.3304176   5.8937445  25.4548416  15.6889839   5.5608864  24.8271484
  15.8982077   6.6432600  25.8642960   8.8107777  56.6460342  88.5929718
   9.7408352  56.5535202  88.3864136   8.3718567  56.6090355  87.7431412
   5.1222734  42.2863045  74.2095642   4.4034319  42.0196266  73.6365128
   5.0794511  41.6772766  74.9467773  76.5879135  26.3844280  84.4479752
  77.3121414  26.2911720  85.0668640  77.0038147  26.3547325  83.5863647
  36.6142235  51.5844040  80.9598846  37.0359116  52.4436188  80.9470367
  37.3117828  50.9789886  81.2111130  12.0293608  36.8380508  77.0851288
  12.6572485  36.7214890  77.7981567  11.8814421  37.7830353  77.0483398
  45.9524651  30.9484043  18.3290176  46.8185081  30.7073441  18.6577892
  46.1288490  31.4348240  17.5237122  14.6321478  66.7503510  62.7044983
  15.0860996  67.2517395  62.0271721  13.7119980  66.9957886  62.6079636
   7.8238454  12.2382793  85.9047470   8.4684505  12.6548557  86.4767456
   7.0892553  12.0313396  86.4824905  34.0682526  54.9683418   4.4526734
  34.5273895  55.7765427   4.6812196  33.2317924  55.0293999   4.9140210
  64.0403442  41.1325531  40.0633278  64.0332642  40.1802750  39.9666252
  64.2463837  41.2779999  40.9867058  56.4861221  71.6847000  61.8058243
  56.4535027  71.9827423  62.7148552  56.6200752  70.7389908  61.8684959
  75.7321396  45.9515343  83.6930084  76.2020645  45.1187286  83.6502304
  76.0091553  46.4234734  82.9076614  80.5610504  52.4434891  69.8626785
  80.6738892  53.2514076  69.3619080  81.3442230  51.9290886  69.6670532
  26.1954098  66.6364288  37.6695938  26.4109192  66.9504852  38.5477486
  26.8926964  66.0152054  37.4595718  24.2245255  57.3406754  47.1496544
  23.7289257  57.3487968  47.9685211  23.5990829  57.0317268  46.4942131
  65.1856766  19.8037357  66.0593567  64.4342346  19.3585663  65.6677094
  65.8750076  19.7364063  65.3986511  39.8539429  41.4018402   0.8574434
  39.2989349  41.9641151   0.3170342  40.3283768  40.8580360   0.2286184
  37.4756889  63.4412727   5.3673391  36.5404701  63.2735901   5.4834442
  37.5551643  63.7373810   4.4605675  10.3479671  31.3408146  44.2209358
   9.4328279  31.3087807  43.9421425  10.6813679  32.1599579  43.8547630
  73.2689590  18.3839207  20.4588776  73.0917892  18.8086758  19.6195755
  72.4067764  18.2801189  20.8614998  86.2238617  41.9194641  68.3549881
  85.6844940  41.2004585  68.0258331  86.5923080  42.3219566  67.5685501
  78.9561386  69.5545273  45.5453033  78.9154663  70.1992569  46.2516365
  79.5698776  68.8914413  45.8613243  52.7772484   2.0714417  10.9665270
  53.0527153   2.9875171  10.9325142  53.5953255   1.5746641  10.9526014
  66.5890961  21.1189384  75.9664459  66.6668243  20.2883167  76.4357605
  65.8241501  21.0047169  75.4024887  51.7049179  11.6361704  29.9408913
  51.7555389  11.4570932  29.0019550  50.7701492  11.7492075  30.1131096
  12.1471539  58.5514565  61.2992554  11.8368578  57.6583176  61.1500854
  11.4009352  59.1056023  61.0705338  60.2942085  46.0508614  22.9461021
  60.3526077  46.1090202  21.9924564  61.1806755  46.2420731  23.2524509
  56.3129768  30.1355438  24.2088699  56.0744667  29.4689598  24.8530827
  57.1162453  29.8041039  23.8074455  78.3969345  25.3249626  55.7253799
  78.9218674  25.2140274  56.5180779  78.8409424  26.0198669  55.2393837
  55.4165382  53.6156349  45.9698868  54.8456116  52.8901672  45.7169647
  56.3009758  53.2529602  45.9201469  40.2723732  30.9620476   8.0671272
  40.8501244  30.2110691   8.2030296  40.8583488  31.7189140   8.0714293
   3.9092650  15.4317265  45.2939644   3.9995890  14.5733767  44.8800697
   2.9762783  15.5034561  45.4955139  23.3288994   0.8970966  15.5282965
  23.4759979   1.7885557  15.8443565  23.3243179   0.3598177  16.3204727
  83.4037628   6.2081814  18.1755238  83.1778412   6.3959665  17.2645206
  83.9603653   6.9405866  18.4401188  28.1787491  33.7738152   7.9254422
  28.3057556  33.7084122   6.9789624  27.2328148  33.8721352   8.0339403
  48.9226036   6.0317626  52.8529968  48.6930084   5.3060532  53.4333954
  49.2166748   6.7261510  53.4425545  30.3587265   4.1809106  26.0222702
  30.7650108   3.3143477  26.0069733  30.5808754   4.5646029  25.1739426
   2.9502168   9.8859987  88.3981552   3.0868418  10.5428476  89.0808792
   2.0465515   9.5958357  88.5223618  41.7275238   5.2514524   5.6827893
  42.3992767   5.0015125   5.0483546  41.5140228   6.1578035   5.4610295
  17.4078808   7.0510101  80.2109680  17.7325592   6.2210646  80.5602570
  18.1963482   7.5227857  79.9426804  39.7689819  14.8554859  24.3367310
  39.8215408  14.8209000  25.2918606  40.4609871  15.4652443  24.0806999
  34.0207443  55.5209541  64.2565918  33.7915878  54.6103592  64.0707550
  33.1800346  55.9542046  64.4040298  66.3056259   1.1789725   2.7521837
  66.3356400   2.1112132   2.9672611  65.8404999   1.1408349   1.9164597
  44.6824341   8.4422131  86.7682648  44.2329292   8.5113163  85.9260101
  45.0404129   9.3166876  86.9211578  82.5817871  49.0081444  74.5019302
  82.9201889  48.1476822  74.2542953  82.8566895  49.5872650  73.7910919
   5.2710624  54.4876747   2.4520402   4.4410434  54.9227371   2.6470244
   5.7027059  54.4031868   3.3022037  15.4126263   4.3803730  74.7989426
  16.0760975   5.0128031  75.0747528  14.5980425   4.8825188  74.7758102
  23.1593208  23.1412468  79.8528748  23.0391560  22.3653336  80.4003677
  22.7128735  23.8416080  80.3286972  33.3860893  61.0652313  40.0406113
  32.4569168  60.8551254  40.1340256  33.5497246  61.0140457  39.0988922
  53.3078079  56.8694153  64.8041153  52.9252930  56.0968552  64.3880997
  54.1308136  57.0106468  64.3362045  66.9854279   4.4244623  18.8194370
  67.3001175   3.6129396  19.2177277  66.9543152   5.0501165  19.5431919
  35.9133606  56.8985367  81.9948349  35.4946098  56.1670570  82.4485016
  35.1944504  57.4963150  81.7897491  10.0093441   2.8046494  18.9464340
   9.6716337   3.4688709  19.5472622   9.2270489   2.3781869  18.5966110
  85.8824539  28.7158051  32.8498688  85.6351471  29.5734901  32.5042572
  86.4451447  28.9125385  33.5988045  86.3865204  33.7790337   3.4782965
  85.8434296  33.2402229   2.9030011  85.8108215  34.0046272   4.2089901
  28.0520935  12.0183372  31.7251453  28.3085155  11.2194347  32.1858330
  27.3716259  12.4047728  32.2763824  38.7425346  35.3840790  15.0354166
  39.3950691  34.6856995  15.0873260  38.9597664  35.8555527  14.2312050
  58.4171333  21.6706772  11.7675104  57.5179443  21.6005974  12.0880995
  58.9170799  21.9810295  12.5224743  75.7027130  65.9010773  23.5052261
  76.0966873  66.7238617  23.2153320  75.8291245  65.8962021  24.4540291
  34.2124596  46.6683617   4.5948424  35.1148300  46.4520950   4.8297668
  33.8749542  45.8728981   4.1830645  50.1994324  37.4580154  18.3630486
  51.0267754  37.3237267  18.8253250  49.8933907  36.5745049  18.1581783
  56.9872208  42.9081841  17.3500690  57.7389336  43.3178978  16.9219341
  57.2869415  42.0253792  17.5669823  66.7692108  39.5829086  41.0039101
  66.5115204  40.1917076  41.6961441  65.9502563  39.1683884  40.7324066
  55.1530113  19.9053097  82.2539825  54.8807678  19.8896961  81.3364487
  55.3846397  20.8191814  82.4195709  47.6892586  64.9418716  28.4515438
  48.5330124  64.9778595  28.0009766  47.7791939  64.2176590  29.0709457
   0.9131197  24.6698895  42.2801323   0.5592418  25.1454296  41.5285568
   1.0640491  23.7830772  41.9529991  18.6711445  57.2912178  66.9756317
  18.8627701  57.5026360  66.0619431  19.5303841  57.2344322  67.3936157
   8.9753675  21.7181492  31.0847263   8.8901472  21.2177238  30.2732182
   9.9175835  21.7460003  31.2511158  24.8477249   2.8390219  80.1674881
  24.9604225   2.3682709  80.9932785  24.7650318   3.7573190  80.4246368
  30.1914043  59.5214882  56.0880394  30.4249573  58.5959053  56.0174751
  29.2640171  59.5171051  56.3250313   7.5902758  46.7792130  83.9349594
   7.2658567  47.4490013  83.3329926   8.4976454  46.6350479  83.6663971
  26.5962219  50.8300476  24.7816830  27.4678059  50.4386597  24.7234650
  26.4370899  50.9217033  25.7211018  38.8714447   2.0353813  29.4895229
  38.8894844   2.0813179  30.4454498  38.5728226   2.9019661  29.2136841
  11.3241501   1.5253599  52.5886955  11.9303532   1.0594537  52.0127792
  11.8547039   2.2153213  52.9870644  58.3988037  25.6800461  32.3325996
  59.2321281  25.2540970  32.5335197  57.7926254  24.9567814  32.1723824
  84.6424103  24.8246193  18.0934410  85.5020905  25.1516590  17.8284359
  84.6970901  23.8773899  17.9669666  74.4254913  39.6635475  64.4255600
  74.6532974  38.8133888  64.8018112  75.1136093  40.2536545  64.7329636
  71.1330032  48.3132401   7.0042200  71.3699188  48.6627121   6.1451678
  70.7029800  47.4796371   6.8133812  83.4851227  18.6417828  51.6246567
  83.6949921  19.4256840  51.1170273  84.2175217  18.5476608  52.2337303
  20.0452633  39.8270760  76.6868134  19.6027489  40.2427368  77.4268417
  19.4057827  39.8613167  75.9753876  70.4943848  37.6065941   4.5063868
  69.8895950  37.5529060   5.2463732  70.3338699  38.4710999   4.1281052
   0.2523822   5.3948045  71.2375488   0.4636840   4.5606537  70.8182907
   0.8773819   5.4653053  71.9590988  10.0178776  60.8898163  51.6316643
  10.1626272  60.0538940  51.1883659  10.5335627  60.8270264  52.4356270
  20.1949329  54.6046410  61.8912659  20.1220570  54.1098251  62.7074013
  19.6015644  54.1586075  61.2869453  46.1111412  38.0357323  11.0371399
  45.3579025  38.5853844  10.8209209  46.6849213  38.6061478  11.5486422
   7.0938807  56.2923584   9.6942139   7.2621694  57.1989059   9.9512730
   6.3838658  56.3525009   9.0550785  79.7972565  25.9111347  50.6581993
  80.1962662  26.5963860  50.1220551  80.4102020  25.7865696  51.3827744
  40.5377655  62.1091805  87.9783020  41.1119881  62.1615562  87.2142639
  40.1271095  61.2471962  87.9106369  61.5665245  44.3710785  86.0385513
  61.7238770  43.7012825  85.3730850  60.6410980  44.5946045  85.9392624
   9.5334835  16.5925503  56.3412819  10.3842812  16.3455009  55.9788704
   9.6861305  16.6639957  57.2835274  28.0538006  62.7366905  18.7496738
  27.6993656  61.9564819  18.3231945  28.3271828  63.3014717  18.0268211
  12.2357206  65.7308197  43.0218849  12.4260759  66.6210632  43.3176155
  12.9533281  65.2033310  43.3726425   7.4875226  59.4064331  63.0776978
   7.3075414  58.7767982  63.7758369   6.7942157  60.0611191  63.1610222
  85.3830338  24.1337833  22.3229504  84.8156815  24.2260399  21.5575523
  85.8619919  23.3193951  22.1692963  40.9519997  58.9643059  84.5050278
  40.4911346  59.6406517  84.0086517  41.3184853  58.3848495  83.8370743
   8.0643415  45.0309486  52.5328598   8.5575714  45.3391495  53.2931023
   7.1499743  45.2106209  52.7516785  78.4053802  70.0426102  15.8791304
  79.3082199  69.7475815  15.9977150  78.1495438  69.6936111  15.0253248
  43.3517723  59.9075584  52.6259308  43.5734062  60.0905151  51.7128944
  44.1797943  60.0015335  53.0968628  62.6400986  71.0332565  20.1840992
  63.1237144  71.3198853  20.9588184  61.7252769  71.0169373  20.4652882
  55.4689102  53.6441002  22.1637230  55.4770927  54.3988495  22.7523804
  55.7220955  54.0014343  21.3125820  23.9968338  62.3442421  73.2476654
  23.2621613  62.9041557  73.4986420  24.7341862  62.9465599  73.1488800
  12.0994930  61.2147026  56.9008675  12.8444128  60.6371117  57.0673485
  11.3317804  60.6792679  57.1012611  29.2017574  59.3642502  18.6214638
  28.8508987  59.7040443  17.7982559  28.5895996  59.6742706  19.2888317
  74.8413467  68.2078247  58.7376671  75.2126083  67.5606384  58.1380501
  74.4321671  67.6870499  59.4287491  61.8377037  62.4286842  46.9963837
  61.8394737  61.5108719  47.2681389  61.8303146  62.3952255  46.0397987
   8.6303797  55.4617767  26.6142006   9.5065031  55.1929398  26.8905468
   8.0493279  54.7924500  26.9756031  84.2944870   9.2289295  77.7601852
  84.4802856   8.2900848  77.7769470  85.1226196   9.6413994  78.0057373
  47.9569054   1.1848882  28.3781261  47.6844749   0.2929487  28.1625862
  48.1061172   1.6014613  27.5293407  19.1450176  58.2694550  64.1523590
  19.4864235  58.0716934  63.2802544  18.2078667  58.4093208  64.0166550
  60.1126366  24.0973988  83.5509796  60.7957420  24.1552505  84.2190018
  59.3528366  24.5233402  83.9478531  71.4875488  46.8296204  18.1823616
  70.6622925  47.3142624  18.1649837  71.4856033  46.3241043  17.3695354
  72.4389496  63.9849243  89.2012787  72.1598969  63.3656197  88.5268784
  71.8419800  64.7271500  89.1066589  32.2780724  71.0707397  80.8353958
  31.5490055  70.5716095  80.4672089  32.9497948  71.0517273  80.1537323
  65.2613907   9.4929743  74.8396378  64.9809341   8.5787201  74.8810730
  64.5983429   9.9226389  74.2992706  15.6674385  66.0734177  68.7845001
  15.5201607  65.9552307  67.8461075  15.1253796  66.8266830  69.0190201
  74.8413010  54.3447495  65.0154266  74.9724808  54.6886177  65.8990479
  73.8928375  54.3666229  64.8882675  25.4466896  60.4619408  88.3243942
  26.1534138  60.4810600  87.6791000  24.9736576  59.6510315  88.1375885
   7.6396599  20.5998974  16.9411259   8.1918411  21.3399601  17.1933880
   8.2564535  19.8881149  16.7703552   9.8159294   7.6164517  43.7995300
  10.3293676   7.9645929  43.0705528   9.6568327   6.7020917  43.5652962
  72.9023514   8.1332006  57.6490593  72.6855316   8.1060801  56.7171326
  73.8339462   7.9162002  57.6846390   1.3769767  29.2662525  40.5286674
   0.8747214  28.4797821  40.7418213   1.3343875  29.3263016  39.5743027
  65.1920700  26.3784561   3.8287387  65.1695938  25.6302891   3.2321038
  66.1228714  26.5795441   3.9257646  35.6928215  61.8997879  64.8673096
  34.9166527  61.4330063  65.1770020  35.3523407  62.7197456  64.5095749
  27.7866154   5.9540811  25.3364277  28.1556549   5.7224574  24.4841404
  28.4963837   5.7900004  25.9573421  17.8274994  67.3641052  80.6012497
  18.4725628  67.5853653  81.2729416  18.0915089  66.4976273  80.2918091
  19.1316624  51.2053337  50.6494217  18.6691437  50.6671638  50.0070190
  19.2398605  50.6322899  51.4084663   8.8000278  13.0341711  20.5209866
   9.6800108  12.6581984  20.5434723   8.8776112  13.7907820  19.9398212
  67.4438705  30.9536152  55.8657722  68.0312195  30.2882767  56.2243500
  66.9798813  30.5069523  55.1576500  39.3479500  43.4577026   4.4137087
  38.4300766  43.7139168   4.3237305  39.6917038  43.4807701   3.5206630
  16.5197563  47.0753555  74.7379684  15.7023010  47.0691719  75.2359238
  16.2866573  47.4747162  73.8998718  62.8932610  26.2915306  25.8536549
  62.0385513  26.6369667  26.1112976  62.7242432  25.8165035  25.0400124
  84.7604980  38.2484245  36.0632782  84.9490738  38.6194992  35.2013168
  84.6707382  37.3086700  35.9050522  69.9686737  53.9439201  83.7771530
  70.0515671  54.6217957  83.1064529  70.0564194  54.4148941  84.6058350
  59.6233025  53.2332458  55.1071167  58.8469925  53.7657394  54.9338341
  60.1063805  53.7234573  55.7723694  54.9550133  67.8680649  31.2107544
  54.5738602  67.8544769  32.0886879  55.5332870  68.6308441  31.2124786
  17.0189438  12.4561481  87.4962234  17.6622925  12.5828028  86.7988815
  16.9736309  11.5069084  87.6107788  13.6895103  46.3176346   4.9939547
  13.0415201  46.7485313   5.5513287  13.1891556  46.0116501   4.2374806
  65.8655777   2.9089077  69.0872269  65.3894653   3.6177108  69.5198288
  66.2712936   3.3228962  68.3254929  14.4337435  65.0489883  18.8709984
  15.0333538  65.7695465  19.0646248  14.6366425  64.3849335  19.5298576
  31.3547802  29.1364460  84.9692383  30.4729252  29.4393730  84.7528992
  31.6430035  28.6618633  84.1895370  22.6417065  50.6264191  70.7422333
  22.8800850  51.4326630  71.1998062  21.7356415  50.7661591  70.4670029
  47.8784561  41.9320831   7.0956473  47.6338501  42.7754021   6.7145782
  47.4246559  41.2847443   6.5559754   0.5426878  36.8439484  51.4928818
   0.5767125  37.7855873  51.3243866   0.8493637  36.7507935  52.3948250
  78.5754700  17.7398682  13.3709593  78.9486008  18.2734928  14.0725632
  78.2323837  16.9649830  13.8160162  21.3949566  64.9953842  67.3027420
  21.8474464  64.3291626  66.7854080  20.5087605  65.0179901  66.9416656
  69.0180969   1.8540411   1.7056999  68.9015121   2.7620616   1.4261646
  68.3459244   1.7210181   2.3740723  42.1037521  54.0187073  11.4016037
  41.3325920  54.5518074  11.2083578  42.7943764  54.3882408  10.8514061
  63.2788582   5.6859813  66.8251190  63.2335701   6.0221248  67.7202072
  63.1276093   6.4532676  66.2731857  22.3158474  65.9999008  51.3073692
  22.6720104  65.1587677  51.5935135  21.5388050  66.1284866  51.8513412
  54.2893181   7.6954703  66.6906815  54.1488152   7.3938928  65.7931595
  54.3642349   8.6467094  66.6147614  31.9894028  16.3233871  34.8647156
  32.5809097  15.6977453  34.4464760  31.1218395  16.0907612  34.5338783
  74.6181335  13.8017187  54.5586014  73.7175751  13.8191748  54.2346840
  74.5295181  13.7256203  55.5086479   8.4733143  60.8706818  44.8778038
   7.8450794  61.4224739  44.4118843   8.8792810  60.3391876  44.1930161
  35.3474083  21.1119576  36.8085861  34.9293137  21.8437901  37.2622910
  34.9504166  20.3317966  37.1958580  38.3740158   5.0335364  29.0362492
  37.5126610   5.4387951  28.9359493  38.9852028   5.7700930  29.0492897
  35.8421936  31.5094986   3.4915380  36.3066635  32.0194931   2.8279073
  36.4713669  30.8415909   3.7640691  11.9179640  15.6463575  22.9499035
  11.7748766  16.2073936  23.7121353  12.2673149  14.8327579  23.3135548
  79.5338211  54.5743713  85.8553543  79.9112396  55.1753616  86.4976883
  78.9122009  54.0470238  86.3570862  20.6881714  12.6133785   4.7884274
  20.2268372  12.5062704   3.9566040  21.5872154  12.3441629   4.6000891
  44.6228180  54.7553101  24.8246689  44.0161629  54.4027367  25.4757366
  44.5632210  55.7047043  24.9311333  74.7580185  70.2851868  14.8262529
  74.3554459  70.6957779  14.0610209  74.1118851  70.3938370  15.5240641
  63.3473129  24.5723057  72.9511871  64.0065689  24.8997288  72.3392944
  63.1572151  23.6850986  72.6463013  69.8092041  18.4799347  73.5153580
  69.5926208  18.2248859  72.6185455  69.1459122  18.0483894  74.0539169
  75.9448395  70.3136215  80.9157639  75.8121414  70.8265991  80.1185989
  76.2584229  70.9485855  81.5597534  48.3351440  70.6230545  37.3064232
  47.7812729  69.8481064  37.4008598  48.0306473  71.2198334  37.9900589
   2.0540631  44.8033142  67.8461075   1.6832657  45.3623810  68.5288773
   1.4871957  44.9435310  67.0876617   1.1331887  60.0684433  37.5490074
   1.9209125  60.4478493  37.1594276   1.3224306  59.1320038  37.6081467
   4.5216122  38.0681381  23.8455334   4.1316066  37.5382843  24.5407925
   3.8509729  38.7177582  23.6346607  25.6007671  52.3912697  46.2611237
  25.6363602  53.2105675  46.7548027  25.0708675  51.8074303  46.8038635
  75.2983093  70.7737427  88.7388153  75.3560333  69.8931732  89.1096115
  75.2355270  70.6322174  87.7942200  62.9413376  38.7487526  71.3987503
  62.5582199  39.5816154  71.1234436  63.1226959  38.8651924  72.3313751
  45.0796318  40.3175888  32.6678162  44.3215370  40.0470238  32.1498222
  45.7927437  39.7589722  32.3585434  59.4254074  13.2368708  66.0422668
  59.0736885  12.4094954  66.3708649  58.6937675  13.8506737  66.1069489
  65.3584290  15.5124607  46.1572876  64.9935226  16.3086014  45.7709808
  66.1540833  15.8049002  46.6018600  63.4592209  36.0901718  83.3101120
  63.8026390  36.5285530  84.0886536  63.4278526  35.1642647  83.5508347
  79.7598343  40.9377975  74.0500870  79.9683075  41.8591347  74.2047119
  78.9194641  40.9559669  73.5921783   6.5499072  70.5632248  49.3029289
   6.5043597  69.8439865  49.9328957   6.4991112  70.1361847  48.4477768
  57.5100174  65.9571686   5.0773673  58.3920288  66.1827469   4.7817340
  57.1915054  66.7505112   5.5079389   5.4576364   8.1783886  46.6680603
   5.1319833   8.8898277  46.1166649   6.0763216   7.7069635  46.1101913
   5.0424099  26.6808453  21.4234219   4.3492279  27.2424202  21.0764866
   5.0542417  25.9246902  20.8366299  35.2784500  62.8257027  22.3174438
  36.0936623  63.2379646  22.0316086  35.5443535  62.2286949  23.0168076
  40.6344376  61.5660515  28.1933708  40.2520218  62.4326973  28.0558395
  39.9056473  61.0293655  28.5049229   9.8811426  33.9221306   1.0332427
   9.6730986  34.8509827   1.1341813   9.5672474  33.7002678   0.1566138
  48.8836365  23.1447334  87.7038040  48.8979492  23.3726978  88.6333542
  49.0073471  23.9787827  87.2507172  53.2385178  16.7517319   5.2444358
  53.3904152  15.8435488   4.9829717  53.1824379  17.2325325   4.4186530
  44.3461037  60.9677505  25.8496265  43.4488106  60.7571297  26.1079559
  44.7017975  60.1410522  25.5236130  47.1074219  43.3533134  31.6173782
  47.0340462  42.7342834  30.8909836  48.0381966  43.3512497  31.8407307
  59.6023865  63.4442635  48.3065300  59.6468468  64.3652496  48.0495529
  60.4051552  63.0586777  47.9556541  84.2271957  61.8467674  26.8376980
  83.7988892  62.6919479  26.9735699  85.1492462  62.0646706  26.7014503
   9.1152878  55.7650795  18.1992474   9.4714222  56.3534012  18.8650379
   8.1873550  55.6865730  18.4206276  25.3995228  33.0553970  12.2020712
  24.8659496  33.3845596  11.4787569  26.1115837  32.5778580  11.7764425
  53.5455513   4.3223529  30.6535778  54.2939606   4.2676620  31.2478199
  52.8723640   3.7809234  31.0657787  28.9204426  54.1130638  87.3998413
  28.5426388  53.7277679  88.1904373  28.2007027  54.1190643  86.7688370
   0.2960971  10.6092873  59.4446144   0.5981552  11.4564800  59.7721138
  -0.3125510  10.2968845  60.1140785  82.2339630  62.9375267  30.5893745
  82.6574631  62.7571335  31.4286251  82.7262115  62.4156914  29.9556446
  58.5406189  12.2849026  45.8694839  58.8742867  12.6342440  46.6958351
  58.1054649  13.0289392  45.4532127  40.8595695  52.9633751  81.6154404
  40.9100838  53.2096672  80.6918488  41.0182114  53.7794037  82.0899582
  21.9126453  46.6655960  25.8841705  22.8509369  46.5066566  25.7813072
  21.6070690  45.9463387  26.4369144  26.3444099  48.0632401  46.8998375
  27.0580330  48.6936760  46.8022308  25.6325436  48.4235077  46.3709831
  13.2995224   5.3629212  51.6101837  13.3293819   5.9186115  50.8313713
  12.9175558   5.9206657  52.2878647  29.2195950  68.2060013  84.2113876
  29.8062992  68.7601852  83.6967010  29.4427547  68.4012909  85.1214905
  57.4469872  18.8092880   0.6687641  57.8755035  19.4673271   0.1214176
  57.3973732  19.2136631   1.5349345   3.6000674  60.8862267  48.5463486
   3.3622098  61.4505463  47.8106842   2.8758948  60.9812698  49.1650352
  83.1878128  31.6545277  80.1864777  83.6406937  31.3872490  79.3866653
  83.2333679  32.6106148  80.1794128  56.7747269  44.6466522  71.7299652
  57.4655151  44.5758324  71.0711594  57.2108002  45.0222092  72.4948349
  18.4979019   4.0281315  38.7698021  18.5705013   4.7047415  39.4429741
  17.8557339   3.4103699  39.1194077  36.9256935  14.7370424  17.0698872
  36.5416985  14.7249861  17.9466038  36.6131897  15.5547867  16.6827602
  48.8824234  68.6562881  27.7005138  49.7543221  69.0364838  27.8076439
  48.6209145  68.4035110  28.5859241   9.9313803  59.6544228  40.1385384
  10.3238440  58.8172417  40.3861885  10.3754158  59.8959808  39.3256950
  81.5228348  50.3895493  45.2970352  81.9980240  51.2204132  45.2878838
  80.8588562  50.5008583  45.9774551  66.4385529  53.6401978  17.6487236
  65.6440811  53.3208847  18.0766163  66.4791641  54.5679741  17.8806953
   0.1179727  45.1911163  85.5943298   0.8943071  44.6338577  85.6491089
  -0.4113998  44.7968941  84.9010925  52.3243065  45.6672630   3.4537673
  52.0263329  46.5745277   3.5194733  53.0012207  45.6858826   2.7772548
  39.2790108   5.1038747  60.4351044  40.1199112   5.5176172  60.2403374
  38.9754906   5.5411458  61.2306557  18.2487259  59.8515320  81.8384094
  17.3876095  60.0083656  82.2258530  18.8273029  59.7136917  82.5883942
  43.8079414  14.1333084  84.0790634  44.4836311  13.5545769  83.7258682
  44.0328636  14.9994354  83.7392654  44.2987556  44.4086342   4.1836882
  43.5434952  44.9624557   4.3814068  44.3001289  44.3373222   3.2291491
  10.8425837  66.9899063  12.0549021  10.4975481  67.5806427  11.3854198
  10.2638292  67.1159286  12.8068275  75.5864868  53.6420403   3.5597594
  75.0428391  53.9014511   4.3036556  76.2662888  54.3143539   3.5139263
  17.0203953   3.6022632  35.4482536  17.5467625   4.3913050  35.3194809
  17.0609932   3.1473389  34.6070480  75.3676758  41.7015038  18.8703403
  76.0763550  41.1982117  19.2712212  74.6911774  41.7428398  19.5462627
  45.6148529  67.0698242  20.3587723  45.4342880  66.1920624  20.0223751
  46.5643311  67.1646881  20.2831192  18.0392570  29.4845219   8.5286903
  18.0333328  30.3433571   8.1060829  18.4723282  29.6341114   9.3691101
  83.3268509  50.9684830  72.6124420  84.2232208  50.9319458  72.9462357
  83.3760223  51.5552597  71.8577881   4.9292274  33.1399040  60.3854256
   5.6872368  32.6376534  60.0864296   4.1777825  32.6968384  59.9914017
  12.4530706  29.0940685  86.9526215  12.5223055  28.5324745  86.1805801
  13.2484407  29.6262913  86.9337540  58.3685112  68.5630417  37.9042015
  57.6099052  67.9837646  37.8321190  58.5554810  68.5972214  38.8423386
   8.9730930  69.3323288   3.4258516   8.9691610  69.5650101   2.4973717
   9.4580688  70.0412064   3.8483684  16.8291321   2.9161344  46.1612167
  16.2753754   3.3620243  45.5203018  17.2218189   3.6239731  46.6720886
  68.1539154  10.0574837  57.2475357  67.7585220  10.9149542  57.4045181
  68.5741653   9.8319616  58.0774498  78.7405167  45.3433151  37.4631958
  79.5308075  45.6900673  37.8772430  78.0205765  45.7105141  37.9761124
  13.6218863  11.3261843  29.9370651  13.3848610  10.5887232  30.4993839
  14.4597912  11.6323471  30.2840691  77.2654114  62.7601471  11.4724007
  77.2518921  63.2184525  12.3126431  78.0527344  62.2169571  11.5084963
  11.8388739  29.2429142  43.3443031  12.7227936  29.6102066  43.3404732
  11.2633429  30.0045242  43.4146461  50.1216011  52.0205803  26.9456997
  49.2630043  52.2213364  26.5732212  50.0329971  52.2263145  27.8763218
  44.4889374  61.6670113  45.9655380  44.0460739  60.9352493  46.3952255
  44.8847733  61.2817230  45.1838074  54.0675545  35.7323723   1.3431400
  54.9977112  35.7028503   1.5671239  53.6160851  35.6301804   2.1809719
  50.3723259  60.1972542  14.6618509  49.7686996  59.4594116  14.5755281
  50.6734238  60.3660927  13.7690659  24.4562416  11.2857237  40.7456894
  24.2345314  11.9883690  41.3567238  25.0684509  11.6882610  40.1297379
  73.8829727  29.9101410  28.0880051  73.2578278  30.5447502  27.7377281
  73.5942688  29.7614727  28.9884357  67.1278381  66.0478363  29.5751572
  67.6861191  66.5716934  30.1497307  67.5173798  66.1477737  28.7065353
   6.5874939  41.0300789   4.7007308   5.7251406  41.4454346   4.6931376
   7.1251655  41.5840721   4.1348414  40.2809677  21.4495831   7.0670953
  39.3663559  21.4668179   6.7852845  40.5962982  20.5848541   6.8043385
  73.3558426  42.1288757   5.2684703  73.1972656  41.8546219   6.1717262
  74.1456909  42.6674232   5.3168368  67.2930603  18.2506886  39.0494385
  66.5659790  18.7703934  38.7066727  67.9308701  18.8989029  39.3481865
   0.7898388  38.1605034  62.7393951   1.5835333  38.6869431  62.8350067
   0.9981416  37.5373878  62.0432854  39.1126556  68.3456421  69.9052811
  39.7746010  67.9363403  70.4625397  38.8437080  67.6515274  69.3035278
  73.8251801  25.5404453  73.7310562  73.2861786  25.5069065  72.9407501
  73.6351318  26.3966789  74.1144333  68.1045685  48.4599609  34.8145409
  67.5833740  48.9445381  34.1744080  68.8327332  48.1005630  34.3077545
  78.4365768  23.7795887  73.9243546  78.8675003  23.8944359  74.7713165
  78.5481110  22.8504982  73.7229004  40.7457809  29.9323730  18.1472816
  40.4502258  29.0903053  18.4934082  40.9686279  30.4456387  18.9238968
  82.0173874   9.1714687  49.7842484  82.3184967   9.7880487  50.4516296
  82.6882248   9.2099257  49.1025314  57.2949028  36.2841606  22.5388870
  56.4129677  35.9193153  22.6117573  57.3638229  36.5635986  21.6259823
   8.8222456  40.7680168  86.5996628   9.5789356  40.8579292  87.1789474
   9.1929569  40.4860764  85.7634201  81.5963898  27.8345623  74.3042526
  81.3747940  27.7893486  73.3741531  80.9290390  28.4075089  74.6818848
  18.0028667  20.5600147  75.5610733  17.2671280  20.0208683  75.8513184
  17.5948658  21.2996006  75.1107635  19.2498798  71.3050766  72.0908737
  20.0951080  70.8579636  72.0470886  18.6309834  70.6224594  72.3501740
  13.5380096   7.5765381  41.9444542  12.8070917   8.1825237  42.0659943
  14.0351496   7.6341977  42.7603951  67.1872482  11.7743607  44.1900139
  67.5803375  12.0651121  45.0129166  66.3165207  11.4630804  44.4373322
  79.1319809  68.2539215  55.2317924  78.7974930  67.3633041  55.3373642
  78.3697968  68.7654190  54.9603577  78.8472672  36.1952515  58.1122513
  79.6690140  35.7626038  57.8803558  78.2029037  35.4878578  58.1373062
  14.6596746  25.5765533  15.2436695  13.9095478  24.9940777  15.1242371
  15.1846619  25.4563103  14.4523659  74.3554688  64.3176422  61.5020638
  74.7844238  65.1710281  61.4391670  73.4301834  64.5022049  61.3407555
  63.7026062   6.1676960  22.4582291  64.6368027   6.2875352  22.2874908
  63.3653336   5.7527037  21.6643391   6.7938995  60.1756439  78.0081024
   6.9583936  61.0488930  78.3639221   7.5019035  60.0359764  77.3792496
  50.2531815  59.8325691   3.3218355  51.1494598  59.9775391   3.6249940
  50.2446671  60.1738472   2.4275815  30.0736771  14.9385757  64.5353699
  30.4359360  14.9079046  65.4208374  29.9387932  14.0206614  64.2998428
  19.6652889  22.7404366  85.3008881  20.2837009  22.1222420  85.6902847
  19.0006599  22.1875877  84.8899612  67.7842178  64.2447128  54.2223053
  68.5112686  63.8390770  54.6946259  68.0401535  64.1961365  53.3012352
  21.5945549   1.1577395  51.5869141  21.9613438   0.4594758  52.1292458
  20.9810009   0.7108467  51.0037575  74.8544769  21.5722160   1.5869881
  73.9817200  21.4344063   1.2188370  75.2277756  20.6933403   1.6537544
  10.4185209   9.0855198  46.0372620  10.4194155   8.5453730  45.2470284
   9.4917746   9.2370996  46.2227249  77.4242096   7.7876949  84.1691437
  76.6690292   7.4547043  84.6539688  77.0580292   8.1043406  83.3433838
  62.4484596  65.0575790   6.0967360  62.5266762  64.2000275   6.5147300
  61.9027596  65.5671234   6.6957431  11.3067293  29.0452042  38.1653290
  11.0518188  29.9604931  38.2815094  12.0656538  28.9334164  38.7378426
   8.1423130  18.6966381  45.6675415   7.8883219  18.9694958  46.5491714
   8.5167446  19.4836655  45.2717896  66.5656204  51.5831032  73.3178635
  66.9189682  50.7015610  73.4372864  67.3258286  52.1164322  73.0857391
  14.5290651  37.0289154  66.4392929  13.7076120  36.5824890  66.2339859
  14.7388220  37.5214272  65.6457825  61.3710976  47.8954391  63.7564621
  62.0150833  47.8848228  64.4645615  61.1637421  46.9729271  63.6074448
   6.4149489  21.2349911  86.4727325   6.0881352  21.1516380  87.3685379
   7.0504928  20.5249252  86.3825989  75.4067764   7.3726821  13.7344513
  75.5359116   8.3200779  13.7791605  76.1039581   7.0098791  14.2808437
  16.0082397  27.5327797  10.7430582  16.0567760  27.6194077  11.6950941
  15.6678095  28.3755455  10.4429178  19.0391598  59.1480064   6.8395281
  19.6461773  58.6257095   6.3151579  18.4443626  58.5061836   7.2274837
  73.1943741  58.1252327  15.4050636  72.5869370  57.6782646  14.8155937
  73.4949875  58.8857307  14.9075623  21.6844387  13.2951164  39.6104889
  21.2387180  13.1973476  40.4519196  22.4203205  13.8785830  39.7956276
  25.9215851  39.7558670  33.9404907  25.6579151  39.9174957  33.0346298
  25.0968857  39.6502419  34.4147758  19.3951473  51.8182831  84.0809250
  19.8496628  52.2715950  83.3708878  19.4851055  52.4020958  84.8341217
  18.2241096  27.7898102  34.0472298  19.0000458  27.2699928  34.2568626
  17.5411015  27.4427242  34.6210442  24.8633938  63.4820442  10.0411816
  24.5369644  64.3816605  10.0601044  24.2409897  63.0130501   9.4854031
  16.3762531  12.9834146   1.0986757  16.0874195  13.0521812   0.1886877
  17.0870094  12.3426571   1.0765957  31.9483490   5.3215938  37.8495140
  32.4682121   4.6871471  37.3561058  31.6995659   5.9820132  37.2028427
  11.4720869  41.8127441   7.5775762  11.6017704  42.7610092   7.5920100
  10.6758652  41.6877251   7.0612106  10.0347404   8.7743006  56.2621078
   9.7843981   8.3086452  57.0600586  10.9132366   9.1075668  56.4448891
  48.9052887  23.4760075  33.7308388  48.5035858  22.6945057  34.1104698
  49.7948265  23.4838047  34.0842400   9.3472719  -0.1113002  28.7987804
   9.9640551   0.5981399  28.6184883   9.1631384  -0.0364193  29.7351151
  70.5292969  19.6514683   3.2500339  71.0542908  20.2707901   3.7570353
  70.1928558  19.0344620   3.8999171  31.2752018  28.2412796  14.6380882
  31.3382950  27.2865124  14.6639442  30.4611969  28.4401398  15.1007814
  21.4144001  44.2125587  78.4228439  21.8707638  44.6422310  79.1462708
  22.1145821  43.8998489  77.8499680  77.4284592  11.8499908  55.6553421
  76.7720490  11.1533194  55.6529579  78.1044388  11.5400934  56.2580490
  45.3140450  11.1197929  19.6573906  44.5525818  11.2134390  20.2297878
  45.7909355  11.9438019  19.7564640   0.0088624  57.4406776  68.0070724
  -0.0278014  56.4994316  68.1772079   0.5278696  57.7945786  68.7293015
  40.9583473  46.9234886  33.0953445  41.8795395  46.7785683  32.8794060
  40.4855690  46.2719994  32.5773926  72.0333481  66.8431549  36.2027397
  71.1500244  67.0166626  36.5281143  72.0613098  65.8942642  36.0800285
  74.0506668  40.6362000  54.0321541  73.9393692  39.8528709  53.4934158
  73.2270737  40.7148018  54.5135612  30.3555450  40.8500366   1.0408859
  30.3494415  40.5522308   1.9505599  31.2208672  40.6037979   0.7140550
  22.5781078   4.1380768  10.9781561  22.9475574   5.0178013  11.0544739
  22.3986435   3.8745425  11.8806944  67.6814041  26.6457958  23.7558861
  68.2529449  26.4408875  23.0158958  68.2406769  26.5436382  24.5259552
  63.7464638  54.8932114  49.0940552  63.1870499  54.2504616  48.6579857
  64.6203461  54.5031471  49.0736694  58.7100945  56.0297394  24.1260357
  58.0643311  56.6850357  23.8618221  58.2300110  55.2017326  24.1135063
  33.1188240  39.2285423  19.1266899  33.9437637  39.1609688  18.6459179
  33.3545609  39.6614876  19.9471893  49.6467056   5.5659118  27.2323227
  48.8124886   6.0311713  27.2943344  49.8944206   5.3961730  28.1412010
   1.3249438  58.9544983  11.8554974   1.7765594  59.7703514  11.6394939
   1.9383160  58.2659721  11.5987101  34.5094147  68.5037155  29.0270252
  34.9117851  67.8162537  28.4962425  34.0194092  68.0309525  29.6998005
  19.5220165  65.8570251  63.1997643  20.4583855  65.6830215  63.2955093
  19.3810921  66.6768265  63.6733551  22.6435947  48.8686256  16.4851627
  21.9625854  48.9120712  17.1564064  22.2511082  49.2860718  15.7184000
  84.6776428  37.3546028  30.8503914  84.3649368  38.2027130  30.5354958
  85.5765076  37.5210800  31.1342239   5.5199652  37.9349251  76.2348480
   4.7676997  37.4525795  76.5778809   6.2748513  37.3886375  76.4538193
  65.4438171   1.3861593  73.1700897  65.5119705   2.0527720  73.8536148
  65.8382339   0.6047340  73.5574341  65.9643173  26.1368732  89.0186615
  65.6793594  25.4281158  89.5954514  66.6053772  25.7288895  88.4365692
  63.4209213  31.7488308   3.2838528  63.0806694  31.8206539   4.1756506
  63.4268913  30.8085499   3.1047802  40.9570694   0.4541702  43.1873207
  41.6812363   0.4054267  43.8113708  40.3727570   1.1199571  43.5500069
  17.4504032  59.1041489  41.5899391  17.6678467  58.3639145  41.0233688
  17.6682835  59.8768349  41.0686760  66.6329651  14.7430696  57.0437126
  66.7896957  14.8450184  56.1049500  65.6797256  14.7539148  57.1299629
  85.2188263  18.1330757  70.0704346  84.2880020  18.1720448  69.8507233
  85.3464355  17.2498436  70.4166260  57.0571938  35.6993904  38.0356026
  56.5961075  36.2177048  38.6951332  56.3644791  35.3679199  37.4641953
  43.9984131   0.4137349  16.4039936  44.6327591   1.1121236  16.2424698
  43.2932358   0.5813828  15.7788134  84.5080795  41.9825859  10.4033051
  85.0061798  41.3466225  10.9167995  84.2613602  42.6590614  11.0339737
  74.6938019  13.3320808  15.1247187  75.1275940  12.8403578  15.8220444
  75.1264801  13.0414762  14.3218660  43.5534477  52.3791733  18.6112309
  44.2709808  51.7996674  18.8672619  42.9116974  52.2915649  19.3160114
  56.5830956  70.6104279  28.8921757  57.3818779  71.1150589  28.7387791
  56.8116760  70.0099716  29.6017036  32.7746429  31.9974289  79.3562546
  32.0080528  32.4603233  79.6943283  33.5122681  32.3721161  79.8376617
  54.8738747  38.5862961  20.1104259  54.4371147  39.2228088  19.5444565
  55.5245895  38.1700134  19.5451736  83.6603622  42.0460129   6.1664333
  82.7982941  41.8602066   6.5386434  83.7663116  42.9918900   6.2680330
  40.4464798   9.5075073  88.3191910  40.6208038   8.7021914  87.8320465
  41.2126808  10.0572853  88.1551285  72.0573654  43.6574821  86.0276184
  71.7169571  44.1470985  86.7763748  72.5180206  44.3121338  85.5027771
   6.8334947  53.4076424  27.1278667   7.1710024  53.0022964  27.9266243
   5.9974723  53.7932549  27.3897877  58.0833855  40.4970245  81.6792297
  58.2154770  40.8658829  82.5525665  58.1438332  41.2489471  81.0899963
   5.0852947  65.3594284   1.1345601   4.9820457  66.2254410   1.5290096
   4.2790809  65.2255554   0.6362341  57.8274078  23.6210022   9.5135975
  56.8897057  23.5824852   9.3252707  57.9512215  23.0095100  10.2395315
   4.0756817  31.1900730  51.8102760   3.3297107  31.7466068  51.5866013
   4.6534152  31.2466335  51.0491867  12.6456327   3.6839738  18.5038490
  12.3070097   4.4595375  18.0565605  11.8842850   3.1120219  18.6010685
  86.1249619  63.8291206  55.3168449  86.5707016  63.7164001  54.4772987
  86.8296432  64.0040817  55.9405746  34.5354118  25.3135681  80.1768875
  35.1147804  26.0099144  80.4861908  33.8917389  25.2086639  80.8775406
  71.2817841   7.5087438  65.0376816  70.8681641   8.3418627  65.2636414
  71.1526260   7.4256825  64.0928802  64.8670349  13.3186550  84.1319504
  65.3543396  13.1741858  84.9430542  64.4218445  14.1553898  84.2658005
  62.3976746  69.8338852  46.7262650  62.6244240  69.0576553  47.2383995
  63.0797081  69.8867340  46.0567360  64.4766922   8.5611238  15.9005795
  64.0202866   8.8289366  16.6982021  63.8840485   8.8087749  15.1908798
  13.3342552  29.7994213   6.1046696  14.0095768  30.3231335   5.6735106
  13.7790947  28.9870758   6.3464260   2.8226135  11.6812134  54.4036636
   2.3073714  11.5224838  55.1945915   3.7310898  11.5670214  54.6827049
  60.7947617  23.8892365   9.5387774  61.0022354  24.4752007   8.8108816
  59.8789062  23.6486168   9.3989916  75.7723770  64.8284760  20.4531593
  76.3700485  64.9621582  21.1887836  76.3459854  64.7325592  19.6928921
   1.1958019  71.0933075  19.0891285   1.2695520  71.0406189  20.0420284
   0.3579930  70.6752625  18.8902664  79.8262711  45.8620987  73.5019302
  79.0195770  46.2885132  73.7911606  79.7891693  45.9024544  72.5463028
  50.4121552  62.5792351  75.9980164  50.2053719  61.8184128  76.5408020
  51.2862129  62.3968925  75.6530380  76.9188080  19.4006863  12.1337566
  76.1069107  18.9143143  11.9906092  77.4953690  18.7789059  12.5778236
  79.7639923  53.2661057  17.6620655  80.1489410  52.4090385  17.8450317
  79.0452728  53.0816994  17.0573597  18.3636246  70.0008392  15.3100061
  17.9808235  70.4829712  14.5770397  19.2979813  70.2045822  15.2688322
  61.3317451  24.5778008  17.9600983  62.2820015  24.4712601  17.9165878
  60.9852753  23.8505783  17.4430523  72.0470047   3.6927099  71.2894058
  72.9931488   3.5914915  71.1854782  71.6768188   3.3180177  70.4901581
  17.3368053  27.6661243  20.2063484  17.3776588  28.0375919  21.0875835
  16.4602222  27.8888550  19.8929386  66.7864380  55.1082344  58.4234238
  67.2008667  55.2040749  59.2809181  66.6434860  56.0063477  58.1247749
  47.5280647  56.1941299  60.7142181  47.3822517  55.9180565  59.8093681
  48.4351692  55.9486885  60.8962936  23.7579956  30.3499260  12.8732920
  23.5009022  30.3068314  11.9522715  24.7064476  30.4771862  12.8515081
  76.6419678   7.4263878  51.3692894  76.1597290   7.9638371  50.7409363
  76.7986755   6.6020131  50.9087677  10.8033876  56.5660973  42.9854317
  11.4014320  56.6264496  42.2404938  10.7052155  55.6262856  43.1382332
  16.2241573  58.5753670  67.1558609  16.7549400  58.9145432  67.8765945
  16.6612377  57.7638283  66.8977966  15.1189356   9.3007174  52.2140274
  15.1171913   8.3852797  52.4936752  16.0228577   9.4679232  51.9472008
  54.9022026  22.5280991  81.3573151  55.5157433  22.8438721  80.6939316
  54.1052628  23.0368538  81.2080231  53.6252022  26.6479759  47.6714211
  54.5513039  26.4086475  47.7072830  53.4536743  27.0684376  48.5140495
  54.7051201  31.1059189  81.2548218  54.6411400  30.1534157  81.1849899
  54.1385918  31.3305511  81.9929352  54.5799866  57.5716400  84.3576965
  55.1572418  56.8321915  84.5480118  53.8753738  57.1958008  83.8299713
  74.4741135  57.6050262  17.9143639  73.7369003  57.9387093  17.4030819
  74.9986191  58.3807564  18.1127625  80.4744110  43.3259048  87.6436386
  79.5331802  43.4885406  87.5814438  80.6852188  42.8329811  86.8506622
  21.6539326  52.5614662  80.4316406  20.8686886  52.5537224  79.8843155
  22.1690540  53.2974014  80.1010666  70.1143341  45.8874817  55.0620995
  69.2418518  46.2160301  55.2790375  70.4097443  46.4479370  54.3445663
  61.1207733   9.9584064  45.9675980  61.1851044  10.8592615  46.2847023
  61.2957802  10.0219154  45.0286789  83.7899323  31.3508224  26.5558891
  83.8923874  31.0543671  27.4602375  82.9529953  30.9803066  26.2757378
  41.5710411   3.9125113   0.5169884  41.9391251   4.7429070   0.2150136
  42.3274879   3.4127924   0.8240747  62.9734917  30.6868076   0.3815157
  63.9117928  30.8077679   0.5271019  62.8607674  30.8015881  -0.5620678
  85.5118484  49.9236031  56.7245750  85.6005554  48.9725380  56.7865868
  85.6693039  50.2374077  57.6150589  65.2065277   4.8641706  34.8286400
  65.0309219   5.6657519  34.3358307  65.1113052   4.1617985  34.1853371
  22.7716904  55.3164825  60.6930618  21.9832973  55.0071182  61.1391106
  23.3884201  55.5055275  61.4002686  77.7346268  64.0020370  13.7436895
  78.4587097  63.7752190  14.3272038  78.0369186  64.7823639  13.2789946
  63.0270882  18.6220284  32.2319946  62.1250267  18.9403133  32.1972237
  63.3777390  18.8001804  31.3593330  28.3470707  55.5967255  70.1134567
  27.9939423  56.3630295  70.5654678  28.6548996  55.9353104  69.2727280
  79.5740967  60.0323219   9.9949026  79.0400314  59.5146408   9.3923960
  80.2383575  59.4205437  10.3122606  43.1285591  51.2601280  38.9401779
  43.7181091  51.9872894  39.1399193  42.6884232  51.0738754  39.7695274
   3.9881480  65.7372665  48.0920029   4.0696921  66.4665680  48.7065811
   4.8306570  65.2858047  48.1429138  85.9838638  40.1136589   6.3195624
  86.4215927  40.4251633   7.1117659  85.3475342  40.7981262   6.1126246
   8.5484009  48.1733055   1.4257412   8.9975119  48.6777420   0.7474523
   7.6467261  48.4939194   1.4051548  29.3553638  17.5789089   2.1760767
  29.5410652  17.8674755   1.2825021  28.7083187  18.2052841   2.5004530
  52.8550758  13.9557858  71.7236633  52.4591179  14.1100769  72.5813599
  53.4979782  14.6582994  71.6267853  19.5885792  52.6012497  15.9990702
  20.3207397  52.3354607  16.5554237  18.8935852  52.8362579  16.6138763
  58.3571815  49.5034332  22.8818474  57.6328011  49.2126312  23.4358673
  57.9570885  50.1197662  22.2684212  56.9475937  46.2179947  26.0434761
  56.8681908  46.4238586  26.9748993  57.3912430  45.3700752  26.0225658
  47.4479828   9.4262495  49.0505104  48.0585747   8.6951056  48.9564857
  46.5908394   9.0114689  49.1479492   5.3751221  54.9594154  72.5256119
   6.0584698  54.5268745  72.0135880   5.3323736  54.4580231  73.3398666
  49.6861038  40.7150269  71.7419510  50.2712402  40.3716812  72.4171982
  49.3642540  39.9374123  71.2859268  27.4671555  63.6918678  53.9377022
  27.1037560  63.8875923  53.0740662  26.9198456  64.1884995  54.5460091
  81.6426926   4.4655132  39.1039848  80.7896423   4.1590190  38.7964096
  81.7482758   4.0572896  39.9633064  80.2379837  58.6693916  70.4566879
  80.3698044  59.5346947  70.8441238  81.0558090  58.2027588  70.6288605
  86.1610947  57.4973564  75.9721985  85.7525940  58.2629662  76.3761826
  87.0795593  57.5482864  76.2369080  83.5178375  15.8507223  65.6580582
  82.7230453  16.2934895  65.3605804  84.1465530  16.5580463  65.8017502
  76.9650955  19.8830090  18.4666729  77.6776962  20.4686680  18.7224789
  76.5893936  19.5865974  19.2956600   7.5002661  44.8572235  68.3111267
   6.8472333  44.6053925  67.6581650   7.1881795  45.6959076  68.6509018
   9.7060747  58.9363289  32.4070663  10.5783806  58.8013077  32.7773132
   9.7774296  59.7565727  31.9188690  69.2009354   0.5069746  57.3182983
  68.6649551   0.4626486  58.1101265  69.3305969   1.4435201  57.1689568
  20.8578796  70.9597092  43.0311317  21.3409462  71.7733002  42.8864021
  21.1375198  70.6661301  43.8982201  11.0785666  28.5662632  16.9827023
  10.3609257  29.1930084  16.8909760  11.0589008  28.3130169  17.9055843
  73.0067902   9.5823164  16.9976063  73.4385529  10.4357319  17.0362740
  72.3201218   9.6309462  17.6627026  75.5403290  13.1009541  61.0498886
  75.4030991  14.0431213  60.9512978  75.0520325  12.8691635  61.8398666
  23.4931889  22.3196220  25.4037380  24.3145370  22.0702267  25.8273201
  23.7627373  22.7372150  24.5856972  83.4646072  10.9172163  75.5011215
  83.8240204  10.1356010  75.0814362  83.7693710  10.8642845  76.4069672
  46.2964935  31.8698788  30.7373028  46.5630951  31.1583595  30.1551533
  45.3608780  31.9801254  30.5678997  73.6153717  49.9964714  65.3170471
  73.2674332  50.8879356  65.3384628  74.2071075  49.9522057  66.0681229
  78.1913147  44.2940216  35.0003586  78.4239578  44.7204361  35.8251495
  78.8365173  43.5937653  34.9024391  12.2650356  45.7677689   0.1837875
  11.5914211  45.3385162  -0.3436761  12.1781111  45.3724174   1.0511826
  16.0374336  34.6289711  18.0743694  16.5201092  35.3518982  17.6735783
  15.7029972  34.1241493  17.3330593   7.2391911  53.5660439  79.2159576
   6.5689259  53.4232750  79.8842316   7.9423409  54.0244255  79.6760635
  58.8181038  54.1919022  60.8382530  58.8308334  53.2348099  60.8447533
  58.6839409  54.4234161  59.9192162  33.8854713  20.1926594   9.8295050
  33.8435516  21.0621395  10.2275991  34.7442703  20.1634750   9.4077892
  35.7902565  41.9330559   4.9189506  35.3709641  42.7924461   4.9623008
  36.0771484  41.7610207   5.8157940  38.3111763  54.9231911   5.8247352
  38.1202469  55.8115158   6.1258249  37.7225990  54.7904739   5.0816350
  59.7377129  11.9312172  16.7746658  59.3304024  11.6079102  17.5782852
  59.0010490  12.1712236  16.2125645  28.3501358  69.0580215  23.5545425
  27.8322716  69.8627853  23.5747299  29.2195339  69.3251114  23.8529358
  73.2128677  11.2097588  52.3442078  72.9122238  11.6242714  51.5354919
  74.1087494  10.9324856  52.1525269  42.7234421  63.2799835  72.6302567
  43.2933655  62.8672981  73.2791901  42.8014755  64.2178802  72.8048935
  44.6444359  64.6427917   0.6165456  43.7607155  64.5483475   0.2610913
  44.7831383  65.5886307   0.6653627  69.6553802  32.8064423  15.9246778
  70.4574661  32.5439568  15.4730120  69.4895554  33.6983795  15.6194324
  58.0280266  22.9166298  61.4627838  57.4003372  22.7794037  60.7532692
  58.4528198  22.0661697  61.5745888  66.4337311  28.8954525  23.3626232
  66.8635788  28.0436974  23.2853374  65.5137711  28.6857357  23.5236092
  19.5575676  57.9965630  16.0154991  20.3623123  58.5038528  15.9093246
  19.4397049  57.9299278  16.9630756  75.9077988  47.4963417  19.3303585
  75.8335571  48.0603981  20.1001396  76.8278046  47.5607262  19.0740852
  79.6144257  48.7658310  60.5941963  79.0479202  49.1197014  61.2798195
  79.7060394  47.8387299  60.8140144  44.4759369   3.5745771  52.0245819
  45.0826836   3.6317575  52.7626991  43.6923409   3.1638069  52.3899307
  23.0031414   9.0691862  20.6617508  23.8369884   9.3486290  21.0396976
  22.3739605   9.1579914  21.3776245  71.8747940  57.5822678  83.8794937
  72.6548233  58.1261597  83.9889297  71.8082047  57.4464378  82.9343185
  35.9726868   5.3507466  44.6036263  36.3660088   4.8254194  45.3004494
  36.5027771   5.1581664  43.8302269  20.7700024  61.9240227  42.0264778
  20.9070320  62.4306526  41.2259903  20.6912441  61.0185242  41.7263031
  43.8715134  61.9715271   8.3700132  44.1793594  62.8681946   8.2379179
  43.0531197  62.0685425   8.8568935  61.9075317  25.2800026  88.6430283
  62.1562881  24.8695621  89.4712143  62.6695366  25.1578121  88.0767746
  77.8739014  43.0056496  21.5935917  78.5448761  42.9828568  22.2758713
  77.1517181  43.4976768  21.9842243  81.7326889  21.7212448  35.5120926
  82.6628799  21.6124725  35.3142433  81.2832108  21.4241066  34.7209511
  35.8737755  46.2482986  32.0579224  34.9488182  46.1949844  31.8174095
  35.8671188  46.5085678  32.9790344  12.3015337  46.9042397  78.9024048
  12.1667471  47.8386459  78.7444611  11.9400644  46.4756126  78.1266098
  30.1784859  58.8695908  66.2643814  30.4005356  59.6280975  66.8043747
  29.6827545  58.2962608  66.8489990  72.5366211   9.8871040  34.5485458
  73.2506866   9.6025171  35.1189461  71.7480621   9.5262375  34.9537354
  73.4796143  59.4058304  31.6814060  73.5575409  58.7748451  32.3969574
  73.7900009  58.9322853  30.9096260  37.5569267  15.5554676  82.5277939
  38.3361397  16.1007938  82.6358566  37.2754745  15.3601036  83.4215775
  41.6282501  18.7263470  82.2923965  41.8599205  18.2057686  81.5232697
  42.4609985  19.0863132  82.5976639  26.5056686   9.1828728  87.9125137
  26.4488659   9.2384214  86.9586105  25.6988506   8.7397852  88.1750946
  18.2416420   3.1211269  42.5818062  17.4290447   3.1073542  43.0875015
  18.2101231   3.9478102  42.1003151  65.2481308  12.8325996  70.5430374
  65.3026657  12.9128790  71.4953003  66.1581268  12.8624411  70.2476501
  59.2482529  45.5940514  52.0607834  58.5545349  44.9625359  52.2509727
  59.9296150  45.4026985  52.7052727  83.6842499  40.7899551  61.4253426
  84.4842758  41.2093391  61.1086197  83.9497299  39.8942184  61.6336899
   7.6414704  13.9370108  47.8492241   7.2820716  14.8197165  47.7603798
   7.7058315  13.6130648  46.9508095  63.3345642  66.1353531  65.5031357
  63.2524185  66.1356888  64.5494690  64.2019119  65.7658615  65.6686935
  43.0434036   6.4672980  63.0500336  43.5518494   5.6674604  63.1841049
  43.6310844   7.1728292  63.3203812  33.0203209  60.6907272  31.9084339
  33.8657990  60.2684631  32.0603867  32.3754807  60.0517693  32.2119980
  49.3353996  10.2405109  17.9211731  48.7797318  11.0162497  17.8457260
  48.7206230   9.5073967  17.9499035   7.4873967  43.7144279  43.4272690
   6.8521142  44.4303474  43.4375916   6.9582558  42.9231987  43.5282478
  75.1834717  52.8896179  21.1880875  74.8452454  52.1652679  20.6616364
  74.5783997  52.9514656  21.9272079  16.1519566   0.7549056  16.1179180
  15.3897429   0.6340698  16.6841869  15.8173523   0.6130418  15.2323980
  54.4935646  21.3218365  14.4022284  55.0298080  21.3140850  15.1950827
  53.9739456  22.1226540  14.4723425  35.6726532  53.8104782  26.9391670
  35.9017296  52.9758339  26.5303612  35.8386307  53.6738548  27.8719158
  57.4603195  60.4976768  84.4125290  57.5749359  60.8321190  83.5230103
  57.7092514  59.5751762  84.3554993   3.0217211  42.6070251  72.3347397
   3.1100414  43.5430336  72.5145111   3.0280790  42.5449409  71.3795776
  46.3084526  55.7946663  27.6814251  46.0527878  54.8866119  27.8436069
  47.0768242  55.9298553  28.2360115  12.8936825  40.6979675  11.4824295
  12.7984514  41.2971649  10.7420759  12.0881214  40.8107491  11.9869909
  12.3745022  51.8959007  72.9711761  12.1429596  52.6666031  72.4528732
  12.1861858  51.1547089  72.3955002  22.6215363  15.3372040  63.5855026
  23.4583111  15.5832348  63.1911583  22.2922916  16.1477337  63.9739227
  55.4838257  21.3909321  32.0358467  54.7918930  21.0426159  31.4735870
  56.1451416  20.6992722  32.0582428  66.0054245  28.2139225  83.6904373
  65.8119049  27.2861462  83.5562363  66.8955994  28.2244740  84.0421753
  36.0726738  52.9591980  22.5430584  36.2825203  53.5705910  21.8370895
  36.4097481  53.3810997  23.3333817   5.6663647  46.8848419  87.9266205
   5.9402270  46.2356339  87.2787323   4.7156024  46.9353561  87.8279724
  18.2055931  63.6790733   7.3977470  18.9118176  63.7747421   6.7587428
  18.4470253  62.9057541   7.9075747  38.3883400  64.2334213  12.1554718
  39.1226158  64.4551926  11.5828581  38.4608002  63.2874413  12.2823877
  56.1596756  21.4714584  40.4130554  56.4207764  21.8442860  41.2551117
  56.9796333  21.1758575  40.0174294  16.9159374  -0.1824465  83.8678513
  16.7984886   0.2726255  83.0339813  17.6265888   0.2905621  84.3008347
  28.0728893  27.3820934  11.2341261  28.5995541  27.1219997  10.4783440
  27.5212002  26.6210518  11.4149275  63.3922920  41.1493759  65.9460373
  63.1410522  40.4019661  66.4887085  63.2521210  40.8508110  65.0474625
   5.7806630   6.7535682  24.6749687   5.6865892   7.7060895  24.6842022
   5.4596224   6.4895329  23.8127327   3.5601571  24.8668442  40.3067894
   2.6335506  24.7350159  40.1061592   3.7009518  24.3802338  41.1189613
   4.4308596  53.1564102  40.0608788   3.7196043  52.5342255  40.2133064
   4.8765159  52.8244896  39.2814865  15.9512424  38.2200966  74.7508316
  16.8820553  38.2599068  74.9704590  15.9131489  38.4598999  73.8249435
  12.1337137  10.9596443  37.2544975  11.8690338  10.0408955  37.2089233
  13.0163403  10.9732685  36.8843384  63.8260651  61.7510109  64.1229248
  63.2495956  62.0023003  63.4012794  63.3869858  61.0050812  64.5316162
  18.2005005  44.2905426  82.5127487  18.6196804  45.0960884  82.2100601
  18.8953609  43.8156891  82.9687271  83.6899033  10.5710096  51.4530449
  83.7617111  10.4904833  52.4041443  84.5915680  10.6880274  51.1538239
  36.6350060  51.6861572  34.1260834  37.3237572  52.3493385  34.1712685
  36.4295769  51.4915047  35.0404892  23.8081608  48.1877594  32.7891922
  24.0970974  47.7619171  31.9820938  24.1855602  47.6552162  33.4893341
  66.0768051   4.5177011  48.7780571  66.2257919   3.5889745  48.6005669
  65.1240768   4.6088562  48.7930489  69.2867661   5.3165898   6.7578773
  69.9528656   5.9009986   6.3959193  69.1467133   5.6360145   7.6492724
  64.3106613   1.2400391  67.2321167  64.5000687   1.5758945  68.1082230
  63.6689873   1.8534321  66.8740158  81.6749878  40.1440353  69.9101562
  81.2339020  40.6851501  69.2552719  82.0419693  39.4147453  69.4104614
   5.5016346   6.8772473  14.9659281   5.3902254   7.5792465  14.3248215
   6.4402676   6.8708720  15.1534357  44.8898125   9.8001900   8.7807646
  45.2595749   8.9919977   9.1362000  45.0687447  10.4602604   9.4504824
   1.2741065  28.6167164  73.3241501   0.8969902  28.3088131  74.1482925
   1.3216748  27.8339500  72.7752914  31.8058910  36.4283180   3.6850009
  32.6958046  36.5557327   3.3562863  31.8645496  35.6504669   4.2397428
  64.6936417  65.4069824  11.8668737  65.4348297  65.9560394  12.1226292
  64.7226486  64.6674881  12.4739542  42.7142792  59.6807365  46.5577888
  42.6477623  60.1549721  47.3865891  41.8302727  59.7124825  46.1920586
  15.3604736  51.4185715  73.1846924  14.4566135  51.7310944  73.1446991
  15.3998671  50.9019051  73.9895096  70.7227478  36.1241493  59.8894958
  69.8192062  35.8511887  60.0486679  70.9868393  36.5617981  60.6987877
  55.3240662  47.4116631  36.8368607  56.1881409  47.5093575  37.2369385
  55.1770058  48.2394600  36.3793068  80.4226532  17.3055649  26.7861977
  81.3224945  17.1990242  27.0946827  79.8974915  17.3372974  27.5858440
  51.4492950  52.0733948  79.3490143  51.9278336  52.8393974  79.0320435
  50.7245750  51.9715500  78.7320557   0.2954510  69.5371857  63.7460251
  -0.3922613  70.0769577  63.3562431   0.9469535  69.4409027  63.0513992
  41.6216011  60.9216728  48.5116920  41.5068970  61.8680573  48.4254799
  40.7321053  60.5691299  48.4843979  82.3637238  43.2298927   2.1829736
  82.6379929  44.0179710   2.6519530  83.1578140  42.9230423   1.7453650
  14.3190069  70.6006699  80.9975281  13.5748329  70.8338089  81.5525742
  14.0238571  70.7937317  80.1076660  84.2575531   8.0964832  57.0362473
  85.1507034   7.9196830  57.3316574  84.2852402   7.9525723  56.0903320
   6.8043599  15.2889442  19.2269630   6.1829591  15.3757782  19.9498425
   7.6138730  15.6770515  19.5590687  72.0468826  30.0952187   4.0636158
  72.8042831  30.6381493   3.8449697  71.4801636  30.1537838   3.2944415
  62.7106361  44.0838318  66.4473953  63.4034004  43.4338493  66.3297958
  62.3636627  44.2260818  65.5667114  60.7239647  61.2505913  61.0818787
  61.0765038  61.3395958  60.1964302  60.8707771  60.3318748  61.3069038
  84.8752518  32.3866806   1.7304862  85.6220856  32.3655853   1.1321367
  84.1846237  32.8280716   1.2360703   5.8665619  33.6772804   9.8841934
   5.9935884  33.5097237   8.9503717   6.1665649  32.8764534  10.3142014
  54.3217354   6.9108577  10.1394005  53.6597786   6.2978659  10.4592190
  53.9333649   7.2938757   9.3528290  35.1609039  66.6490784  61.1528397
  35.2116814  67.5672989  60.8872681  36.0083427  66.2804184  60.9034920
  50.8887215  23.5405445  84.9256287  50.7311020  22.6296673  84.6772461
  50.0300102  23.9584732  84.8609161  27.3153896  32.2888603  10.3256721
  27.2217331  31.3761406  10.0529013  28.2430649  32.3798027  10.5433397
  84.1831360  15.8376341  85.5438614  84.0623856  16.0045815  84.6091003
  83.3500519  16.0902195  85.9418488   1.7531643  50.8823853  16.9345036
   2.4490061  50.4059029  16.4817371   2.1271951  51.7465858  17.1062222
  47.0168648  19.7954521  82.0765381  47.1766853  18.9711285  81.6169968
  47.7883987  20.3291435  81.8864288  28.6009483   3.7703750  86.2498398
  28.5107346   4.7228894  86.2213821  29.0849991   3.5996678  87.0577927
  33.0908775  16.4722691  18.7127018  33.3213196  17.3887386  18.8650665
  33.9315681  16.0308037  18.5919323  22.3815899   5.1972957  14.7616434
  22.3162060   6.0427189  15.2057343  23.2513523   5.2033057  14.3620090
  10.1818705  34.2407799  12.7677832  10.9908581  34.6827621  12.5100536
   9.4856873  34.8421364  12.5033398  52.8855362  23.5902138  22.3508701
  52.3218536  23.3349190  23.0811558  52.3672676  23.3974895  21.5695324
  75.5307617  48.3082161   5.7641563  75.5096664  47.5211792   5.2197638
  75.9933701  48.9553604   5.2317772  33.2903976  62.1276245  48.5749092
  32.8571281  61.3163414  48.8401108  33.4251251  62.0301208  47.6322670
  13.6005096   6.9915237  57.6286469  13.5013428   6.1344900  57.2140465
  14.4564962   6.9535613  58.0553513  22.9100056  14.7630644   7.5715733
  23.3067303  15.5708761   7.2455635  23.2421360  14.0807152   6.9882026
  10.3193874  11.0608864  27.4864483  10.7188282  11.5921106  28.1752739
  10.7934561  11.3040028  26.6912212  23.3513355  55.9499168  27.0281258
  23.7660751  56.1776619  26.1960468  23.6099434  55.0415802  27.1839352
  48.8810997  59.9678650  28.7942333  48.6861877  60.2633095  27.9048767
  49.8331451  59.8700829  28.8108788  62.8538284   8.9781771  68.0293427
  62.3413582   8.6077662  67.3107300  62.4482803   9.8283882  68.1993408
   9.2188482  28.2796097  43.1212845   8.9994583  28.3655415  44.0490341
  10.1741476  28.2214260  43.1054649  27.6130352  30.9289684   6.0981817
  28.4186172  30.9499950   6.6147337  27.7635078  31.5596352   5.3940148
  27.7604465  69.4984589  54.5992851  28.1322613  69.2340775  55.4407654
  27.9619675  70.4317169  54.5310097  23.7416115   4.2133570  44.1337547
  24.3061543   4.8523226  43.6987305  22.9174747   4.2523031  43.6484604
  71.6385117  27.1178207  22.8106766  70.8413773  26.6697044  22.5278282
  71.6570358  27.9229889  22.2933807  66.5314178  59.4498787   4.8816457
  66.1389999  60.0977020   5.4669356  66.1948395  59.6755753   4.0144629
  28.3680573  66.5232239   8.6657019  27.4308605  66.6070328   8.4900045
  28.5573502  67.2205811   9.2934771  23.6499023  15.1190367  30.6056633
  23.9659233  14.2285233  30.7584686  24.1920071  15.4456425  29.8875542
  65.5041046  39.5988579  48.9393616  65.0144348  40.4191933  48.8801537
  65.9197769  39.5056419  48.0821800  31.1909008  27.0242481  19.8369312
  31.9310017  27.1397114  19.2409878  30.9567871  27.9133759  20.1031570
  45.0324669  61.1960945  86.7728348  45.9784164  61.0501213  86.7829361
  44.7747345  61.1602554  87.6939850   1.7149326   9.9482279  85.4430542
   2.1272810  10.2811766  86.2401428   2.2575455   9.2027111  85.1861343
  57.5581970  22.3467865  42.8185005  58.2538414  21.6945667  42.9017105
  57.1299286  22.3507233  43.6745377  32.0313721  61.8036156   3.8250902
  31.4929161  61.3210564   3.1978488  31.5394955  62.6070518   3.9947350
   9.3463831   8.9448662  59.7286339   8.5664358   8.3933535  59.6674118
   9.9978065   8.3914890  60.1595078  28.1521606  56.8968086  32.6985130
  27.7499924  56.7244835  33.5498619  27.7689095  57.7272873  32.4162788
  70.7812729  43.6338692   5.0555439  70.2127609  43.5607491   4.2889414
  71.5250168  43.0648537   4.8573184  40.0566330  48.3685532  12.0638762
  39.4787025  48.5103111  12.8136311  40.9248276  48.6185646  12.3800526
  63.0663261  61.7328835   5.3883038  62.7922935  62.3698311   6.0481806
  62.7405319  60.8942490   5.7150745  38.5958900  71.0121841   9.9254456
  38.7275581  71.2333755  10.8473835  39.4747238  70.8230896   9.5966263
  12.0837097  44.2895241  82.1630173  11.1980886  44.0837669  81.8637390
  12.5417833  43.4491310  82.1513214   7.0055437  64.5722504  58.8756218
   6.6614561  64.8918076  58.0415230   6.2293611  64.3074188  59.3692169
  67.7668381  64.1733322  35.0634842  66.9239044  64.1843185  34.6100845
  67.7457886  64.9467697  35.6270218  42.7749519  26.4288979  22.0267467
  42.2768250  27.2458553  22.0006275  42.1711540  25.7923527  22.4094601
  85.9677734  12.4114332  14.6585150  85.5309677  13.1320391  14.2044649
  86.4668961  12.8356247  15.3564882  15.5864105   4.2516003  49.0511093
  15.6952257   5.0432081  48.5240936  14.9105024   3.7508252  48.5943756
  24.8858147  15.7194004  73.6796188  24.2777958  16.0064850  72.9983521
  25.5450706  15.2068281  73.2117691  12.3075571  55.6996956   9.0583735
  11.4790344  55.9134407   9.4874363  12.9752865  55.8966446   9.7153225
  32.9593964  68.4572296  44.8329086  33.0252647  69.4094086  44.9054070
  33.2735176  68.2619400  43.9500618  70.5053329  18.4087772  68.5232391
  70.9990616  19.1758480  68.2332993  69.8244553  18.2973652  67.8597412
  29.2611713  23.9291210   2.0125432  29.2783947  23.0062141   2.2658811
  28.9285908  24.3837624   2.7864447  49.9435539  36.8512993  38.0782928
  50.2138634  37.2566338  37.2543602  48.9941025  36.7587242  37.9995155
   8.5634136   4.9169540  20.2041798   8.2041607   5.0284076  21.0843773
   9.1505985   5.6640339  20.0887775  39.8090668  35.8094025   3.2484286
  40.7156601  36.1140823   3.2097881  39.3194923  36.4479485   2.7299612
  10.5069551  26.3617840   1.4167643  11.3696823  26.5845566   1.7664883
  10.6732712  26.1180859   0.5061699   1.2562335  67.6505814  13.5878506
   1.8550144  67.3854599  12.8897066   0.7649033  68.3833618  13.2165604
  76.5384445  38.0382538  88.0064850  76.9410706  37.4167557  87.3999710
  77.1017532  38.0171089  88.7800980  77.9530029  33.1174088  71.0919876
  77.9071350  33.8685684  71.6835022  78.0977478  33.5018578  70.2274170
   3.0234394  27.2623863  11.1208305   2.5509462  27.8604012  11.6999321
   2.4164214  26.5358028  10.9799852  49.4703064  45.3343430  85.9877243
  50.3687325  45.5833855  85.7708359  49.2738953  45.8199997  86.7888412
  11.5075035  46.8026314  43.6175346  10.9924965  47.5275688  43.9717445
  11.8737640  46.3697777  44.3887177   2.1003702  29.0346928  29.2014275
   1.4712471  28.5481319  29.7340565   2.0748267  29.9243965  29.5535755
   0.6250827  33.7638130  34.7724075   1.4614657  33.8113785  35.2354774
   0.0335424  33.3337097  35.3899231  79.1411209  17.3180332  71.1649017
  79.8688202  16.7089920  71.2904129  78.6445770  17.2695217  71.9818039
  69.4907303  68.6286011  84.2114868  70.2452469  68.2365265  83.7719193
  69.6307068  69.5721436  84.1317291  67.9577637  23.6579475  77.0599213
  67.5838470  22.9883900  76.4871063  67.8990860  24.4673615  76.5523376
  28.3918991  54.0053215   8.7601385  28.3434544  54.6229172   8.0304413
  29.0626011  53.3753052   8.4965687  62.0138817  59.5570831  47.6849937
  62.1194954  58.8399773  48.3101616  62.5986519  59.3320503  46.9613647
  59.0091743  39.2200165  20.4704857  58.1655884  38.7692528  20.5080147
  58.8042870  40.0818787  20.1079254   4.6675434  54.3751488  28.6392384
   5.0714040  54.8645363  29.3559170   3.9063535  54.8994064  28.3902950
  25.7773800  14.1148882  17.9742146  26.6728249  13.9666891  18.2782650
  25.2310238  13.6304207  18.5930996  80.4292221  40.9364815  42.8601761
  81.1966629  41.4952850  42.9826927  80.6789856  40.3374634  42.1565933
  75.8982773   8.1060829  89.0193481  74.9919586   8.3829203  88.8844910
  76.0122528   7.3626647  88.4272537  81.6365356  38.2203865  24.1585712
  80.7767563  37.9549446  23.8321419  81.9547424  37.4582901  24.6424923
  38.2754593  25.1777878  11.5754337  39.2050896  25.3972168  11.6376257
  38.0770035  24.7392673  12.4028063  27.7060909   7.9088821  69.4700089
  27.4592838   7.0396733  69.1541061  27.4708099   7.9022470  70.3978195
  75.9728012  48.0780449  29.0833569  75.7787628  48.6407967  29.8329525
  75.1311035  47.9704285  28.6404228  47.1784363   3.9124286  83.3821640
  47.4850273   4.6315560  82.8298111  46.9272957   3.2259943  82.7641220
  57.8087425  26.0112019   7.7567725  58.5820656  26.3632641   8.1975183
  57.8644524  25.0655632   7.8942218  68.6024780   4.8204103   1.3049431
  68.8710022   4.6950917   2.2151201  69.1734467   5.5167961   0.9804898
  79.8195801   1.6727799  40.4940872  79.9249496   2.0278521  41.3767242
  80.6873398   1.3403767  40.2644615  18.4027920  41.0749626   2.5419593
  19.0236549  40.3830338   2.7699852  18.2791500  40.9839897   1.5971476
   2.4985168  39.1211128  85.7166977   3.4012961  39.1459579  86.0338821
   2.0390015  38.5644913  86.3453903  59.7490845  62.6421356  87.8981705
  59.3559036  63.2365990  87.2592239  59.0949059  62.5709610  88.5933075
  81.9574585  49.4571609   6.5052342  81.1025085  49.6663780   6.8814240
  81.7666168  49.2069664   5.6012354  68.3010406  39.8981171  76.1527328
  68.7013397  39.0323753  76.0722046  67.4358673  39.7282372  76.5253372
  16.3057289  47.5493622  58.6105118  16.3449402  48.4876671  58.7956581
  16.8622284  47.4337387  57.8403358  65.8928375  21.3688164  34.0214386
  66.6893005  20.9012184  34.2729034  66.1020355  22.2919712  34.1637573
  46.2152176  36.8488464  33.1447144  46.6575279  36.2002335  32.5970879
  45.8135109  37.4544029  32.5216827  10.0904179  47.1255531  82.9586639
  11.0022936  47.1152153  82.6677856   9.7200813  47.9119873  82.5579071
  25.4243927  58.0604858  25.9368877  25.1376152  58.9660988  25.8191776
  25.7916508  58.0384865  26.8205566  16.1978245  22.1814556  31.0645142
  16.5279999  21.7422066  30.2807560  16.9826584  22.3869743  31.5724792
  18.5838203  12.2428818  85.0465012  18.0724926  11.4975672  84.7314148
  18.4272137  12.9312210  84.4000549  20.3798542  28.1837749  64.9583817
  19.8805275  27.5356350  64.4615707  20.0156078  29.0262756  64.6868134
  27.3391743   7.0551853  60.8374329  28.0414963   6.9793630  61.4833641
  27.5541668   6.4015584  60.1720161  84.2313080   3.7022960  40.4313011
  84.1830368   4.5463228  39.9823914  83.5151672   3.7272441  41.0659294
  72.9481659  14.9243116  16.4081802  73.3179626  14.3039999  15.7799301
  73.4044418  14.7354317  17.2281609  10.4342279  69.8241806  26.8011055
  10.6829195  70.5142136  26.1860943   9.9665022  70.2826538  27.4991474
  79.0324707  48.9315872  43.2080040  79.6813736  48.2741432  43.4588509
  78.2789612  48.7510033  43.7700043  69.8659134  23.4427757  20.0093136
  69.5201340  22.8247910  19.3652935  70.2863159  22.8910923  20.6689587
  68.9288559  45.3622971  15.8827057  68.8692551  45.5185738  14.9402323
  69.5982285  44.6838036  15.9711218  36.9572067  44.7182693  11.0250969
  36.4722748  45.5380707  11.1199522  37.2653122  44.5185852  11.9090824
  53.4452744  54.6424294  74.8742371  52.9330978  55.1532364  74.2473602
  52.8658943  53.9239426  75.1278687  15.7976856  14.6459389  81.0778122
  16.4322128  14.1278744  80.5826187  15.7507505  14.2151651  81.9313126
  53.7835541  51.2673721  82.5551910  53.0787849  50.7316246  82.1911697
  54.4554214  51.2746887  81.8734436   4.3772073  70.7245636  18.4825821
   5.1019254  70.6238480  17.8654327   3.6424789  71.0174332  17.9434776
  38.7880020  58.9939919  61.1725311  38.1748238  59.1002197  61.8998260
  39.6131210  59.3513031  61.5007668  17.3162651  33.6831779   2.9864700
  16.4638901  34.0287857   2.7214353  17.8278790  33.6614494   2.1777608
  36.9823418   0.5175141  21.3710060  36.2947121   0.0591324  21.8540001
  36.5405960   1.2741398  20.9855042  30.0648804  16.5456753  77.4123077
  30.4585781  17.3392143  77.0496368  29.4766102  16.2342415  76.7244263
  76.1415634  30.9065189  38.0931358  76.7952271  30.3725662  37.6416473
  75.8763199  31.5591373  37.4450874  57.3478088  67.7373123  81.1326675
  58.0545883  67.2362595  81.5396576  56.6557922  67.0940475  80.9791794
  78.5922012   4.8730550  70.3638535  78.0594635   5.5564384  69.9571533
  79.4445343   4.9464746  69.9344559  83.4623642  24.6895447  20.5692215
  83.0473557  25.5520897  20.5725574  83.9600906  24.6663914  19.7519283
  57.2417564  55.3233185  63.0153084  57.7986641  54.7758064  62.4618492
  56.8244934  54.7080803  63.6183052  58.5735474  32.5733757  77.4531403
  57.8130379  33.0535660  77.7806702  59.3264465  33.0737801  77.7677383
  70.6884537  26.0743046  73.2909317  71.1656342  25.8894558  72.4820099
  70.7957611  27.0163422  73.4223785  21.9303379  11.2615786  23.6692772
  21.1462421  11.4013157  23.1383362  21.9809341  10.3117352  23.7763710
  12.4597406  66.4045410  39.2889633  12.2272663  66.0118408  38.4475555
  13.4167862  66.4217529  39.2889824   8.9816532  46.2119293  30.3323536
   8.6653023  46.9573402  30.8427639   8.5809145  45.4490051  30.7489910
  35.0247841   9.3703928  25.5672760  34.9759979  10.0026407  24.8502579
  34.3045959   9.6124706  26.1494770  75.9048691  24.0515270  23.7808342
  76.5752640  24.5368099  24.2617798  76.3552246  23.2669373  23.4680576
  15.0337210  67.9820023  82.0719833  15.9884462  68.0094604  82.0089111
  14.7337646  68.6526260  81.4583740  32.6213455  34.4994469  11.4417009
  32.7436523  34.9730186  10.6188974  31.6720047  34.4641457  11.5589008
  67.7942047  26.1802158   6.9029336  68.6428833  25.8196869   6.6460400
  67.3875580  25.4877262   7.4238300  65.6218033  61.8426704  50.7935295
  65.7213287  60.9026413  50.9440842  64.8746262  62.0943832  51.3362923
  40.8489342  59.8555107  43.4313202  40.5504456  59.4672432  44.2537422
  41.5477333  59.2740364  43.1316605  28.1283474  26.4833069  20.4466629
  28.1628876  26.3701630  19.4967995  28.7415657  27.1962204  20.6254044
  14.4433174  15.7912340  79.0553589  13.5884123  15.4437656  78.8011246
  14.7482023  15.1983509  79.7422104  64.9387665  54.3971291  77.3966370
  65.6031342  53.9595604  77.9289780  64.8430328  53.8378563  76.6257401
  61.6762886   2.7376914  46.2509346  61.5270958   2.1760831  45.4902954
  62.5851021   3.0247545  46.1621361  63.1278572  25.7137089  66.0104752
  62.5029030  26.4187489  66.1795502  63.1402855  25.6281567  65.0571899
  71.1869125  40.6458893  67.4444275  71.6180267  40.6638565  66.5899963
  71.8789902  40.8697357  68.0666428  12.1692123   4.3993535  57.5004578
  12.4279099   3.9529834  58.3067207  11.4510899   3.8700626  57.1534920
  24.3013439  28.3429031  21.2319069  23.5686970  27.7717094  21.4625511
  23.9465332  28.9297066  20.5640717  58.5162926   0.4049456   3.5357084
  58.6692734  -0.4285880   3.0906796  57.5811920   0.5716307   3.4172268
  27.7071209  16.6616497  28.9213028  27.9441490  16.1644402  29.7041397
  28.1846333  17.4867039  29.0078850  28.2829418   9.3921919  64.2612534
  27.5213203   9.8532887  64.6127548  28.2348137   9.5359726  63.3161354
  37.0915565   8.3281279  65.5089951  36.9607010   8.3341846  64.5608063
  36.2314568   8.1101561  65.8680878  44.3245354   9.2563448  61.6832390
  44.1893768   8.4034786  61.2702217  44.7295151   9.7915010  61.0007248
  81.0286179  69.4177856  37.6311150  80.6634445  70.0059586  36.9701042
  81.2223587  68.6113129  37.1533089   3.0691481  33.2707558  11.0267973
   2.7210598  34.1099396  10.7253981   3.9550447  33.2354431  10.6660042
  30.6756020   6.3276701  27.8806572  30.6993847   5.5672970  27.2997112
  31.0834351   6.0226989  28.6911488  84.7070541  12.1965942  44.9189377
  85.3791275  12.2902842  45.5940399  84.1691132  12.9835739  45.0056534
  63.9230270   1.3848641  62.7982368  64.6257095   0.8649437  63.1883011
  63.8320618   2.1394284  63.3801231  58.6104622  26.2227039  23.0989399
  58.1466713  25.9821377  22.2969055  58.7672615  25.3898582  23.5439243
  61.6011848   3.5174012  14.9802990  60.8514709   4.0985117  15.1086531
  61.4857140   3.1691911  14.0961905  19.0515404  66.0135040  36.1518364
  19.9768486  66.1374359  36.3632088  18.5841694  66.3464355  36.9179649
  63.9980927  67.5348663  15.4390087  63.2558861  68.1267395  15.5616722
  64.7087631  67.9348297  15.9402151  58.8130341  34.9592628  80.2869949
  58.4365501  35.7808609  80.6023788  58.0556183  34.4029350  80.1051865
  23.2194920  62.4285622  48.9052696  22.6095219  62.5086861  49.6385841
  22.6622448  62.4461250  48.1271973  31.2699299  37.8678474  81.4401398
  30.7225666  38.5739708  81.0966034  31.8997612  37.6913910  80.7412796
  19.3556118  63.6223564  11.2471533  18.6541290  63.8435860  11.8596964
  20.1558590  63.9138489  11.6840391  45.6320305  11.4929047  71.4200439
  46.2795715  10.8288136  71.6564865  45.8788376  11.7639694  70.5358200
  55.0732117  58.2292213  49.2745399  55.4795914  58.9414406  49.7683334
  55.3386955  57.4347229  49.7377090  28.0774975  36.5952301  26.3659592
  27.6433392  37.1234627  27.0358143  28.9780502  36.5059128  26.6778221
  58.3577347  41.3220825  66.5681229  58.3723679  42.1462173  66.0814743
  59.0877190  40.8183517  66.2081070  46.2418480  59.3512611  24.5935974
  46.8174629  58.7999420  25.1236458  46.7073326  60.1846161  24.5223618
  34.0217781  67.3219681  73.9985199  33.4902878  66.5667648  73.7466888
  34.9092789  66.9731827  74.0817566   3.3460929  39.0427818  63.7339897
   4.0936513  39.6382561  63.6810989   3.3134186  38.7805061  64.6539764
  26.0045681  59.2092781  28.4499054  25.8678684  58.8006935  29.3046589
  26.9549122  59.2133713  28.3356304  26.8127232  33.8593903  54.8545341
  27.5834351  33.7086792  54.3072472  27.1687679  34.0495911  55.7224579
   8.6144629  20.8575134  60.1177292   8.0768471  21.0322876  59.3452950
   8.0247984  20.4082718  60.7232933  71.1956177  12.3190241  34.1242638
  71.6616898  11.4832344  34.1457100  71.8069153  12.9442091  34.5137405
  18.4532108   4.5546980  81.2059021  18.8765030   4.0568924  81.9053650
  18.2151604   3.8960352  80.5534286  56.5027962  18.4709187  14.1729593
  55.7695694  18.4933376  14.7878618  56.0920258  18.5051804  13.3090572
  25.5171967  29.6048832   5.1719785  26.2737274  30.1289291   5.4351702
  25.8949680  28.7993660   4.8189020  73.9361801  26.6856804  46.5470352
  73.3348160  26.5367737  47.2767105  73.9626083  27.6374645  46.4488564
  44.9593620  13.4379416  56.9263878  45.7846222  13.4707899  57.4102249
  45.1613770  13.8384180  56.0807877  38.7082710  35.5530701  43.1459389
  38.1250954  36.3092842  43.0805435  38.1837692  34.8179665  42.8285294
  71.1798477  31.7004204  17.9256115  71.5289307  32.5916367  17.9151020
  70.2340851  31.8147221  18.0188217  13.2434254   4.8982244  60.2377815
  13.1434708   5.8382864  60.3878632  14.0672798   4.6729536  60.6699257
  81.5442886  66.9439468  36.3458443  81.1556625  66.4323502  37.0554008
  82.4516449  66.6422424  36.3021660  39.0113220  54.8982391  19.8522129
  38.8563042  53.9539490  19.8749561  38.4409142  55.2511101  20.5351086
   3.7819901   9.8745012  51.3578148   4.1703901   9.2679558  51.9882774
   4.5234399  10.3781824  51.0219765  55.8163910   7.6207685  51.9788284
  55.6766586   7.9985828  51.1105194  55.7686996   6.6750336  51.8390312
  59.7673721  66.6951370  35.8331833  59.6501122  67.5587921  36.2288818
  59.4936409  66.0805588  36.5140686  36.8359413  34.4677315   0.9225864
  37.3649788  35.0601044   0.3883141  37.1734657  34.5806885   1.8111523
   8.2305727  54.9299164  47.1322708   8.7694025  54.7340012  46.3657761
   7.3403826  54.7026482  46.8636780  41.2388916  20.7312431  20.4594002
  40.9193535  21.3507519  21.1154022  41.5455322  21.2820511  19.7391129
  38.4601173  26.2236576   8.5681314  37.5806770  26.2305775   8.9459810
  38.9284668  25.5519218   9.0637636  35.0934410  14.6339302  52.5793343
  35.7978973  14.0068245  52.4159050  34.6879768  14.7673216  51.7225761
  65.1796341   7.4183760  31.1571445  65.0892563   7.5444703  32.1016884
  64.6711121   6.6290469  30.9711437  43.1294937  24.8161182  25.6196842
  42.7247925  25.2694740  26.3592224  43.9610786  25.2708874  25.4859676
  19.7927151  15.8017292  18.3445129  19.0872231  16.2670727  17.8951054
  20.5443020  16.3915310  18.2855072  72.4561996  34.4512177  73.5301971
  72.1686707  35.1356926  72.9260025  73.1908798  34.0305824  73.0834961
  19.4425907  12.0080442   2.6169202  18.6997910  11.5444212   2.2302237
  20.2069416  11.6625071   2.1558316  66.0484695  11.5958195  49.4311523
  65.4514847  11.0511875  48.9181023  65.8376160  12.4926310  49.1713409
   2.9085603  46.2594872   8.5194063   2.4639363  47.0746574   8.7518663
   2.2071021  45.6809464   8.2202787   3.3255727  12.8324242  39.1920662
   2.5070453  12.7607613  39.6830940   3.9231327  13.2849913  39.7873306
  77.3714371   8.9555349   2.2201931  76.8991318   8.7265272   1.4197447
  76.8778458   9.6884737   2.5881586  65.5936127   3.6817160   3.2648673
  64.6402512   3.6642661   3.3487158  65.8552704   4.5050530   3.6770363
  19.6217670   7.0513201  64.7073212  19.6666050   7.7851567  65.3202744
  20.5141239   6.7059755  64.6814728  80.3098068  10.7594175  39.9841347
  79.7655411  11.5291204  40.1501503  80.5840530  10.4679394  40.8536530
  45.7711029   3.7346425  36.0435486  46.4410820   4.0313029  35.4276314
  44.9454994   4.0310631  35.6604767  73.1574173  41.2523422  79.8294449
  72.2037735  41.2686157  79.9101944  73.4604568  40.8598785  80.6482086
   9.1723461  26.0860386  27.0510674   9.7015743  26.7894783  26.6751366
   8.5238209  26.5369740  27.5917187   5.5027418  27.3703651  18.3095493
   5.0651221  26.5287075  18.4373512   5.0107598  27.7915382  17.6047096
  86.6921539  54.9689484   7.5039191  87.0852356  55.2972260   8.3125963
  85.8155289  54.6841888   7.7621193  60.6173782  12.0884457  52.8056145
  61.0380592  11.2636871  52.5626450  60.5830574  12.0671778  53.7619629
   6.2540326  40.3764725  15.9788837   6.0862927  41.2383842  15.5978327
   6.8499050  40.5487480  16.7079163  51.0933838  58.1501350  42.7307243
  51.1999855  57.8375015  43.6291275  51.7881279  58.7990227  42.6189079
  37.3071556   1.3771582  47.7553787  37.2436676   1.6816084  48.6606483
  37.6234055   0.4765690  47.8271828  62.9158859  43.0205040  24.2617035
  63.7032623  42.9188385  24.7964306  63.2121124  43.4997635  23.4878883
  76.5832291  57.2425423  21.6769276  76.6604156  56.7257156  22.4789009
  77.2547226  56.8849754  21.0959969  25.4105988  48.0365524   2.3911490
  25.2738628  48.5853424   3.1633954  24.6841755  48.2578163   1.8084111
  63.4703484  43.6435051  50.0960732  62.7036629  44.1705513  49.8710213
  63.2428284  43.2339745  50.9307861  78.7495651  48.7289543  50.7366524
  79.1610184  49.3612938  50.1475105  79.1951370  47.9025955  50.5500374
  17.2152271  13.3598385  17.4701061  16.6628647  14.1412516  17.4929028
  17.7196255  13.4465904  16.6612263  68.2337494   8.7397003  74.1112442
  68.8191528   9.4964561  74.0818787  67.5527649   8.9877968  74.7364960
  57.9717827  63.9756966  32.1581192  57.8713608  63.5363884  31.3136311
  58.9172630  63.9974709  32.3058395  59.2445755   0.6821686  20.7420616
  58.5224495   0.8271096  21.3534203  58.8569107   0.8166522  19.8772717
  39.2591972  58.8360405  51.8585320  39.0871124  57.9006042  51.9661102
  38.3908348  59.2379456  51.8330994  63.4851875  25.7087212  34.0835152
  62.9344139  26.4814072  34.2093658  62.9838295  25.1516209  33.4881096
  23.3127365  39.8915520  15.9802628  23.8882771  39.1998863  15.6537933
  22.4974823  39.7748947  15.4924278  58.3034515  44.6310120  39.2239075
  58.3946724  44.3685989  38.3079109  58.7486801  43.9412804  39.7161217
  47.7984047  62.8960037   6.6094928  48.5651283  62.5031776   7.0266871
  48.0980072  63.1319962   5.7315540  68.9523926   9.3983936  11.9950142
  68.6573486  10.1808844  11.5293007  68.3131409   9.2827768  12.6980209
  19.5830421  68.4878387  24.4261360  19.2713070  67.5834274  24.3929920
  18.8616524  68.9754105  24.8237514  45.1009789  69.3773880  21.4885674
  45.3786011  68.5878677  21.0240097  45.9041061  69.8869781  21.5959644
  20.0861988  22.7568932  21.4629974  20.1717987  23.4610901  22.1056557
  20.9153099  22.2815742  21.5166588  19.8737507  40.1325798  30.5602646
  20.7339458  39.9224854  30.1967335  19.2627735  39.9630318  29.8431911
   7.8100491  54.0793190   8.0106525   8.4167252  54.3987427   7.3427134
   7.5863352  54.8566589   8.5224390   9.8668528  47.6565781  23.4907513
   9.7767925  48.6072502  23.4248810   8.9815712  47.3216705  23.3481083
  37.6022110  53.8403206  37.4263229  38.2837334  53.5770950  38.0447693
  37.2353592  53.0152321  37.1087074  23.2816505   1.8791133  24.3173199
  23.0008221   2.6735814  24.7714005  23.6295261   1.3175737  25.0100594
  62.7888412  43.6144638  19.4898014  62.7738075  42.6819267  19.2744408
  62.4317894  44.0454025  18.7132454  54.5833549  53.1105194  63.7700996
  55.5072021  53.0481110  64.0126724  54.1187592  53.1548576  64.6058121
  86.0974579  43.7346611  30.2433662  85.9391708  44.6176453  30.5773106
  86.1982651  43.8504181  29.2985554  24.8573418  31.5707130  21.1530514
  25.7420788  31.5048141  21.5123959  24.4031296  32.1717110  21.7435799
  66.7006226  39.5225716  72.1290741  66.8073196  38.5799484  72.0013657
  67.5782166  39.8353729  72.3486557  75.9037552  34.0329018  42.0145416
  76.7003403  33.9561539  42.5397034  75.6944122  33.1330948  41.7640343
  72.8226547  40.3632431  48.9208717  72.9656601  41.2682648  48.6438942
  73.6537170  39.9236107  48.7411690  33.7629852  57.8687439  39.2386360
  34.6707726  57.6744728  39.4718971  33.3303528  58.0332527  40.0764885
  32.1912270  64.8443069  80.6696014  31.8411274  64.3981171  81.4406967
  32.4007797  65.7260284  80.9776382  80.4147568  53.6626434  43.7717018
  80.5759354  54.5016975  43.3401489  81.2405930  53.4558105  44.2092514
  37.4251404  54.1359634  81.5755463  37.4468422  55.0649757  81.8050995
  37.8123131  54.0962257  80.7010422  43.1908493  62.1154938  18.9752579
  43.8085213  61.4716568  19.3219337  43.7227745  62.6797142  18.4140625
  36.8827782  66.7265244  84.9039917  36.5269051  67.2190857  85.6435623
  37.8224258  66.9077301  84.9254608  48.4519653  62.9608345  30.3109989
  47.7910385  62.3125916  30.0677071  48.8766708  62.5909882  31.0849972
  79.9754944  10.8096018  86.4215546  79.4577942  10.9920883  85.6373901
  79.9544220   9.8563671  86.5059967   5.1698642  33.4561005  34.2267227
   4.3206367  33.1101799  33.9521637   5.3361635  33.0394630  35.0722923
  67.5899963  49.8533821   0.0737287  68.2114716  49.2710953  -0.3632434
  66.8726273  49.2795868   0.3427405  59.1015854  42.9326820  70.7826691
  59.9257851  43.4193459  70.7921295  59.2766724  42.1547775  71.3122330
   7.3249640  19.7786255  48.2273064   6.5082579  19.8507767  47.7333260
   7.0718088  19.3566418  49.0483246  34.8041000   4.2260799  40.0684891
  34.0366592   4.4734125  40.5843315  35.3585472   5.0063224  40.0748177
  42.0176086  15.5935774  88.5206070  41.9655380  15.8609028  87.6029663
  42.0100670  14.6368303  88.4921494  28.2201691  36.1281548   0.5065302
  28.6590443  36.8430176   0.0454579  28.8758984  35.8026123   1.1231923
  79.0010376  39.9818573  81.9950714  79.1580963  39.0681419  82.2331696
  78.1688995  39.9665337  81.5222778  64.2354050  12.8621922  75.7697983
  64.4727554  12.1985264  76.4174423  64.4786224  13.6930723  76.1781006
  82.5499420  12.4927578  15.6113291  82.7384033  12.8490944  14.7431479
  83.2574692  11.8686094  15.7728109  85.9677277  18.4026108  53.0016632
  85.5484238  18.0521908  53.7875519  86.8022842  17.9369640  52.9475822
  37.4113274  68.4780350  59.3009644  38.2504387  68.4143448  59.7571144
  36.8814049  69.0526733  59.8534203  19.7375374  45.9983139  24.0726452
  19.3448448  45.1828995  24.3842850  20.4022961  46.2098312  24.7280769
  60.6266327  48.7371292   3.5971930  60.6975822  49.6916046   3.6102879
  60.7662201  48.4991302   2.6806207  73.3990021  13.8821735  65.4313812
  73.3441467  13.7343359  66.3755035  74.0654831  14.5622530  65.3337708
   4.3252082  44.2917824  25.8495445   4.4350705  44.8443871  25.0757294
   4.8446240  43.5101051  25.6613407  36.0919075  55.1327667  20.3601170
  35.8246994  54.9399452  19.4614220  35.2689171  55.2453537  20.8357639
  33.5508881  15.1946697  58.2731628  34.0788002  15.4631071  59.0251503
  33.6651039  15.9000731  57.6363029  61.1753578  28.8349533  31.3685436
  61.0838814  28.2414665  30.6231327  60.9116058  29.6897278  31.0279160
  58.4948692  61.1987305  49.5121231  58.8414230  62.0734024  49.3358383
  57.5841293  61.3485794  49.7657547  67.2295990  24.4851074  49.4520607
  66.9591675  23.9417496  50.1922340  67.5444717  23.8603802  48.7987556
  31.1690159  67.7786026  56.6410294  31.7106209  67.2599487  57.2359238
  30.5696621  67.1440735  56.2481117  12.9453316   1.5317795   1.9452455
  13.8439341   1.2470353   2.1115744  12.4455595   1.1938233   2.6883779
  36.8826561  18.4094448  12.8061199  37.1330605  18.0731983  11.9456167
  36.5349045  19.2836285  12.6297569  49.0061035  56.2355919   8.0197983
  49.6787262  55.7636490   8.5107937  49.4810791  56.6472549   7.2978816
  28.3977394   2.3336089  33.6272697  28.0369263   1.8373587  34.3619690
  29.3351803   2.1409802  33.6454926  77.0596313  58.2679024  70.3872299
  77.8824615  57.9740028  69.9963226  77.2646942  58.3889122  71.3143463
  71.7344818   3.6157267  74.1565094  71.4759064   3.2797470  73.2983170
  70.9224548   3.9499898  74.5374527  47.9265976  16.0333271  16.4126053
  47.0310593  16.3632336  16.3390923  48.2657318  16.0596104  15.5178814
  76.9977341  10.5085192   6.5130110  76.4480515  11.2571888   6.7444658
  77.4915314  10.8016100   5.7471848  86.2796021  15.8812685  25.8159504
  85.4176102  15.6185074  26.1386833  86.8212051  15.0982227  25.9146175
  66.7895355   7.3259172  67.6274872  66.4214020   7.4514060  66.7528610
  66.9403763   6.3828001  67.6908035  44.0559044  18.1427574  78.4178162
  43.4216194  18.0769520  77.7039642  44.2615242  17.2346859  78.6399841
   4.7622938  67.2005997  14.0877819   5.4563398  66.6409302  14.4360590
   4.5325909  66.8028030  13.2480059  55.6105766  15.7259464  69.6872330
  54.9713020  15.4542980  69.0286179  55.4169083  15.1793270  70.4487610
  33.6090431  19.1433830  24.5123730  33.4098892  19.8926678  25.0737495
  32.7535057  18.7743797  24.2929935  39.8658867  62.9065704  45.6827011
  40.5727501  62.9188881  46.3280106  39.4057426  62.0834999  45.8471794
  21.9124393  36.5467758  18.1559811  21.5419598  37.3839912  18.4353428
  22.6783218  36.4246521  18.7170010  75.6200104  19.6505470  70.0923080
  76.1084442  20.4469032  69.8837814  75.2599640  19.8118458  70.9644165
  49.0649033  40.4528732   9.3411732  48.7188606  41.1049843   8.7318811
  48.6611214  39.6298256   9.0658827  14.2695770  66.1676178  53.7518654
  14.7094803  65.6756821  53.0585289  13.3935537  66.3380508  53.4057922
  81.2048874  31.2689991  23.1655045  82.1060944  31.4698563  22.9130974
  80.9086533  32.0481110  23.6361027  64.8386993  57.7449684  29.7855091
  64.9722290  57.5166359  28.8655815  65.7024460  58.0217438  30.0914001
   9.6856213  26.3732338  66.4608688   9.0527344  26.5305576  65.7602005
   9.7876873  27.2242680  66.8869629  60.4004135  36.8998413  74.9593201
  61.0599327  36.2704010  75.2509918  60.4313049  37.5990295  75.6123276
   1.1666845  36.8857536  17.5235901   2.0152678  36.6143761  17.1736031
   0.7252516  36.0655937  17.7442894  11.0866928  27.5421124  45.8831558
  11.5642633  28.0773849  45.2494049  10.1641970  27.7208710  45.7007332
  16.4132156  31.8577728  79.6270218  16.5987129  31.0200195  80.0512772
  17.1476498  31.9905357  79.0276794  72.0456924  68.6463852  65.0107040
  71.5494690  69.3702774  64.6286316  72.6118774  69.0612869  65.6614914
  17.2978954  36.8684311  82.3903580  17.7209473  37.1011200  81.5638504
  16.9480000  35.9900246  82.2413483  10.9314861  63.8463631  24.4276123
  11.0079002  64.2468109  25.2936554  11.7610445  63.3853874  24.3028450
  73.8847351  68.3799133  80.3554611  74.5320587  68.9197006  80.8091583
  73.3113937  69.0098267  79.9187393  77.6280746  50.0293236  17.8035450
  78.3042679  49.9680824  17.1288242  76.8478699  49.6537819  17.3955154
  53.8391571  66.7118607  52.7003365  53.2617760  66.2950287  53.3399582
  53.2444954  67.1287842  52.0768089  10.8982334  18.7981548  67.2217026
  10.7803097  19.7451096  67.1468430  11.8348303  18.6855145  67.3839722
  60.7927895  38.0915413  88.9170074  61.5839806  38.6254234  88.8447876
  60.2605247  38.3490982  88.1642838  35.8285904  63.0865898  76.5333633
  35.1818352  62.4237595  76.7754135  36.6495056  62.6012993  76.4507523
  35.0789146   9.7857637  28.9666233  34.1603088   9.9802141  28.7806396
  35.0522881   9.2166538  29.7358017  37.8473740  61.4864349  85.1202698
  37.8775864  60.6086731  85.5008621  37.0329742  61.8637810  85.4528275
  10.2190638  28.1077385  13.4134426  10.7424917  27.9581661  12.6261158
  10.8635778  28.2698975  14.1023092  14.0602999  31.2944698  74.7942276
  14.4589720  31.4646339  75.6476517  13.9772310  30.3417130  74.7543640
  62.1561012  19.0963612  58.1333580  62.1700172  19.1715317  57.1792183
  61.8000221  18.2235622  58.2996826  53.8141518  48.2434349   7.6081090
  53.6711426  47.4685669   7.0646377  53.9083939  48.9611626   6.9818373
  23.0909882  11.8317833  49.3973274  23.6727448  11.0889158  49.5583839
  22.4432468  11.7856045  50.1005554  58.0505028  19.3253841  22.9208679
  57.8622208  18.6601048  23.5828247  58.4679871  18.8422775  22.2077446
  21.1797218  25.1813126  12.6919737  21.0797501  24.4841270  13.3401794
  20.7119789  24.8603802  11.9209661  62.4659271  63.0774727  61.7934494
  61.9138565  62.3802567  61.4394112  61.9086380  63.5238457  62.4309578
  59.1629677   4.3759747  69.4497223  59.1397972   3.5447004  68.9757233
  59.8137512   4.2408633  70.1385269  21.7773228  64.6388168   2.2533116
  21.0126858  64.7398682   2.8201900  21.8718014  63.6924706   2.1450117
  44.6070557  53.0446091  10.0006819  44.3731308  52.1562500   9.7317448
  45.1114044  52.9262085  10.8055706  46.0682678  16.3967419  71.8236923
  46.5097847  17.2421322  71.7424011  46.5727463  15.8080940  71.2622375
  65.4416351  13.5701656  15.6070442  65.3546371  12.6361637  15.4165125
  66.3752670  13.6937485  15.7781925  75.2078705  31.7991867  52.1420670
  74.7398911  31.0508957  52.5125923  74.7520142  31.9840603  51.3209381
  55.0560265  59.6035690  26.1972542  54.2925797  59.2200928  25.7655983
  55.3608894  60.2778816  25.5901356   1.5863944  22.7409916  48.5610428
   1.1163034  23.0008335  49.3533363   2.4912245  22.6190662  48.8485298
  60.9756546  66.7501526  76.0528336  60.2023773  67.2205353  75.7413712
  61.6471100  66.9310455  75.3950653  84.0411682  35.2557831  22.9915848
  84.4945145  35.6252747  22.2338352  83.1151657  35.2761192  22.7500458
  28.7492180  46.1244888   1.1158613  27.8546944  46.0146332   1.4383397
  29.1077099  45.2371521   1.0970726  87.0500412  35.2116089  24.2812843
  86.1576385  34.8656578  24.2941723  86.9382477  36.1605835  24.2248917
  82.1108475  20.0832443  64.2521362  81.4649811  19.9331684  63.5617981
  82.9519501  20.0924740  63.7953072   1.5743324  21.6725044  72.7762756
   0.7546578  21.1799393  72.7345123   2.0948150  21.3335686  72.0479584
  61.9402390  24.2902641  32.4278107  62.4153137  24.6036816  31.6581993
  61.7743721  23.3651314  32.2465630  14.7487774  32.2278557  69.5366135
  14.6370525  32.9599342  70.1430893  15.3770437  31.6508389  69.9708557
  70.3192368  23.7639809  13.3713026  70.8319931  23.0342407  13.0237474
  70.4272079  23.7019997  14.3203716  27.2814350  54.6134071  83.1569443
  28.2307682  54.6813507  83.2588348  27.0118446  53.9918747  83.8331528
  57.2690887  47.3363342  39.0835991  56.7778549  47.6294250  39.8510742
  57.4074936  46.4006958  39.2307777  80.5582733  29.3846340  60.5781746
  80.7020187  28.5251331  60.9741898  79.7374802  29.2913113  60.0946274
  62.5036240  70.3166428  75.4694290  61.5648575  70.1946793  75.3277664
  62.9032745  69.5166092  75.1281738  51.5881462  16.5278625  82.2268295
  52.2580872  15.9886522  81.8065186  51.4768219  16.1386166  83.0941925
  70.1777191  22.6884422  79.7681198  70.0496368  23.6368370  79.7487106
  71.1280594  22.5747890  79.7555466  15.4234076  48.2768440  79.1442108
  14.6227779  47.9735527  79.5722733  16.0602322  47.5809288  79.3066483
  67.0021515  68.6856079  25.7159443  67.5580978  68.4818649  24.9638481
  66.1261063  68.7905731  25.3447742  40.5152359  69.1575394  67.0976562
  39.5677109  69.1320724  66.9643173  40.6990929  70.0659103  67.3370056
   8.7796497  14.2868938  70.6581421   9.6330481  14.7176256  70.6090164
   8.2249079  14.7852907  70.0580673  11.7307901  65.5844193  18.6756344
  11.9245291  66.4954834  18.8962135  12.5831718  65.1490173  18.6859550
  67.0740051  13.2336693  31.3209057  67.9901123  12.9627895  31.3809242
  66.6679001  12.8821239  32.1131973  83.1684875  13.2489691  52.5408554
  84.0079269  13.0787268  52.1135483  83.3623276  13.9270868  53.1880150
   9.5571070  25.1153202  87.8483276   9.3031368  24.7280521  87.0106201
   9.4405689  24.4090710  88.4838257  62.4286652  31.3188915  28.5437164
  63.3247528  31.3036327  28.2075233  62.5270500  31.2316647  29.4918423
  12.9457483  55.3819313  30.8641033  12.2025347  55.9133987  31.1494198
  13.0890217  54.7654228  31.5821724  27.3610649  56.7835732  60.9152756
  26.9683647  56.1077194  61.4677582  26.6323738  57.3618317  60.6897507
  16.3591995   2.1239300  30.7440968  17.2100315   2.1552379  31.1815186
  16.5616760   2.2501168  29.8171062  51.4864693  53.2683067  87.9564743
  50.9138947  53.2092896  88.7212677  51.4775200  52.3874321  87.5820236
  48.0028305  70.2940598  49.7972183  48.2755318  69.7508698  50.5366898
  47.4394226  70.9629517  50.1863022  39.7183990  23.2367268   9.4410324
  40.0756874  22.6780415   8.7507820  38.7733078  23.2300243   9.2893972
  64.0925674  53.0854530  18.6657162  63.6137543  53.4686317  17.9307690
  63.5615692  53.2965279  19.4336472  72.8247147   6.3354363  59.5838699
  73.5150146   6.6824908  60.1489105  72.5129089   7.0953045  59.0923309
  74.5822525  30.4983273  34.1164360  73.9977188  29.8131294  34.4405594
  75.1318817  30.0575333  33.4684868  10.0916557  48.1662178   3.8250816
   9.5428982  48.4521103   3.0947661   9.5791159  47.4825287   4.2564807
  58.1946220  31.3296452  26.6198025  57.3965721  31.7224922  26.9733810
  57.9868317  30.3990021  26.5364037  27.4790535  16.2030773  58.8758316
  26.6657295  16.6771412  59.0490341  28.1007004  16.5527573  59.5141983
   8.2364130  29.5564232  38.2922211   8.6470232  30.4198589  38.2462730
   8.8173819  29.0445671  38.8549881  76.7419968  31.8096905   1.1957893
  76.8748093  32.5692673   1.7629189  75.7936096  31.6804123   1.1867882
  25.3162308   8.9434099   9.2224703  25.9490852   8.2668324   8.9816999
  25.3906441   9.0131721  10.1742201  10.7880096  18.9557304  13.4300957
  10.7386103  19.7878571  13.9005823   9.9233255  18.5623875  13.5477123
  65.3254089  69.5599442  86.6533356  64.4226379  69.3532410  86.8952103
  65.8019562  68.7400665  86.7834854  86.9485855  55.1476936  85.4579010
  86.3685379  54.7733307  84.7948532  86.4072342  55.7926521  85.9131012
  79.5096664   4.7634993   7.5816483  78.7201080   4.2816787   7.8279772
  80.2103271   4.1127028   7.6237922  39.8460045  19.9788914  28.8743858
  39.5567055  19.7329521  27.9957199  40.7770882  20.1766644  28.7733898
  28.3377514  60.3766556  52.4155807  27.5492649  59.8449860  52.3067322
  28.0970879  61.2357712  52.0688324  13.0411463  51.2822266  42.2128487
  13.5608606  51.4908524  42.9891243  12.9033594  50.3363762  42.2639580
   7.3353386  44.9000168  27.1367989   7.1207056  44.0338516  27.4831028
   6.5322113  45.1910400  26.7049160  61.6355324  30.1919804  71.7454910
  61.0318413  30.5263138  71.0821533  62.1625786  29.5403786  71.2830276
  32.7404518  63.4441566  23.6142750  33.5084877  63.1519318  23.1233959
  32.1220245  63.7315979  22.9425945  37.7188492  70.2290039  19.5387306
  37.1936111  70.4739990  18.7769337  37.6521797  70.9808197  20.1274261
  50.7968979  50.8278770  17.7359905  50.8720474  51.6646461  17.2772942
  50.6934166  50.1807442  17.0383205   5.3112159  56.1117287   7.5694547
   4.7602892  55.3322029   7.4983644   5.8035016  56.1327515   6.7488179
  62.0046844  12.5161533   3.6106424  62.7709885  13.0897369   3.6135030
  61.6146622  12.6418371   2.7455885  68.3285294  22.7495136  60.9961205
  69.2396698  22.4798584  61.1116333  67.8189774  22.0610008  61.4233665
  39.7874451  21.8539867  43.0744972  39.9766617  22.5750790  43.6748772
  39.2219353  22.2409210  42.4061317  65.0027161  32.7525558  33.6025314
  65.0074234  33.0971870  34.4955254  65.8788834  32.3862801  33.4825363
  58.6149788  67.3365555  87.2468567  59.0541267  67.8777084  87.9030075
  58.1419449  66.6787643  87.7565536  78.8859711  67.6611786  85.8583908
  79.3498993  67.0553970  85.2804413  78.8823853  67.2243195  86.7100830
  54.9133301  24.2843266  12.0214186  53.9669189  24.4276409  12.0201578
  55.1468201  24.2183838  11.0954781   6.4290915  50.3691254  13.1633463
   6.6244860  49.6300621  12.5872917   6.8676891  51.1147156  12.7535229
  54.5915146  22.3806534  19.7872829  54.4570084  23.1632557  19.2528000
  55.5415115  22.2653465  19.8083134  47.8358459  61.9066772   9.9153147
  47.6610374  62.8470612   9.8785667  47.7084312  61.6040611   9.0161924
  22.3191795  13.1461201  87.6058350  22.9505215  13.7367640  87.1949997
  22.2222633  12.4271917  86.9813461  42.3887215  70.9375610  37.4628410
  42.6435623  70.1145859  37.8799667  43.2174377  71.3454361  37.2116470
  22.5005131   6.4663234  45.6606712  23.4019928   6.1554022  45.7437019
  22.5177765   7.0515094  44.9033813  69.3622208  12.1884832  10.5187302
  68.5330658  12.5946245  10.2661810  69.6156693  12.6415091  11.3229456
   3.6620243   7.3439450  69.0989609   4.0919666   6.7871413  69.7480774
   3.1521060   6.7367864  68.5627060  83.3216476  68.3938065   3.2871573
  82.4875107  68.2328262   3.7282193  83.1202087  68.3085327   2.3552861
  10.4290247  55.2560959  57.4219704  10.3770485  54.3252220  57.2051697
  10.9952517  55.2912064  58.1929359  44.0880089   9.3915310  17.6924419
  44.7653084   9.7109909  18.2886353  43.8133659  10.1676035  17.2040634
  65.9568100  33.4697189  72.5866089  65.1502609  33.3323364  72.0897903
  65.7197113  33.2619896  73.4904175  58.7041893  53.1161308  20.2994919
  58.4609413  52.3601265  20.8338337  57.8833923  53.5908318  20.1684074
  28.9076939  10.1696634  16.6723366  29.3504028  10.6640959  17.3621025
  28.7930813   9.2938938  17.0412865  13.7991056  48.4482384  68.3480225
  14.6289806  48.0533333  68.6155853  13.7638483  48.3130951  67.4010696
   3.8491991  68.8612671   4.5791111   4.3455501  68.3307343   3.9558909
   3.3391731  68.2259598   5.0815964  69.0387573  12.9172878  24.3878975
  69.4509506  13.7434406  24.6404934  68.3654480  12.7724638  25.0526619
  85.2957077  41.2346535  71.5812988  85.3879013  41.1826630  70.6299667
  84.3588943  41.1160622  71.7379837  12.7185335   5.5290313  70.3645630
  13.4630175   4.9360976  70.4665756  12.8406944   5.9202495  69.4995422
  36.6499672  23.9337749  31.8678932  37.5535698  23.6913033  31.6655598
  36.1231003  23.2268410  31.4952145  12.5750923   8.2588921  39.0635910
  12.7685900   9.1734867  39.2692795  12.0427427   7.9554687  39.7989616
  40.3289986  45.5318680  26.1836376  39.9050560  45.1449776  25.4175968
  39.8716660  46.3621597  26.3166695  24.9100266  41.3185768  13.2487831
  25.2118244  41.5061073  14.1375914  24.3744278  40.5303993  13.3390055
  68.8135681  41.0244026  48.9704971  68.9682159  40.1761971  48.5547295
  68.9815140  41.6643715  48.2787819  11.7699013  35.8941383  74.5708313
  12.5693960  35.9737244  74.0505371  12.0456104  36.0932312  75.4655838
  27.6936264  48.9149094  31.4225597  27.6191387  49.2517548  30.5296898
  27.6223507  47.9651642  31.3269730  32.0391045  53.1265564  34.7017784
  31.6485271  52.3178825  35.0330353  31.5348606  53.3310165  33.9142761
  61.6923103  35.1907158  14.0397844  61.8518906  34.3657990  13.5812254
  62.5647392  35.5069046  14.2745552  70.9146805  55.3073158  70.4242401
  71.1139526  56.1773109  70.7701263  70.3016815  55.4692993  69.7071457
  41.5322800  68.2232971  64.6381454  42.4212112  67.8926239  64.7673264
  41.2604446  68.5245361  65.5050888  19.9275360  29.8476105   2.1874201
  19.0553932  30.0721493   1.8631035  19.9877682  30.2862701   3.0360551
  86.3055191  28.9068775  36.3377228  86.7877960  29.3597698  35.6459618
  86.6356506  29.2902546  37.1502914  24.7225761  55.4756889  72.5717392
  24.9234486  56.3101196  72.1479340  25.5410881  54.9814148  72.5274658
   4.8162789  44.5501862  44.0850258   3.9804838  44.2251129  44.4196968
   4.9308252  45.3996239  44.5111351   7.9646068  33.8261147  75.7059860
   7.2308664  33.3562546  76.1023254   8.5755796  33.1378937  75.4427414
  51.7206573  52.0163383  14.2223530  51.9116974  51.2771912  13.6449480
  51.7060547  51.6364822  15.1008339  76.1259842  13.9009180  52.2878914
  75.7157211  14.0432072  53.1409302  76.1209106  12.9503822  52.1752472
  61.4496002  12.0268259  47.7287827  61.3643913  12.9380169  47.4482422
  61.0073318  11.9950418  48.5770874  61.1859169  44.8437958  64.1195221
  60.2658310  44.9017334  64.3770370  61.1767578  44.3295822  63.3122215
  18.0777626   3.9200921  26.3580399  18.9042854   3.8503652  25.8803062
  17.7397766   4.7852945  26.1269073  28.8406982   4.6551342  78.4931412
  28.7529259   3.8037140  78.9216461  28.2985744   5.2443089  79.0177460
   5.0683422  50.1465225  49.4189491   5.4123931  50.8324089  49.9911537
   4.1187162  50.2625732  49.4501610  82.8138809  57.0375786  70.7441483
  83.1960144  57.4254189  71.5314178  83.4243774  56.3422356  70.4991608
  38.9209213   2.8229389  70.5847702  39.0356941   3.5911047  70.0253220
  38.6765175   2.1214013  69.9811554   2.7649026  11.1365376  37.1595116
   3.2105567  11.4491520  36.3721733   2.8021231  11.8764982  37.7655678
  45.8843269  56.1710472  21.0774879  45.7775688  55.3606110  21.5755081
  45.2504539  56.7750893  21.4642315  56.6840782  44.2429810  34.9871330
  57.3642731  44.3528214  35.6515923  55.9347725  43.8906708  35.4673920
  31.9886322  53.9643097  28.7284126  32.7253647  53.6788712  29.2687626
  32.2052574  53.6589470  27.8474693   5.5704894  54.8222237  55.1972389
   4.8339806  54.8357162  55.8084717   5.5199041  55.6630669  54.7426453
  54.8041382   2.4821692  85.7831802  55.1995201   3.3501315  85.8640976
  53.8713799   2.6282287  85.9408569  62.4404716  23.5803604  56.0207977
  61.6845551  23.0136127  55.8671150  62.5946159  24.0077438  55.1782913
  62.5268402  13.4664879  70.8075714  62.0442429  13.5825377  69.9891129
  63.4332581  13.6767693  70.5830383  63.7746201  35.8787880   3.6317825
  63.7492409  35.7759552   4.5831041  63.9120216  34.9920311   3.2986002
  68.4395370  31.3935432  60.0886612  68.3168411  30.4451885  60.1311035
  68.5376434  31.5808144  59.1550980  33.7130623  71.6266174  19.1598721
  33.1394272  70.8811035  18.9827137  34.5945358  71.2978134  18.9834309
  74.4846725  70.6355209  55.6922607  73.7639389  70.0058441  55.6754341
  74.2901535  71.2413788  54.9771919  17.7547283  70.6575470  56.6802673
  17.3270187  70.5175476  55.8354607  17.3168812  70.0479507  57.2743378
  44.9019928  70.1774063  39.0722847  44.4267960  69.4290848  38.7111397
  45.3610382  70.5544891  38.3217392  75.9981842  63.7159119  54.3097076
  76.6704865  64.3919373  54.3947372  75.6376495  63.8456573  53.4325485
  28.4079380  17.0011292  37.6870079  28.0315399  17.8799152  37.6391525
  29.3497753  17.1483650  37.7735901  39.6354027  27.2802887  36.9498940
  39.2319946  26.4625530  37.2411003  38.9087143  27.9012909  36.8997650
  23.1708336   8.5421658  57.2331200  22.7851410   8.3362703  56.3816032
  24.1132793   8.5717354  57.0683289  30.6858597  47.2048569  30.1429443
  30.6997185  47.6603928  30.9846859  30.0214443  46.5241623  30.2498951
  51.8360596  60.3571243  28.1832657  52.1556091  59.4756012  27.9908237
  51.7614861  60.7772217  27.3264179  58.2165794  58.7530098  61.4343147
  58.2260323  58.3445702  60.5686836  59.1390572  58.9121819  61.6341362
  64.1848831  60.2746735  58.9077721  64.6320343  60.9817924  59.3728294
  64.2763062  59.5146751  59.4824677  24.3880882  66.5461197  84.9061661
  24.8144512  65.9000626  84.3430939  25.0574570  66.7833862  85.5479431
  11.8527708  44.2595329  17.9911022  12.1139412  45.0244102  18.5039215
  12.5898104  44.1041336  17.4004612  29.5608406  50.7330246   0.9499195
  29.8095379  49.9009209   1.3523984  29.7932472  50.6315575   0.0269219
   3.1204975  22.1049061  45.4277534   2.5835242  22.6196823  46.0301628
   3.2927492  22.6964684  44.6952133  48.8509979   0.4740155  21.3375454
  48.3873520   1.3106993  21.3025627  48.9223251   0.2012815  20.4228001
  45.2778702  16.6277275  15.5572529  44.6712761  16.7546329  16.2867546
  45.4032097  17.5046749  15.1946468  79.2095490   7.7199183  79.9429016
  79.7538757   7.1028695  79.4538269  79.7920303   8.0717163  80.6160965
   0.6340514  50.9753494  80.9433136   0.2168608  50.6829453  80.1329498
   0.0740017  50.6307564  81.6388931  81.4982224  15.0738058  18.7494755
  81.4779816  16.0072193  18.5383797  81.0115662  14.6568403  18.0384636
  80.6000519  49.4439316  63.8081169  79.7705917  49.9212418  63.7881584
  81.2010880  50.0274506  64.2712479  37.8327522  33.8074646   3.6788850
  37.3513947  33.7619743   4.5049953  38.1244087  34.7173386   3.6214135
  19.3762703  41.6045914  79.1029968  19.8178806  42.4489937  79.0124741
  18.5288773  41.8181305  79.4935837  38.5159035  65.2040939  48.6602287
  37.8130569  64.8157043  49.1811867  38.2008133  65.1540604  47.7577629
  71.2060471  60.6337776  71.7739563  71.1216736  61.5201340  71.4225464
  71.4342957  60.7618752  72.6946716  49.4527283  50.7306519  51.5428696
  49.8968964  50.0124092  51.9934998  49.6397171  50.5837555  50.6156731
  49.1879654  14.0492439  21.3126030  48.6334877  14.0426493  22.0928211
  49.4223328  14.9695816  21.1930981  39.0091515  31.0834274   4.8905816
  38.9268494  31.9609032   4.5170927  39.9527550  30.9277668   4.9307747
  46.1864510  41.2341309  71.2229843  47.1273041  41.3965912  71.2910843
  45.8649292  41.9268646  70.6459427  23.6754055  61.4000359  20.8842716
  24.3378487  62.0333328  20.6079807  23.5477333  60.8381195  20.1199551
  65.8928452  41.6352081  70.4555130  65.1379929  41.8378677  71.0081100
  66.1437531  40.7469749  70.7091293   8.0848198   3.6679010  77.8844757
   7.7293472   2.7799909  77.9230347   9.0342293   3.5464501  77.8946228
  41.7726173  58.9505119   7.9132576  40.8357964  58.9631958   8.1092958
  42.1001778  58.1696854   8.3596287  34.4848824   0.3733575  52.9008141
  35.4364815   0.3543398  53.0024605  34.2698212  -0.4693446  52.5010223
  36.8123474  56.7207947  57.4131126  36.5705986  57.0848999  58.2647057
  36.4001083  57.3052711  56.7769699  53.1998558  55.9798660  19.7732391
  53.5879822  56.8220139  19.5358086  52.5023727  56.2028809  20.3896904
  76.4970322  60.2279015  50.3735619  75.7419434  60.0796661  50.9428558
  76.2598953  59.8076324  49.5468979  64.6293640  14.0557985  61.2958527
  64.6969299  13.1262360  61.5139809  64.1407166  14.0738163  60.4729729
   5.4151034  23.9914627  77.5636826   5.9468880  24.7827816  77.4785156
   5.6935973  23.4362087  76.8354263  37.6028061  64.7783661  33.2021980
  36.8455391  65.3514557  33.3220100  37.3848114  64.2509232  32.4337502
  70.1753769  28.1126518  66.7636108  69.2714005  27.8043842  66.7000809
  70.1005859  29.0071507  67.0960388  39.3951073  63.3742142  84.4106674
  38.9399834  62.6400185  84.8230362  39.8813667  63.7861824  85.1248550
  48.0951118  13.0842171  35.8351440  47.4879990  13.3753815  36.5154877
  47.6592484  12.3344154  35.4301109  38.4225426  27.3485947  30.8663864
  39.3153839  27.6336384  30.6719284  38.4003258  26.4302788  30.5972519
  64.7075195  51.1749153   6.3427095  64.4186172  50.2634277   6.2985229
  65.3309250  51.1936455   7.0688272  74.9889908  64.4034195  32.5841331
  75.6465836  64.7967377  33.1577988  74.3953629  63.9452820  33.1790771
  44.6246567   6.6051302  60.4536362  45.3289185   6.1496754  60.9149475
  44.4272499   6.0438128  59.7038460  69.7753448  63.5076027  30.0083809
  69.2156982  63.5802612  30.7815208  70.1935959  64.3653717  29.9339905
  50.2078896  47.1411095  49.9657402  49.3936043  47.5118484  50.3059196
  50.6293602  46.7474480  50.7296944  81.7094421  68.3684845  33.4591217
  82.1912231  68.4268799  34.2841759  80.7883759  68.4117279  33.7160263
  65.5800095  46.7265968  61.4513702  66.0866013  46.6276550  62.2574768
  66.1800079  47.1577492  60.8428192  59.1369476  20.7263374  88.2582397
  60.0619965  20.9606514  88.3331757  58.6710815  21.4571304  88.6646118
  70.1295166   3.9926047  47.2548332  69.3762589   4.4776130  47.5918808
  70.8486710   4.2300105  47.8402214  69.7276382  69.2716370  57.3574753
  69.6225357  70.1770020  57.0650787  69.4903259  69.2902908  58.2846031
  52.3262672  65.8315277  54.8982201  52.1284866  65.0457382  55.4077797
  52.6189079  66.4708328  55.5477448  62.7183533   0.0155077  34.6724701
  63.5315018  -0.4893853  34.6623001  62.9960022   0.9130620  34.8556061
  66.0811920  16.6750107  61.1506615  67.0188751  16.4835186  61.1330681
  65.6621780  15.8158512  61.2007256   1.5411918  21.1268253  82.9357986
   2.1031654  21.8181896  82.5858917   0.6603873  21.3646011  82.6461792
  78.4907761  20.0930462  76.4068375  78.1985626  20.8643684  76.8925400
  79.4435349  20.1784611  76.3723755  23.7518520  13.1964273  24.6167183
  23.0712280  13.0349436  23.9633369  23.2986431  13.1266918  25.4569397
  19.8765144  69.7108002  80.5762634  20.1479607  69.2874222  79.7618332
  19.4305763  70.5093689  80.2940063  60.5356407  23.1181087  34.3195724
  60.3016510  23.7946129  34.9550400  61.1152382  23.5615330  33.7001572
  15.8445940  61.9081726  57.6297073  16.5648537  62.5385628  57.6379395
  15.1892405  62.2856140  58.2164612  16.7222195  41.9826088  79.3145218
  16.2120686  42.0362778  78.5063782  16.6789856  41.0595589  79.5642014
  86.3534012  47.4156837  55.7151527  85.8506622  47.0338783  54.9956322
  85.8694763  47.1684113  56.5031242  72.9763107  17.4067364  32.9815712
  73.3634644  16.6536255  32.5352859  73.0520401  17.1982899  33.9127274
  82.9927216  41.7258911  75.1056976  82.6870804  42.6327972  75.0874634
  82.3892822  41.2581177  74.5283966  66.4041138  25.7890396  59.0698090
  66.0545197  24.9939747  59.4721603  67.3542938  25.6830997  59.1162605
  80.4047546  19.6528530  54.4401093  80.5751953  18.7473640  54.1807442
  81.0835724  20.1610184  53.9960289  58.7745361  16.9264011  13.4663944
  59.2545013  17.4737129  12.8448524  57.9928360  17.4357929  13.6801682
  12.4014339  39.8805466  27.7212391  13.0845547  39.2963295  28.0502777
  12.3337221  40.5673599  28.3845158  17.2030373  30.5417271   3.4880111
  17.9217854  30.3807297   4.0993314  16.6624527  31.2015438   3.9223387
  48.6307144  30.2022095  19.0826035  49.0291519  29.6491623  19.7546291
  49.3257179  30.8097134  18.8293438  64.3137054   4.2522054  46.4944611
  64.5967789   4.9318194  47.1062012  64.7610168   4.4656620  45.6755676
  17.4065800  61.6670952  40.0947456  18.2572136  61.6175423  39.6586266
  17.1027031  62.5590286  39.9263878  63.1092644  28.1083145  75.8300476
  62.6692543  27.3715324  75.4060440  62.7302551  28.8838673  75.4164047
  20.8350086  70.6691971  68.1624832  20.9706707  70.8704834  69.0883942
  19.9115963  70.8676300  68.0070343  26.7159195  57.9530067   6.4069858
  26.7866783  58.1536369   7.3402448  25.7750664  57.9607239   6.2310047
  15.5838661  43.7053223   2.5904949  15.5486584  43.7825546   3.5439241
  15.6293669  44.6091042   2.2785046  56.1206055   4.2195063  45.7027817
  56.4078751   5.0717177  45.3749962  55.4222717   3.9554777  45.1037407
  61.6325912  63.8960075  41.4891510  61.1909752  63.9019890  42.3383713
  61.0907631  64.4562531  40.9334755  79.0556564  58.6806717  35.5252991
  79.7599869  59.2930031  35.3127060  79.4837646  57.8251648  35.5579185
  13.6306295  37.3902168  46.4290009  12.7571592  36.9993973  46.4057045
  14.1867256  36.7112007  46.8110008  62.0874634   7.0662746  73.5609436
  62.0464973   7.5352354  74.3943939  62.8223572   6.4613943  73.6623459
  10.5382299  38.1046715  21.9509277  11.3094130  38.4950752  21.5397186
   9.8117313  38.6649170  21.6778774  34.0829926  63.7431870  39.6376152
  33.3956947  64.2329330  40.0892792  33.8276901  62.8259354  39.7361336
  54.2371368  61.9312248  46.5809212  53.4874153  61.3812599  46.3535805
  54.2204475  61.9756432  47.5369453  18.3799458  13.7618074  40.4384537
  17.9516830  13.8990345  39.5934753  17.6778736  13.8602571  41.0815964
  17.9962292  10.8004780  15.2079325  18.7728806  10.9710846  14.6750746
  18.1694336  11.2506037  16.0347462  57.0770531  16.5729733  76.1960831
  56.7017021  16.7994518  75.3451691  57.1518364  15.6188602  76.1785736
   9.0536213  57.8816605   4.0636597   8.6747389  57.4152527   3.3185809
   9.9167957  58.1604004   3.7579377   5.7692194  40.5042572  31.9380741
   5.2186661  41.1356812  31.4750118   6.2593317  40.0607719  31.2457275
  14.3864298  40.3084679  52.8986130  14.2727022  41.2458649  53.0554047
  13.5648146  40.0321198  52.4926414  27.6678429   9.1540251  50.7726593
  27.4104443   9.0693607  49.8546104  28.5531368   8.7917185  50.8075829
  13.3102646  53.1363907  55.2161942  12.8902779  52.6533661  54.5044861
  13.5605497  53.9725189  54.8231583  48.7389412  69.5491867  87.1968842
  48.8567047  70.0124207  88.0262146  49.5776024  69.1136475  87.0446243
  54.5904579  47.0440483  69.2840729  53.8227806  47.2378502  68.7461700
  54.3105545  46.3251915  69.8507538  54.8488846  33.6240349  79.8498154
  54.7110367  32.6932716  80.0256348  55.4056587  33.9236450  80.5684738
   5.6156044  46.6629028  71.7970123   6.4908710  46.9682083  71.5584106
   5.6529918  46.5467606  72.7464066  64.8922195  41.4909248  57.7469025
  64.8254013  40.6757698  57.2496185  64.3801270  42.1223717  57.2416611
  59.3208580  26.6301498  55.7627640  58.8416519  26.2141972  56.4794044
  59.8222923  27.3285484  56.1835175  15.1750240  62.0722885   4.3554468
  16.0420628  62.4577255   4.4815893  15.2271175  61.6391296   3.5034537
  59.8544731  22.7971878  39.5982170  59.1829033  23.4781418  39.5591240
  60.5908661  23.1584282  39.1047974   0.2011565  20.7110157  35.5364342
   0.7545134  21.4571171  35.7674332   0.6609321  20.2870998  34.8117714
  82.5541153  61.5857277  75.1656036  83.2031174  61.2780838  74.5328445
  82.5328751  62.5350113  75.0446014  24.1028709  40.6916275   6.9067988
  24.8712864  40.4296722   6.3997025  23.3661251  40.2800064   6.4551291
  38.5325394  54.0855713  41.1910057  37.7647476  53.6747284  40.7935982
  38.2378120  54.9647903  41.4283752  70.0371017  22.3911724   2.9951754
  70.3791885  21.6787472   2.4551206  69.5570602  21.9508171   3.6965165
  64.2165909  35.3293495  51.9345551  63.4020844  35.2147369  52.4241180
  63.9609680  35.2293777  51.0175552  76.6185608  13.9567881  87.8853683
  77.3499222  13.9149141  87.2692566  76.3573990  13.0443068  88.0094833
  82.0385590  21.4553108  24.7931881  81.2086029  21.4267197  24.3171711
  82.4397507  22.2821732  24.5256519  78.1334000  33.9045944  23.2211990
  77.5063934  34.6266022  23.1787453  78.7151337  34.1348419  23.9456348
   8.4024792  18.8883610  24.6807404   8.0389490  18.4690075  25.4606247
   7.8470039  18.5828438  23.9635658   6.2554541  51.5883484  51.4182014
   6.3910203  50.7554436  51.8700027   5.6470294  52.0690193  51.9794540
  31.7509594  48.8117981  35.8782310  31.7187042  47.9904327  35.3877716
  30.9343967  49.2575378  35.6529045  30.2029362  36.3830223  12.2697630
  29.5196381  36.9788857  11.9627075  29.7323723  35.7168007  12.7707129
  63.6064720  36.6511383  33.1781769  64.3638840  36.1194496  32.9335022
  63.9354858  37.2375145  33.8594551  77.3516159  40.9712639  -0.3231777
  76.8154526  41.4284134   0.3247259  77.7519608  40.2503815   0.1629119
  71.3927078   0.7784642   1.1572858  70.5830307   1.2468939   1.3603398
  71.4297867   0.0730997   1.8032875  74.0456772  51.4650536  26.8550034
  74.3184433  52.3793564  26.7783527  74.6315918  50.9900970  26.2656422
  56.0889893  38.4826965  29.3708973  56.2105255  38.9170570  28.5266266
  56.9640312  38.1787567  29.6120396  57.1102448  47.0061607  61.5096970
  57.7318954  46.8547935  60.7977486  56.2582893  46.7815857  61.1355629
  60.9430809  50.3944778  89.0083618  61.1846466  49.5946617  89.4754410
  60.2066422  50.1352806  88.4545517  70.6911240  32.0706215  88.4439545
  70.9573822  31.1572151  88.5489578  71.1922379  32.5440331  89.1080322
  35.6339264  56.4703560  27.8165474  35.6749573  55.5726128  27.4869938
  36.5495071  56.7288437  27.9220562  13.7939034  12.0256357  11.8484869
  13.6779709  12.9599829  11.6759005  14.1602497  11.9889250  12.7320442
   0.0465925  57.8856926  58.2610779   0.9838219  58.0735130  58.3116341
  -0.3362864  58.6773758  57.8830910  71.5899734  21.4336929  24.5043259
  70.8522568  21.5037270  25.1102180  72.1152573  20.7115269  24.8489819
  21.0375385  52.7367477  64.3395157  21.6638012  53.3626595  64.7031937
  21.2929974  51.8952522  64.7174759  40.4596481  13.0666018   9.5006447
  40.5534821  13.8739233   8.9950190  40.6387787  12.3677835   8.8715210
  57.1188774  28.0960464  31.2030106  57.1301231  27.1484642  31.0681267
  57.6805840  28.2361469  31.9653015  40.9243393   1.6303973  72.4792633
  41.1624756   0.8844135  71.9287796  39.9921265   1.5077733  72.6586380
  78.0852051  20.8421116  25.4297085  78.7333603  20.2317848  25.0781116
  77.2442474  20.4982452  25.1283989  83.4225388  41.4008102  32.7960777
  83.5425644  42.3283081  32.5921783  82.4731598  41.2849464  32.8345566
  49.1711884  52.1564064  78.0392380  49.0930443  51.5833130  77.2765503
  48.4517937  51.8916550  78.6124802   7.4477220  68.8156281  27.9676113
   8.2716084  68.8907166  28.4490719   7.6581326  69.1181717  27.0841923
   7.4546137   3.8959534  65.8805008   7.2783041   3.1589043  66.4652328
   8.0465117   3.5397656  65.2179184  73.7035370  68.8274307  30.1195049
  74.3601456  69.3724976  29.6859074  73.9893036  67.9293594  29.9520454
  15.8355207  54.8562202  66.4176178  15.2709684  55.4617004  65.9370880
  15.9163952  54.0959358  65.8417206  19.1305504  56.4762993  28.3571301
  19.2489700  56.0912323  29.2254238  18.2430515  56.2240601  28.1022720
  76.1819916  64.2301254  44.6144981  76.8063965  64.1467133  43.8938103
  75.3472214  63.9458237  44.2422676  29.5257988   0.3275959  42.8159103
  30.3764324   0.4675631  42.3998985  29.6184559  -0.5067937  43.2757339
  54.8805275  12.6996794  33.3732491  54.0106964  12.6191015  32.9819298
  54.9841957  11.9024878  33.8928375  19.6033230  40.2944641  83.4047928
  19.8867168  41.1712837  83.1457443  20.0099983  39.7120132  82.7632370
  73.4083405   8.9832058  88.5952072  72.9284058   9.7560587  88.2975616
  73.1264801   8.8606501  89.5017166  56.5169182   4.8551350  74.5387268
  56.1156387   5.4591775  75.1635056  56.7632904   4.0946708  75.0652542
  80.8264618  44.3231735  77.0301132  81.2593460  44.1617126  77.8684311
  81.0705261  45.2205505  76.8034439  17.7691383   5.9248624  51.7210083
  18.7243176   5.9756212  51.6851501  17.5808659   4.9877982  51.7729263
  62.1489220  56.2883263  19.2123108  62.4042816  55.7898407  19.9885426
  62.6572113  57.0974121  19.2693291  77.9180145  62.9242172  66.8967590
  78.1039124  62.4763069  66.0714951  77.0089264  62.6975784  67.0927887
  52.4760056  53.9473839  46.6407776  53.3986359  53.8796616  46.3950119
  51.9997139  53.8228035  45.8198891  72.9775391  12.4848480   7.6254721
  72.8222733  12.1556911   6.7401590  72.3737106  13.2219896   7.7162671
  77.3123627   7.0230746  65.9728012  77.9738998   7.2054181  65.3054581
  77.7976837   6.6022673  66.6824570  63.5516129   6.7676921  40.1545525
  64.3801727   6.4276056  39.8168259  63.2541504   6.1016326  40.7743225
  61.6733513  52.6188850  86.7229309  61.6611595  52.1009064  87.5277786
  60.9069977  52.3194580  86.2337723   4.9538431  12.6375484  48.1361885
   4.3196259  12.1315012  48.6440430   5.5125203  13.0509510  48.7943764
  31.1891975   8.7095652  20.6915855  30.4071770   8.1960239  20.8939457
  31.5148544   8.3371782  19.8721294  60.5717049  36.3499374   1.7532711
  61.5063744  36.1814156   1.8725530  60.5334702  37.0051384   1.0565062
  16.2565517  68.0550919  21.9650764  16.5319920  68.9654236  22.0730381
  15.8227959  67.8366699  22.7899284  58.0070267  13.3682909  34.5111656
  58.7073898  12.8084764  34.8463249  57.2977867  12.7622356  34.2968941
  23.7893486  25.1142998  14.7648125  22.9787674  25.1024323  15.2737818
  24.2145977  24.2822075  14.9722214  77.6604843  48.7301865  13.6418390
  78.0742416  47.8914337  13.8456230  77.5856705  49.1721077  14.4876175
  41.3561897  10.7957315  18.5531559  40.9855156  11.5591631  18.1104336
  41.7166519  11.1434813  19.3688583  63.4927063  42.4105415   9.3515291
  63.5965347  42.1932831  10.2779474  62.6864853  42.9252357   9.3151178
   9.5386209  68.6275864  49.7709656   8.9088154  68.6593323  50.4910812
  10.3853168  68.7925720  50.1858330  45.6675262  64.2255859  52.9494057
  45.2261772  63.6580582  52.3174553  45.3973312  65.1109543  52.7057800
  84.5237732  30.4958935  38.8119202  84.8480301  31.0131855  39.5491447
  84.8533936  29.6123333  38.9759331  10.6045065  31.1660500   1.3436760
  10.7428875  30.7221355   2.1803496  10.6700697  32.0977440   1.5531476
  18.9294701  49.6985855  33.8567352  18.2597561  49.6555138  34.5392761
  19.7473030  49.4948044  34.3104439   2.6275365  39.8948059  10.0899725
   2.6855841  39.5690765   9.1917734   2.9488277  39.1714745  10.6282978
   1.1473138  26.1166134  81.6588135   0.4969667  26.1648102  80.9581299
   0.6412384  25.8950081  82.4404831  85.1425171  60.9810753  44.7674675
  85.4224548  61.6244087  45.4186134  85.3465195  61.3881416  43.9254951
  71.4104996  12.2505236  58.9057693  71.2009506  11.6657772  58.1774902
  71.5050125  11.6690693  59.6602325  54.6259460  27.8528042  38.1159477
  53.8232155  28.3438263  38.2912979  55.0793648  28.3659859  37.4471512
  42.5301819  53.4022446  26.9760132  42.0956459  53.1887932  26.1502743
  42.1913300  52.7587090  27.5983257  24.0188789   6.6519976  11.3589363
  24.6726284   6.2437544  11.9265451  23.7699795   7.4539323  11.8184814
  13.8320007  25.2663574  68.9722137  14.4834595  25.7256088  69.5022354
  13.1017227  25.8814297  68.9043121  41.7904472  27.6396885  85.2968063
  41.4544754  27.6917667  86.1915970  41.1684151  28.1491013  84.7773819
  61.5846672   9.5178041  52.3955460  60.6655045   9.2548342  52.4426613
  61.9884720   9.1160135  53.1647911  72.5627594  52.8969383  17.0149231
  72.9656219  53.1254120  16.1772289  72.9181519  53.5350647  17.6335659
  22.8781319  52.8374825  84.8577576  23.5759563  52.2737350  84.5238953
  23.2861271  53.3256454  85.5729218  61.7796173  49.4291878  61.5204239
  61.4956779  48.7028923  62.0754967  62.1308594  50.0755692  62.1328354
  31.9414558  65.6435471  49.9457245  31.4099789  65.2295380  49.2657509
  32.0466995  66.5478287  49.6500397  74.1522064  62.5189705  19.5698872
  74.6931229  63.3078270  19.6065350  73.9749756  62.3931808  18.6376877
  86.1958694  64.9547195  24.9199142  86.8702393  65.3457489  24.3644409
  86.6794205  64.5810242  25.6566353  43.4149055  18.5519753  35.2849617
  42.5989761  18.9744434  35.5532990  43.1374664  17.7286568  34.8832054
  23.8032055  14.1124935  69.1455002  24.6874905  14.4522676  69.0082855
  23.6247082  13.5872803  68.3654175  29.3120384  25.4331379   5.1019378
  28.9436092  24.6457825   5.5026431  30.2422676  25.4028168   5.3255157
   5.0845661  55.7882462  39.1101112   5.2169461  54.8402710  39.1169205
   5.3084102  56.0549393  38.2184830  62.0143013  60.2493629  44.2660675
  62.3167000  61.1419373  44.0984421  62.7580299  59.6958237  44.0279655
   4.8400860  54.4130402  11.0182924   4.5074992  54.5478020  11.9056807
   5.0857835  55.2884445  10.7190809  13.8912830  16.5420742   0.6327760
  13.1398239  16.1694775   1.0939837  13.9304514  16.0576382  -0.1918568
  20.3310890  30.7590160  29.9321136  19.9721355  30.4626312  29.0957298
  20.1650715  30.0338497  30.5344467  76.5918350  23.2206764   2.5346146
  75.9381638  22.5926819   2.2270873  77.0818558  22.7466717   3.2064989
   6.0099139  12.3759241  58.2866669   6.8138013  11.9284039  58.0226173
   6.2702703  13.2903023  58.3978386  65.6676559   4.6193161  60.1648216
  66.5343475   5.0249457  60.1879272  65.3918839   4.6953816  59.2513695
  53.1342010  13.4781914  60.6579208  53.3362923  13.5631313  61.5896797
  53.7785034  14.0354080  60.2213287  40.3682976  15.9476891  31.4296761
  40.6963768  15.4011259  32.1437225  40.0114326  16.7218132  31.8651199
   1.6386683  11.5430937  51.2458992   2.3068266  11.2884941  51.8822784
   1.8368480  12.4573860  51.0433502  33.8169174  42.9907875  80.9073563
  33.5064392  43.6788597  81.4959030  33.2532845  43.0621910  80.1370010
  74.7600403  36.6814537  62.6799126  75.6270599  36.7286148  63.0827675
  74.9139099  36.8804932  61.7563667  45.9006119   2.7450089  19.4379578
  45.1235161   2.2040272  19.5782890  46.5285110   2.1577008  19.0171890
  33.9047318   5.4781165  79.7518311  33.3956032   6.2481165  80.0050583
  33.4391823   5.1213140  78.9954071   0.7336767  70.4978638  81.0780869
   0.2980892  71.3431931  81.1872406   0.4563831  69.9856796  81.8376999
  78.3839111   2.0577676  65.8510437  78.1691284   1.2001264  66.2178497
  79.3349838   2.0411909  65.7441711  61.8363647  21.0636673  20.5868549
  61.3118858  20.9340591  19.7966938  62.7409706  21.0777359  20.2742481
  14.2623186  64.3772659  61.3727913  14.4891977  65.1645966  61.8676224
  13.4954214  64.0237885  61.8235207  67.6617432  12.1259060  37.6564598
  67.9093857  11.6868563  38.4701805  68.2230148  12.9005079  37.6218491
  82.6571274  58.2739258  75.7867508  81.8271866  57.7978020  75.7596283
  83.0552292  58.0141792  76.6175766  41.9084435   8.6085587  81.6679382
  41.6007385   8.1807623  80.8688507  41.1188736   8.7255201  82.1962662
  77.6582184   9.7704620  11.7522678  78.3126221  10.2771711  11.2714005
  77.7955704   8.8678341  11.4648142  12.9441614  37.6185303  35.4816780
  12.6662121  38.4496346  35.0966530  13.7460918  37.8318977  35.9587708
  35.5233803  46.7293129  37.1049576  35.0909615  46.0131874  36.6397667
  34.8192520  47.1594391  37.5901642  64.4197540   5.5539374  73.7220764
  64.7716599   5.0606165  74.4630356  65.0493011   6.2618289  73.5849762
  34.7453461   5.8940773  74.6001358  33.9046059   5.8762479  75.0573807
  35.3987427   5.8714080  75.2992706  80.7611465  10.8016987  67.8219604
  80.1655884  10.4168100  67.1789932  80.4430008  10.4803209  68.6655960
  13.0827560  24.5453529  59.9532127  12.5985241  23.7514381  59.7263794
  13.7976952  24.5796452  59.3176651  57.5656548  38.9727974  -0.1099215
  57.6452103  38.0305061  -0.2582226  57.2308998  39.0471878   0.7837424
  11.2544622  41.4587708  30.1762695  11.9618397  41.9160995  30.6309109
  10.6702833  42.1564064  29.8791676  35.7937927   0.5029172  45.6921730
  35.1571808   0.0110838  46.2108803  36.2430840   1.0588909  46.3287735
  47.2588654  58.1234856  38.3044167  46.5989647  58.8167152  38.2905540
  47.7256317  58.2205009  37.4743881  80.5254517  56.6932755  29.5197506
  80.4325790  56.0863113  28.7854481  80.7832565  57.5214119  29.1148357
   1.4785929  28.6342888  88.6241989   2.2695534  28.9489613  88.1864853
   0.7850218  29.2158184  88.3127289  12.0169573  11.4472713  83.6756134
  11.2183533  11.5288010  83.1542587  11.9954014  10.5499086  84.0080414
  41.0721779   2.3802745  40.8862877  40.9300003   1.8076569  41.6400299
  40.4604607   3.1047802  41.0171432  56.4791336  62.9204254  51.3333282
  57.2840729  63.1395569  51.8026695  56.3737793  63.6266212  50.6958160
  54.8113365  15.9011641   8.3571987  53.8904839  16.1325932   8.2359447
  54.7919884  14.9953804   8.6660872  46.4180946  46.7787476  74.6489258
  47.3555107  46.9521408  74.7350616  46.0241737  47.6434746  74.5335846
  43.4889412   1.9764283  46.5594902  43.5051613   2.0681598  47.5121460
  42.6243439   1.6127609  46.3685760  35.8555145  10.9863396  50.7773819
  36.2706833  11.6915369  51.2739334  35.7899170  11.3278093  49.8855705
  21.7916489  47.9909668  80.7700958  21.6683884  48.8946381  81.0606461
  22.5276585  48.0339394  80.1596298  64.2691803  11.7833757  80.7293472
  64.7314453  12.5809994  80.9869080  63.3703613  12.0694466  80.5665054
  78.7938156  21.1282883  72.9303741  78.4734650  21.6881332  72.2231445
  78.4541092  20.2585011  72.7198944  51.4723854  56.3087234  37.9908638
  50.8041382  55.7485809  37.5959969  51.2973175  56.2642212  38.9308662
  78.0352859  38.3827133  59.5189667  78.5153656  37.5640411  59.3943367
  78.6005096  39.0527344  59.1344910  68.1526260  13.7856426  51.3331909
  67.5589905  13.3049793  51.9100723  68.9733734  13.2945499  51.3711739
  48.3639336  24.5313034  84.5759888  48.0572739  25.1975822  83.9609604
  47.6177788  23.9410629  84.6813660  35.1365662  47.0593872  28.4546108
  35.1837769  48.0076332  28.5764236  35.5374413  46.9076004  27.5987530
  65.0239410  26.3917389  27.4415703  65.5070953  25.7987442  26.8661137
  64.1984406  26.5501385  26.9836483  43.2588806  20.3272610  15.1464043
  42.3450089  20.0519867  15.2191868  43.2123833  21.2355843  14.8480463
  26.7164974  17.0509663   4.5468802  26.4202194  17.0779762   3.6370885
  27.5075207  17.5898590   4.5572696  12.1013212  70.9043808   4.9493508
  12.3808117  69.9977875   5.0766664  12.7217216  71.4207764   5.4638152
  45.9098587   7.7594714  25.5253868  45.9089622   7.3019199  24.6846275
  45.0232658   8.1107283  25.6078568  75.9428329  59.2992401  19.4159775
  76.6936874  59.7260475  19.0033169  76.3142319  58.8325768  20.1646557
  69.5434036  60.5874748  53.3622169  70.1251831  61.0678139  52.7731171
  69.9587250  60.6609726  54.2214813  50.6622086   8.7914238   1.6419543
  50.6603584   9.6327324   1.1854160  51.0308609   8.1759005   1.0083482
   0.9030105  22.4702644  59.4614410   1.0058674  21.6820564  59.9947128
   0.7299269  23.1669331  60.0946312  67.5391541  12.5419664  53.7339516
  67.4282303  13.4350843  54.0599403  68.2259521  12.1688757  54.2865334
  36.6906967  16.3393764  30.8470249  36.3397598  16.2204323  31.7295914
  35.9204788  16.5047092  30.3032761   4.8798680  69.4320374  62.4254227
   5.5464559  68.9706421  61.9164886   5.0837417  69.2189941  63.3360710
  45.0087891   2.9726174  23.8452682  44.6076012   3.6312706  24.4122391
  44.4188385   2.2206156  23.8970642  58.7399178  41.6212578  23.1318417
  59.2869072  42.2542381  23.5969925  58.5126915  40.9686737  23.7942123
  66.2772369  43.2225418  68.2512436  67.0868759  42.8425751  67.9101486
  66.1156921  42.7490959  69.0673218  58.6528282  12.4091482  40.0157394
  58.3137932  13.2997990  39.9261322  57.8722267  11.8551998  40.0217361
  71.5074081  55.4055748  23.7736378  70.9067078  55.1939545  23.0590668
  71.2857895  54.7821999  24.4653893  84.0302277  69.9616241  78.1436386
  83.6789932  69.9101944  77.2546921  83.6399536  70.7552414  78.5098267
  20.4302292   9.5831041  40.6935310  20.6770477   9.9949684  39.8654747
  21.1347256   9.8182821  41.2973595  28.3239765  64.6822281  38.0331688
  29.1700802  65.1051865  38.1796341  28.5266056  63.9251213  37.4836578
  65.7061081  30.8237915  40.5849533  64.9939499  30.5929508  41.1814194
  65.8555527  31.7564564  40.7399750  30.5591145  57.5130005  80.4009781
  31.0018501  58.3410797  80.2152405  30.6325798  57.4096718  81.3497467
  39.7320862   3.4815950  32.0783730  39.0409775   3.9823005  32.5118408
  40.0509300   2.8807662  32.7518539  47.9713821  28.6712532   2.5053582
  47.7729034  28.9565525   1.6134832  48.7996864  29.1022854   2.7159622
  43.5099220  16.1517620  33.5682220  43.6183014  15.2948580  33.1556664
  43.4381409  16.7631359  32.8352127   3.5105309   1.8239474   0.8608147
   3.9604037   1.9300092   1.6990254   3.5370104   2.6941538   0.4629807
  61.3826866  24.0286160  85.7930450  62.0525894  23.7868233  86.4325790
  60.5576363  23.9626331  86.2738495  37.0157585  49.6539001   1.2783207
  36.8506317  48.8673744   1.7982655  36.2485542  50.2060890   1.4290328
  82.2389374  38.0240593  68.0467148  82.8555756  38.2803040  67.3609085
  82.2873306  37.0683098  68.0674133  62.6593132  26.5744286  14.5485449
  63.0177841  27.4195023  14.8197985  61.8015556  26.5313301  14.9711895
  62.4319191  12.4111090  89.0474319  62.5181351  13.1916409  88.5000992
  63.0305786  11.7758379  88.6546631  50.4862709  46.9005814  83.2318115
  49.7060852  47.2979240  82.8449554  50.3514061  46.9783211  84.1762695
  72.2821732  21.9740181  35.9128304  72.5523605  22.5842514  35.2266464
  71.4576492  21.6060467  35.5950356  74.6586609  30.0964813  88.6356812
  74.9973145  29.4073658  89.2072296  73.7207870  29.9158401  88.5724640
   8.6960325  28.0099850  40.4372787   9.0560026  28.0973587  41.3198967
   8.7385397  27.0716381  40.2530823  57.7214851  62.4138374  46.5751381
  57.3428993  61.7110748  47.1033745  58.1999130  62.9546547  47.2035141
  26.9849186  11.0323048  25.8373947  27.7888088  11.4280624  25.5006943
  26.3306274  11.2063942  25.1607647  65.2368011   6.6021781  37.3230247
  65.1566238   5.9181733  36.6582375  64.4377594   6.5244040  37.8442841
  76.3152695  18.4039898   4.0537758  75.7123871  18.7265053   4.7236633
  76.0319290  17.5045509   3.8895750  48.5812454   5.3758078  79.1417236
  48.5030632   6.0585675  78.4754181  49.5234756   5.2889996  79.2862854
  59.3698578  12.9457560   4.2048035  59.4768219  12.0266733   3.9596965
  60.2533112  13.3109760   4.1562190  82.9613037  24.2932644  72.2197266
  82.0589142  24.0088139  72.0747757  82.9470444  24.7039375  73.0842361
  51.3638840  44.6487656  71.6448593  52.3106079  44.7372932  71.5348358
  50.9904633  45.1618080  70.9282150  24.2153549  68.5527649  23.2574348
  23.2957363  68.7852402  23.1290398  24.4814949  69.0474243  24.0324879
  79.6318054  33.0761833  54.9720154  79.0090179  33.5324516  55.5378609
  79.0842590  32.6074142  54.3421936  74.5475616   6.7051373  39.8214569
  75.0039368   6.1769552  40.4764175  75.0195999   6.5360026  39.0061035
  32.9960098   1.4296430  23.6564426  32.5652542   1.1501585  22.8486252
  33.5672188   2.1488514  23.3868313   1.2425317  36.5407295  79.4277573
   0.8685751  35.9389687  80.0713959   0.7757267  36.3432884  78.6157608
  77.8576431  52.4414787   9.2560024  77.0896149  52.2832336   8.7070742
  77.5926208  53.1524849   9.8394947  80.9171524  14.6540203   4.6465507
  80.7848816  13.7185726   4.8004160  81.3907928  14.6954842   3.8157797
  27.6128979   6.0905590  80.2859192  28.0121746   5.7944226  81.1039124
  27.5457153   7.0405169  80.3823471   6.0088224  35.6710777   0.4045373
   5.3667617  35.9778481  -0.2356825   5.8801417  34.7231369   0.4374653
  17.4810829  36.1888084  38.0538292  17.5700016  37.1352425  37.9416389
  17.9603634  35.8139496  37.3149071  41.4137001   7.7779007  86.5799179
  41.8169708   8.3098469  85.8938828  40.9911766   7.0597095  86.1088486
  50.2702255  12.7997427  25.2923222  51.0201340  13.1233635  25.7914581
  50.6507187  12.2015142  24.6492195  83.5222931  58.0503845  78.5072784
  84.3846741  58.4655533  78.4941635  83.3892975  57.8033333  79.4224319
  61.6917877   9.8804417  23.6870670  61.6380692  10.8167915  23.8783627
  62.1113625   9.8351898  22.8279152  53.0573044  28.2934418  77.4371948
  53.7367363  28.4755516  78.0863800  52.5242043  29.0882435  77.4190216
  62.2822151  27.5323353  42.4912605  61.8524628  27.3605518  41.6533852
  62.5635033  28.4454403  42.4334030  35.5134201  12.8328266  48.7890091
  36.3749924  13.1702871  49.0340576  34.9288712  13.5863600  48.8709717
  38.3685532   6.4501228   0.4588322  38.6610680   6.1001315   1.3003619
  38.5985336   7.3786693   0.4926393  12.4436750  32.9580154   3.0899665
  13.0628767  33.0280075   2.3633838  12.1794701  33.8607750   3.2673061
  43.7210922  44.9021606  26.1060753  42.9881401  45.0196037  26.7104092
  43.9904022  43.9920540  26.2302017  -0.1305809   1.5644431   7.4818673
   0.7942077   1.7823645   7.5980916  -0.1706674   1.1394500   6.6251264
   5.0721550  16.6959171  64.8651733   4.5492020  15.9854412  64.4937210
   4.5814848  16.9757500  65.6379395  61.3549500  69.6013260  31.9535656
  60.5431976  69.2217789  32.2900620  61.9935989  68.8906784  32.0113373
  55.3588219  64.2568283  45.2537193  56.2796898  64.2462845  45.5147247
  54.9916801  63.4609909  45.6385231  52.3638420   4.7608318  26.3755836
  52.3004074   3.8990233  26.7872810  51.5163574   5.1713047  26.5473843
  86.6546707  25.5362988  73.4953613  86.1760101  25.7902374  74.2844315
  86.3495865  26.1460361  72.8235245  39.9516449   9.5912647  13.6585512
  40.0710564   9.6193886  12.7092457  40.7167397   9.1157618  13.9822083
  15.6552258  51.8928299  10.0887785  15.2450018  52.3120842  10.8452005
  15.9587879  52.6210175   9.5467186  67.2564240  28.6322746  63.1459923
  66.7913132  27.9264755  63.5951576  67.1706848  28.4218540  62.2161522
  64.1717529  55.0952797  21.3103180  64.7739639  55.5324821  20.7082958
  64.1768494  55.6439209  22.0946655  23.0213413  71.3062744  18.0837345
  22.1383820  71.6520386  17.9531231  22.9223976  70.6517258  18.7751160
  83.5419159  11.0653305  35.9253311  84.1644363  11.7413950  35.6576843
  83.1782227  11.3875942  36.7500191  81.7826157   6.9217257  45.0262260
  82.6800461   7.1951046  45.2162933  81.6864548   7.0544615  44.0831680
  61.9280243   7.3473520  48.4586411  62.0604630   7.4664049  47.5181541
  61.1433182   6.8029914  48.5229988  76.4770355   4.5358543  35.9921417
  76.4337845   4.3756409  36.9348488  75.6492615   4.9694200  35.7846565
  55.3933525  26.9758816   7.1982188  55.2671013  26.5297318   6.3608165
  56.0701180  26.4649010   7.6422014  29.3538971  70.6226425   5.4826894
  28.6073437  70.1284027   5.8212404  29.9607887  69.9533005   5.1666336
   0.9081762  46.4181328  45.9508438   0.3908452  46.6567688  45.1816521
   0.2610194  46.1313210  46.5951729  74.1332321  60.8741798  52.1042480
  73.2710953  61.0071220  51.7101974  73.9921722  61.0114746  53.0409889
  69.7181931  56.1069450  44.0586510  69.3991394  55.4762192  44.7041130
  69.4922791  55.7193832  43.2130775  15.2436724  37.9349403  63.6627769
  15.9260120  37.8539619  62.9963799  14.4412050  37.6614799  63.2183723
  69.1726685  61.6347542  46.5938950  69.2332535  60.8947563  47.1980209
  68.6233368  61.3152237  45.8780975  81.2905426  23.7131634   8.3982906
  80.4850388  24.2234707   8.4817991  81.6714859  23.7215157   9.2763824
  33.1418571  23.5868130  12.9413042  33.2427750  22.8966808  13.5968685
  32.2847214  23.9702263  13.1271667  20.4824257   3.1816905  24.9638462
  21.2065296   3.8016820  25.0505333  20.9069996   2.3369737  24.8141098
  77.9494781   3.2426047  72.6225891  77.9712067   3.8393571  71.8744965
  77.2209244   2.6505809  72.4356308  37.4858208   8.6783819  40.5208473
  37.5983086   9.5520248  40.8954468  38.3779716   8.3566599  40.3912544
  59.0884132  11.8663826  86.0959473  58.7957993  12.7775335  86.1162262
  59.9843826  11.9099379  85.7619171  64.6404419  60.1417656   7.7100520
  64.9219131  59.2793579   8.0154333  63.7255974  60.0192413   7.4565315
   1.4321290  38.1408882  48.1431274   1.3683486  38.6717377  48.9370804
   1.4531152  37.2378464  48.4598389  56.7269783  18.4691162   6.1122670
  56.3660812  18.7080021   6.9660344  57.3933907  17.8109455   6.3095956
  56.6320839  32.9104347  81.8093719  55.9893570  32.3559303  81.3670273
  56.4539909  32.7865906  82.7416687  70.3364258  35.8734741  57.0699081
  70.7023315  36.2054214  57.8897591  69.4533081  35.5855064  57.3010139
  74.6980591  36.7962303  74.8604889  75.0059052  35.9140244  74.6527023
  74.6516495  37.2394295  74.0133438  75.1267776  17.6426086  50.6137924
  76.0742493  17.6104202  50.7460823  74.7713852  17.0590687  51.2841682
  23.2199287  29.7853718  85.2499313  23.2701263  29.4511013  86.1454620
  24.0947227  29.6386814  84.8901367   5.1808753  58.9629097  65.2307663
   4.7368960  58.1324196  65.4022446   5.2090745  59.3996582  66.0820541
  66.2399673  49.1600838  64.8540497  67.1890182  49.1018333  64.9642258
  65.9842300  48.2998123  64.5212250  46.3714752  39.8651886  79.6251450
  46.7707367  40.6902542  79.3492889  47.1074486  39.2587433  79.7076111
  78.9995117  55.2112083   1.5141317  79.3059769  54.3506660   1.8001031
  79.7879333  55.7538185   1.5003260  28.9427319  64.7785721  72.1887207
  28.1095772  64.9592514  71.7534790  28.9427872  63.8306770  72.3218613
  33.1948891   4.8577681  43.7985649  32.7098045   5.6489105  43.5640030
  34.0280838   5.1806083  44.1417732  66.2817078  29.7807274  30.7348938
  66.9866028  29.6405296  31.3671112  66.4835892  29.1833897  30.0147114
  22.4786167   6.4386621  64.1610870  22.7931328   6.1897578  65.0302048
  22.8503494   7.3079977  64.0117493  27.0735588   0.2376392  58.2809715
  27.0450401   0.9562729  57.6493187  26.6198463   0.5782465  59.0519218
   1.6248623  48.5013161   9.9591379   1.1694930  49.3257904   9.7885103
   0.9238185  47.8672562  10.1099339  34.3874855  13.0746260  65.5109406
  34.1458893  12.1526270  65.4227219  35.2553024  13.0572739  65.9144592
  25.7776489  39.5018578  11.1926918  25.0230064  39.7913361  10.6799068
  25.7977886  40.0940475  11.9444485  25.2842083  51.1856766  39.9748764
  25.0256348  51.1390800  39.0544434  24.7543869  51.8959618  40.3368378
  66.1700821   6.1853485  39.9122429  66.1720657   6.3726587  38.9735489
  66.9060669   5.5865164  40.0385399   7.8343291  58.9293594  10.1050262
   8.3411865  59.2850876   9.3751068   7.7936888  59.6448402  10.7395887
  17.6285686  47.7601852  15.7681608  17.7545471  46.8328323  15.9691048
  18.4946709  48.1504822  15.8854828  16.5120201  67.5222244  60.5383453
  16.9830227  67.8648911  59.7787628  17.0939388  67.6942673  61.2786179
  79.3734589  45.0838585  23.7396946  80.0412140  45.5671272  24.2263069
  79.1805801  44.3235626  24.2883110  57.5376015  26.7427902  45.3551254
  58.2003288  27.0184536  44.7218513  57.8134346  25.8666515  45.6244316
  80.2564240  29.0070210  24.2277393  80.4531860  29.8460083  23.8110657
  79.3437500  29.0856705  24.5053501   2.0559533  12.2550831  33.6362381
   2.7606306  12.3325062  34.2794075   2.0598781  13.0935688  33.1745491
  19.6260166  20.5817375   9.7632065  18.9295692  20.8271732   9.1541462
  19.7092628  19.6335163   9.6623249  11.4927769   1.1042370  68.2648239
  11.2758226   0.7512072  69.1276855  10.9763556   1.9073931  68.1978836
  61.0026398  27.2638588  53.5023613  60.7052345  28.1693478  53.4136314
  60.4383202  26.8917313  54.1800766   6.2722416  56.5311432  60.6371918
   6.4758730  55.8409615  61.2683983   7.1046920  56.9832039  60.4997253
  32.9896736  24.2206650  87.8510513  32.3708992  24.7200069  87.3181381
  32.5611649  24.1399460  88.7031631  51.4197273  65.3297501  28.9509773
  51.9299393  65.7388000  28.2519855  51.4293938  65.9711838  29.6613941
  39.4977112  10.2189980  23.2734394  39.9558487   9.4025087  23.0742264
  39.1098785  10.0717010  24.1360626  25.2941494  52.4494400   4.8519831
  24.8967876  52.0332909   4.0870275  25.8509483  51.7699432   5.2321081
  18.0391903  45.2930031  16.7413769  18.6189613  45.0072861  17.4473972
  18.0260773  44.5569687  16.1295624  80.2482529  21.3952179  51.1152077
  80.2497635  20.4851360  50.8185921  80.4775925  21.3450699  52.0431709
  47.8631630  70.7377319  47.0336037  47.8254662  70.7033844  47.9894447
  48.7974510  70.6983490  46.8291817  37.3312607  57.3511505   6.4334579
  36.4907036  57.3454208   6.8913512  37.1667404  57.8560867   5.6370864
  34.1248131  52.7263947  29.8417835  33.9529228  52.3098907  30.6863003
  34.9201775  53.2392960  29.9851570  12.6687517  18.3628292  28.7813072
  13.5026569  17.9471226  28.5621681  12.7529421  19.2572994  28.4510593
  16.6736832  62.2351303  84.7295990  16.6389885  62.4254951  83.7921600
  17.5332623  61.8350525  84.8610992  66.8645630  55.8081398   2.8740919
  67.1067352  55.0949020   3.4647505  66.7346802  55.3833160   2.0262187
  73.9835434  65.8363190  30.3094254  74.4716873  65.5733566  31.0896816
  74.4498444  65.4210587  29.5839233  16.5357132  22.8181229  51.7039337
  16.4456196  22.5716095  50.7834206  17.4771061  22.9383564  51.8286552
  57.2052460  38.0243073  16.1378708  56.8812447  37.2838287  15.6250887
  57.4997940  38.6580200  15.4837446  83.2817764  22.5492821  62.9803772
  83.4656982  22.9111481  62.1135101  82.3535614  22.3173656  62.9510994
  84.7917938  19.8410530  62.3923798  84.9769287  20.0042210  61.4675369
  85.4845734  20.3064747  62.8610649  79.9062805  38.7914505   8.3751173
  80.0096054  39.6623154   8.7587223  79.9890289  38.1917725   9.1165810
  10.7557554  52.1781502  78.2814636  10.5484219  52.2980804  77.3547211
  11.6945496  52.3549805  78.3417053  30.2611732  37.6236115   6.1582379
  30.1145115  36.7229500   6.4472618  29.7937889  37.6869774   5.3253098
  21.3248539  36.6068916  59.7938423  21.4899693  36.0990829  58.9994240
  22.1899185  36.9123077  60.0670013  54.7236900  51.9519386  85.0979843
  54.0326881  51.5617867  85.6332703  54.5144424  51.6829529  84.2035065
  46.8167343  22.1218834  16.2889881  45.9775620  21.9427509  16.7131691
  47.0117416  23.0305843  16.5180454  38.4593353  17.4649181  74.4279175
  37.5508270  17.7657814  74.4459610  38.4651833  16.7593670  73.7810822
  74.5204620  70.0888290  52.3255959  75.3350754  70.3792496  51.9153519
  73.8828049  70.0796585  51.6117706   4.9674649  54.6209145  16.7108555
   4.5911937  55.4662628  16.4658241   5.7197690  54.8435211  17.2592316
  56.6026077  55.2828217  83.7260666  57.4896927  55.2693596  84.0854111
  56.6780853  54.8323822  82.8848572   7.8875504  48.1047478  31.9861221
   8.7454176  48.5264206  31.9362469   7.5948963  48.2626076  32.8837128
   5.3704348  32.9223671   0.4624909   4.9894896  32.9926224  -0.4128243
   5.8744974  32.1089592   0.4397490  73.9273605  66.4485550  26.0029564
  73.4023438  65.6581573  26.1289310  74.8221054  66.1768875  26.2075405
  86.4825745  24.3692760  61.0466766  86.1170273  24.9883938  60.4147758
  86.1383591  24.6583004  61.8917885   5.2077799  62.1600075  30.6357975
   4.4004154  62.6100960  30.3871708   5.8030252  62.8626518  30.8969612
  82.6003189  48.8943901  27.9666729  81.9050293  48.6252251  28.5669670
  82.3462524  48.5206223  27.1228867  82.3794403  36.3221130  47.2504387
  82.9203110  36.6919479  46.5526505  81.6229706  35.9512520  46.7960739
  19.6121693  12.3519993  22.7905273  19.6208477  12.6300669  23.7064056
  19.8689327  13.1331987  22.3005981  66.9482574  28.0069027  15.9868240
  67.1629562  28.6223431  16.6878014  66.0218353  27.8061581  16.1197643
  46.4385452  31.9836216  20.8546104  46.1740417  31.6575203  19.9944210
  47.0911102  32.6577225  20.6649189  50.5214806  53.5542450  16.9505215
  50.5066490  54.5040131  17.0686474  49.6597366  53.2624130  17.2479477
  13.8972464  39.5761681  31.8085575  14.1673365  38.6947098  32.0660667
  14.3431683  40.1538506  32.4279709  41.2122841  71.0524673  79.5191269
  40.7296524  71.8290634  79.8023071  42.1310463  71.3200607  79.5415573
  78.0037155  46.1860352  58.7681465  78.2262421  46.6212006  59.5911598
  77.0508881  46.0982666  58.7936096  52.2455101  63.2656898  40.4724083
  52.4021111  63.6926842  39.6301575  53.0309181  62.7400017  40.6241302
  44.0783691  22.5219402   5.6023178  44.2376823  22.0653725   4.7762442
  43.3870277  23.1517811   5.3984084  25.7076912  49.5341568  49.1169777
  25.9648285  48.9553223  48.3992958  24.9073620  49.1419067  49.4660378
   5.0243759  13.5974541  43.7510071   4.7580600  12.6968956  43.5657997
   5.8769341  13.6874714  43.3252449  47.4272308  13.3123817  13.8434229
  48.2458344  13.6042271  14.2446022  47.4824486  12.3568392  13.8544083
  75.1098022  55.9286308  73.7159653  75.0210571  56.7701530  74.1633987
  74.3740311  55.4076195  74.0375443  12.0259428   9.6904478  11.7203436
  12.4739590  10.5357018  11.6878080  12.2986755   9.2438049  10.9188700
   8.3355637  21.5976582  42.1471939   7.7963600  21.4949417  41.3630142
   9.1570425  21.9694614  41.8260002  75.4350662  69.8716125  11.6460867
  74.6910858  69.8137741  11.0466022  75.6233597  68.9633713  11.8824606
   7.1945615  48.2807274  34.6223030   7.4279103  48.9576607  35.2575493
   7.5459065  47.4717979  34.9943542  61.1267929  17.0796318  86.7111740
  60.8760757  17.9816303  86.5117493  60.4243736  16.7547569  87.2744598
  21.6754227  70.2869797  45.8212128  21.6748924  71.2410355  45.8987045
  22.2195740  69.9878159  46.5496597   5.4721999  41.2421875   8.1833429
   5.8804908  40.3764381   8.1857090   4.5826106  41.0866013   7.8660817
  48.9881668  56.1738548  66.6350403  48.3684387  56.6095543  67.2201309
  48.4382629  55.6618423  66.0420151   3.6832042  17.4024315  72.7728195
   2.7516134  17.3735809  72.5547943   3.7596750  16.8743019  73.5674667
  44.6914062  53.8821526  61.2910042  45.2001114  54.2294998  62.0236702
  44.9999428  52.9815979  61.1908073   6.3456755   2.2619798  85.6243668
   5.5696311   1.7393751  85.4222031   6.1396623   3.1354148  85.2913513
  79.5333862   1.4590170  59.1950493  79.7625656   2.0191340  58.4534454
  78.8010483   1.9081929  59.6171303  45.6573944  57.9609375  41.7589073
  45.4896889  57.9156418  40.8176003  46.6067276  57.8673019  41.8378296
  12.6234055   3.5820944  79.3218994  11.9772787   2.8966000  79.4917450
  12.1017656   4.3684616  79.1614304  80.2046661  10.9427614  13.9653683
  80.1484985   9.9968662  14.1008615  80.9897614  11.2072020  14.4448786
  82.6799011  60.4451408  21.2207317  83.5709000  60.7533379  21.0553131
  82.1907349  60.6946068  20.4366894  16.2362633  41.4605827  72.1879120
  16.6509457  42.1259460  71.6387634  16.1663761  41.8709602  73.0498505
  52.2826195  16.6127033  31.6572685  51.9968491  15.8620405  31.1366234
  52.1974869  17.3606205  31.0659943   6.5723524  35.0132446  67.6595459
   5.9156070  34.3424911  67.8466568   6.6685729  35.4906883  68.4835739
  21.6855659  44.8798637  15.6215038  20.9551277  44.9960289  15.0138893
  22.4569340  45.1497498  15.1231213  18.4445133  21.2958984  19.5234146
  18.5409203  20.3453293  19.4654999  18.7822132  21.5184727  20.3909683
  43.5125160   5.3983736  39.0384483  42.9861679   6.1231041  38.7008781
  43.4211578   4.7092075  38.3804703  53.8883247  21.8994827   7.1411791
  53.9537849  21.1812210   6.5118585  53.1956902  21.6278687   7.7434359
  55.8445854   6.8374138  54.7135353  55.9189987   7.4701338  53.9991417
  56.0385208   5.9929442  54.3067284  49.8209763   8.0471601  36.4502716
  50.5863152   8.6208267  36.4129295  49.8145218   7.6010103  35.6034279
  82.1302567  43.7514801  26.4062748  81.4970169  43.1276054  26.0512772
  81.8462982  44.6002693  26.0669212  25.8835068  38.9499130  15.2601786
  26.4067841  38.1552696  15.1555014  26.4739819  39.6602936  15.0093222
  53.4004631   6.6138582  72.8224182  53.8244019   7.2879853  72.2913208
  53.3281937   7.0051007  73.6930161  82.6883698  29.8104591  68.5917587
  83.4656296  29.2918587  68.7994766  82.5860214  29.7196789  67.6443863
  73.7799988  47.1702576   7.4470558  74.5362778  47.4917641   6.9562354
  73.0443649  47.6878700   7.1197104  45.0632935  31.3866138   2.8101473
  45.4549332  32.0550957   3.3722723  44.9815445  31.8101120   1.9556313
  26.7240410  63.5335312   2.7464964  26.1517735  63.5176239   3.5136254
  26.3034573  64.1496048   2.1466677  58.2988815   2.7117078  45.2277870
  58.6016312   2.6867998  44.3200684  57.6092072   3.3754587  45.2321167
  69.2174072  70.5163040  72.7027664  69.2456818  71.4728775  72.6826096
  68.2856750  70.3030930  72.6513214  53.3335266  27.5795536  29.9455032
  53.2467346  27.0684319  29.1408577  53.5398941  26.9319763  30.6195126
  34.3826370  69.8609238   8.1668901  33.9854965  70.2935867   7.4110389
  33.7005081  69.8776550   8.8381939  44.6349297  55.0605888   8.2024279
  43.7035637  54.8763847   8.0805540  44.9009857  54.4853706   8.9197636
  45.5676384  29.4986744   6.8967524  46.0947037  28.7093353   7.0207705
  44.7762070  29.1912155   6.4547825  77.5845337   3.3133583  52.1122665
  77.9546661   3.5560329  51.2635384  77.5651779   2.3564281  52.1003380
  22.2900238  14.6758099   2.5505362  22.5457020  15.1801338   3.3228815
  21.4088192  14.9864082   2.3426006  82.6120224  12.5889006  85.4799423
  82.7116699  12.5032320  84.5318069  81.6690140  12.6836615  85.6140747
  67.3136444  53.7815781  31.2733612  67.2560654  52.9499702  30.8028870
  67.2687683  54.4481697  30.5878887  68.1249619  57.3580704  80.9520187
  68.5211411  56.6898232  81.5112381  67.4545822  57.7637634  81.5017776
  40.9604836  24.9111881  23.6089096  41.4252396  24.8753395  24.4449425
  40.1789017  25.4327297  23.7915363  72.7028427  40.4734001  62.1741447
  73.4775620  40.5651245  62.7287865  72.9930954  40.7595482  61.3080559
   2.8306217   9.7481394  75.3784027   2.6446221  10.3293657  74.6409683
   2.8670411   8.8736572  74.9908676  71.6114426  10.9006977  47.8151817
  71.1199417  10.8335428  48.6338120  70.9429321  10.8665352  47.1309586
  28.0041962   1.0733764  55.2607765  28.4257374   1.8299049  55.6684532
  28.7006073   0.6550974  54.7545280  39.0970497  66.2965927  29.9374561
  39.4750137  66.9161682  29.3133602  38.7253532  66.8473511  30.6264706
  30.2719841  63.9048386  64.9683151  30.9462910  64.1632767  65.5966034
  29.4613743  63.8953705  65.4772873  43.1751442  16.6964817  30.5052185
  43.1788254  17.2974873  29.7602291  42.3237000  16.8346100  30.9201794
   0.0081614  33.8099556  40.2933578   0.7372985  33.6274529  39.7006683
   0.4070375  34.2784081  41.0266304  25.8758373  40.8282013  84.9804153
  25.3448830  41.5296516  85.3576279  25.2704868  40.0924072  84.8888168
  77.5971298  27.4948292   3.4730589  77.7577820  26.7595348   4.0644689
  77.5394592  28.2572269   4.0489550  75.4252853  28.7391739  19.1915722
  76.2948227  29.0808792  19.3998432  75.1099472  29.3017769  18.4842720
  65.0963440  41.0655403   7.0068045  64.8130264  41.3452110   7.8772912
  65.8609314  41.6094284   6.8175449  41.2672539  38.8245468   7.2789130
  41.4232254  39.6911659   7.6542535  40.5374336  38.9537048   6.6731782
  61.7889404  12.4248533  81.7600784  61.0811310  12.8178730  81.2494202
  61.8118782  12.9348717  82.5697632  76.3244476  25.3771343  60.3975372
  77.2671356  25.4822483  60.2690125  76.1541824  25.7698803  61.2536888
  79.6351547  57.0109634  68.5065460  79.9052658  57.5415802  69.2560272
  79.4472733  57.6480598  67.8173141  85.2429581  48.2151642  85.1408310
  85.1431503  48.9271278  85.7727966  84.5645905  47.5842628  85.3816910
  57.2570763  44.6474571  88.0142212  56.3947029  44.5548592  87.6092911
  57.1355705  44.3346939  88.9106827  73.9340820   1.1689509  53.9647522
  73.3378906   1.3023815  54.7016258  73.3589478   1.0733994  53.2055969
  78.2511215  66.2839584   7.6267738  78.0216522  65.7173767   8.3633604
  78.2399979  67.1684875   7.9924440  11.4693222  52.1285400   3.5019290
  11.0055199  51.7064743   4.2251015  10.7949924  52.6328659   3.0467739
  32.2262535  58.9770012  28.0873356  31.7802963  58.5901871  28.8408146
  31.6718597  58.7529068  27.3398972  44.7535667  57.3934555  87.0721283
  44.0589981  57.9894600  87.3524551  45.3460312  57.3463249  87.8224640
  73.6010208  23.7541695  67.8639984  72.9172363  24.2391319  67.4019623
  73.1451263  23.3327293  68.5925446   3.6868668  13.1512632  59.1878662
   4.5010166  12.8039665  58.8234825   3.9626081  13.8935347  59.7256699
  77.7528000  69.3179245  76.2224274  78.0439835  69.7345810  75.4113541
  78.5200882  69.3442764  76.7940903  70.9111481  64.0720596  65.3527451
  71.7517090  63.6760864  65.1227570  71.1104279  64.6432114  66.0945740
  13.6316538  48.3456573  58.6910324  14.2930727  47.7555504  58.3297462
  13.7077570  49.1416206  58.1648407  30.7904263  49.4416428  17.9140434
  29.8758831  49.1595459  17.9303551  31.2655735  48.7396469  18.3586445
  37.7713165  68.1724243  66.1743088  36.9511185  68.5962906  66.4269867
  37.7697563  68.1989288  65.2174759  12.1338110  12.9926701  68.7206421
  12.5803223  13.8358011  68.6432571  12.0953703  12.8275776  69.6627121
  50.5040474  39.4975433  81.9887390  50.6533470  40.1985779  81.3543167
  51.3559608  39.3655357  82.4047241  83.0795135  19.1072750  67.6605530
  82.7305145  19.8818188  68.1015930  82.5071716  18.3933620  67.9415894
  43.6537170  32.8583412  81.7496872  43.0244942  33.5164185  82.0450592
  43.3152962  32.5662766  80.9032822  59.1914024  39.0187721   2.9821112
  59.7359352  39.3069382   3.7146931  59.8035126  38.9206200   2.2527838
  42.1879082   0.6421890  63.9592628  42.0892258   1.4761503  63.4999123
  41.3013306   0.2833559  63.9973488  85.3419571  12.5264311  66.1273804
  85.3011475  13.2425728  66.7611847  85.3471680  12.9612703  65.2746658
  54.4683495  31.7680302  15.8050261  54.8202896  31.6635017  14.9210339
  55.2375221  31.9289417  16.3515739   7.9853396  61.0848770  56.4902153
   8.1027918  60.4197540  55.8119469   7.4508433  61.7605591  56.0730820
  70.0015869  11.5324535   1.7242403  69.0481186  11.4574776   1.7630215
  70.3218079  10.7518969   2.1763721  83.7084579  62.5124817  85.8352280
  84.2662582  62.5478897  85.0581512  83.3001022  63.3772202  85.8765335
  21.5252151  19.9729404  24.5483017  21.7243805  19.4324570  25.3127880
  21.9026871  20.8280334  24.7546158  25.5388355  26.6832943  32.4628487
  25.2508335  26.6328926  33.3743019  26.3786659  26.2241840  32.4512978
  62.1756477  60.8100166  33.5866203  62.7238007  60.0290718  33.6633301
  62.5416145  61.4230843  34.2241516  75.0562592  56.1876144  48.3643150
  75.7878418  55.9743309  48.9435616  75.4513397  56.6980362  47.6574821
  39.7843399  60.8727608  34.7645721  39.4091682  61.2775154  35.5466537
  40.3361168  61.5554352  34.3828201  20.3394814  60.2676086  70.0778885
  19.9013233  61.0997467  70.2561951  20.9498024  60.1572380  70.8069687
  24.6733322  40.2478027   2.0477843  25.4451962  39.8307343   1.6650121
  24.0252247  39.5457077   2.1048164  77.6182709  16.3109150  88.9206619
  76.8892365  16.9153233  89.0600510  77.2012787  15.4859324  88.6721649
  21.5672417  17.5536518  32.5047112  21.9291382  17.9167690  31.6963749
  21.4016762  18.3174782  33.0573311  75.8123550  66.0751266  15.8321486
  74.8983383  66.1892929  16.0924797  76.2562866  65.7954941  16.6327515
  45.6359177  59.7507172  34.6706276  44.7225037  60.0352173  34.7017365
  45.9994431  60.0197678  35.5142441  66.3472366  64.0335770  48.5399246
  66.3019791  63.2413177  49.0751915  65.8193436  64.6746826  49.0158958
  29.2547245   9.4665871  35.9940300  28.8882580   8.7242126  36.4744606
  29.7340546   9.9664221  36.6548157  58.4482193  55.1198082  87.7254333
  57.5764542  54.7631493  87.5550003  58.7098122  55.5195770  86.8959808
   5.4177485  12.1458979  15.3849754   5.7850389  11.6231441  14.6721945
   6.0860333  12.8067684  15.5662975  28.3849030   8.4511633  42.0372734
  27.5691299   8.8435087  42.3484192  29.0703487   8.8983707  42.5336609
  10.1166382   4.9381113  35.3730850  10.9181376   5.1146760  34.8804817
   9.8331957   5.7974162  35.6853142  77.2498245  55.5973701  49.8964920
  77.5373688  56.1760254  50.6026802  77.4203491  54.7148361  50.2255592
  17.4652901  53.2403870  81.3536530  18.1407871  52.6408539  81.0366440
  16.6487236  52.7484818  81.2671814   0.5728159  31.6043568  13.5785074
   0.7542005  32.3515968  14.1485624   0.8567201  31.8908653  12.7104387
  36.1269150  55.2412720  55.1145973  36.2513542  55.1705246  56.0610352
  35.1961021  55.4381599  55.0094643  42.3566170   6.7949834  11.9298296
  41.5333900   6.3074374  11.9586010  42.1124115   7.6577930  11.5949316
  65.8907852  42.5209770  25.1519241  65.7088470  43.3032684  25.6726494
  66.0324097  41.8300743  25.7990913  20.2143097  25.1369743  86.6123199
  19.7050362  25.9107094  86.3710632  19.9507580  24.4696369  85.9787369
  26.4614201  51.0344582  27.5886536  25.6541157  50.7164574  27.9928398
  27.1577301  50.7219200  28.1663227  63.4799881  10.0402279  55.3187561
  63.9066696  10.5463943  54.6274033  64.1453552   9.9598541  56.0021667
  37.0997467  41.3861008  15.3524714  36.7316132  42.2607193  15.4779873
  36.4662781  40.9377518  14.7921743  67.1001816  24.8448467  12.5006542
  67.4744492  25.5096016  11.9225054  67.4815674  25.0313663  13.3585510
   1.9149660  14.1166887  50.2191086   1.9199116  13.8549299  49.2984085
   1.2210695  14.7734308  50.2776718  11.5425615  17.0941715  44.6774788
  11.2819118  18.0151958  44.6748276  10.8393450  16.6476002  45.1489563
  40.0740776  68.0458984  35.7844162  39.4970551  68.6738052  35.3496666
  39.5351028  67.6658249  36.4781609  75.0641022  69.7483139  43.3459892
  74.2763367  69.3247070  43.6868973  75.6289215  69.0234833  43.0779953
  51.7321815  42.8206062  29.6260223  51.3615837  43.3778877  28.9416790
  52.6759415  42.9712868  29.5726509  56.8047256  65.1280594  63.9100952
  57.0849800  64.7964630  63.0570259  56.0954819  65.7384644  63.7085686
  48.0992851  39.8926506  11.8553972  47.6446533  40.6990433  12.0988455
  48.5283546  40.1008072  11.0254545  60.5036354  62.8013191  32.7630424
  61.2415619  63.3912468  32.9169312  60.9083366  61.9503632  32.5947456
  83.1717987  71.6762619   2.0091684  84.0699310  71.3608398   1.9086643
  82.6535568  71.1095428   1.4377803  82.4348831  33.4303589  58.9854546
  83.1857300  33.6011696  59.5540352  82.7381973  32.7479134  58.3867035
  74.7416306   7.2455697  70.6249008  74.7564697   6.4626431  71.1753922
  75.5587997   7.2045932  70.1281281  53.0902252  69.8011093  30.5460072
  53.1311340  70.3489838  31.3298378  53.9209213  69.3255463  30.5425758
   7.8746243  63.9288597  66.5645065   7.1753340  64.3247223  67.0846176
   8.5256300  63.6523361  67.2094498   8.9033451  25.6394272  71.2216034
   9.4941435  25.0014896  71.6218872   8.6033106  26.1796265  71.9526291
  64.6887589  24.5257301  14.0033092  64.0716324  25.2201099  13.7725983
  65.0638809  24.2509670  13.1666384  70.4790268  30.8149109  32.6804581
  69.8279495  31.5001278  32.5294418  71.1155701  31.2156334  33.2724571
  48.1016464  22.0885372  77.0584641  48.6675644  21.3983498  76.7126160
  47.7338829  21.7173004  77.8604431   6.6380892  16.3243980  34.7198677
   7.2216139  17.0831623  34.7171135   6.7376781  15.9488354  35.5946617
  78.0830154   2.4201443  34.9819450  77.9947357   1.7832702  35.6910515
  77.5551682   3.1672122  35.2638893  66.0128784   8.2819834  26.5072021
  65.4349594   8.6652164  25.8473721  66.8722610   8.6606016  26.3218689
  76.7964935  62.4605980  32.0470619  76.5265656  62.0083771  32.8463516
  76.2442169  63.2417755  32.0156937  75.7431412  43.7118378  39.7924118
  75.0904388  43.3593369  40.3973541  75.5902100  43.2402267  38.9736137
  64.1585159  47.2298164  11.8131657  64.2525253  46.3578720  12.1967087
  64.6086655  47.8109589  12.4262495  82.4269180  13.2179718  80.1301193
  83.2924957  13.6080284  80.0082169  82.1897583  12.8858843  79.2642670
  42.9483032  45.2016563  31.8391418  43.1949463  45.2999420  32.7587814
  42.2339020  44.5646667  31.8495255  76.5172958  35.9922714  29.3442898
  76.3244095  35.1818771  29.8157654  76.9801102  36.5359306  29.9818401
  33.9898758  58.3902206  18.9651279  33.1064682  58.1281281  19.2242222
  33.9579391  58.4275932  18.0091915  81.6870117   4.8374534  72.6240921
  81.7654648   3.9088178  72.8425217  82.3259201   4.9737492  71.9244843
  11.4349356  69.8796158  85.2464066  11.3966932  69.6885757  86.1835709
  11.1540489  69.0674973  84.8247604  25.2292747  35.4729767  88.3718491
  25.2496643  34.5172920  88.3219986  24.6921520  35.7403145  87.6260223
  18.2497501   8.7527695  77.8675156  18.4964161   8.6231174  76.9517746
  17.6436195   9.4933920  77.8497391  10.5765839   3.4121203  47.5901299
  11.3008242   3.0984259  48.1317062  10.3454914   4.2609043  47.9674797
  15.2590113  50.9764404  75.8973465  15.6856728  50.2685356  76.3801193
  14.3700714  50.6578026  75.7408600  57.4396935  16.9633770  18.8302040
  57.6631126  16.0483036  18.6600361  57.3504410  17.3537960  17.9608154
   8.4110546  11.4017992  76.9377899   7.4817963  11.5794992  77.0831680
   8.5426598  11.5640574  76.0036697  75.6911011  66.9732590  40.6182709
  74.8835754  66.6255798  40.9967728  75.4534912  67.8471756  40.3083687
  70.7275772  14.0363932  37.7704430  70.4657745  14.6193190  38.4831047
  71.5846786  13.7032080  38.0361404   0.2368617  10.3887167  36.6916199
   1.1214219  10.5241985  37.0313683  -0.1143518  11.2720060  36.5790062
  36.4692192  71.4042587  17.5585537  35.9702187  72.2183456  17.6255722
  36.1580467  70.9985199  16.7493649  81.0482025  47.9267807  29.8265762
  80.2504730  47.8652267  30.3519974  81.1773300  47.0428505  29.4827328
   8.0731449  20.0863914   2.9615445   7.1504040  19.9468002   3.1743729
   8.1180372  19.9827976   2.0110264  61.6267357  34.6385803  17.3225784
  61.9975243  34.8455505  16.4647255  62.3797913  34.3762131  17.8520164
  16.9000111  46.5208054  37.2893677  16.4582577  45.8537292  37.8148155
  16.4339581  46.5145683  36.4533157  41.6461372  65.4156265  30.7149143
  40.7036629  65.5270386  30.5901699  41.7812233  64.4684448  30.6862030
   7.1490660   7.1604285  59.5745049   6.6277547   7.9520788  59.7077560
   6.5620270   6.5620422  59.1123886  70.1416245  54.4250984  48.4726944
  70.9636536  54.5566826  48.0002708  70.2317963  54.9573517  49.2631378
  38.4838982  66.2319336  54.5013084  38.2856560  66.7468491  55.2834778
  39.4269753  66.0755692  54.5501595  38.7673416  18.7768269  36.1939201
  38.2450752  19.2104607  35.5190620  38.1983490  18.7604790  36.9634743
  62.1023788   5.5291734  76.2962570  61.9920654   4.8917761  77.0018005
  61.5694542   5.1867547  75.5786438   9.0672607  27.0660076  58.4520264
   9.8019800  27.0695572  59.0655479   8.2974834  26.9168568  59.0010529
  45.3532295  15.1482544  12.9872971  46.0097351  14.4867163  13.2054739
  45.2372017  15.6464863  13.7963295  12.6080303  15.6617403  51.4114647
  11.6527739  15.6660843  51.3506508  12.9055672  15.8480024  50.5209541
  81.9941559  23.6252174  38.0598221  81.8672409  23.0271358  37.3233299
  82.7938309  24.1048794  37.8437920  15.0940504  51.4910812  66.5328827
  15.5125103  51.8418884  65.7467117  15.4061422  52.0536461  67.2416458
  14.1987810  20.7756863  15.1604242  13.9373608  21.4562683  15.7806664
  14.5215025  21.2570610  14.3986101  74.8802261  64.5868378  77.3070450
  75.4674759  64.5039139  76.5557251  74.7143631  65.5268250  77.3787918
  24.3271065   5.2929626  69.2601166  24.3077927   5.9374638  69.9675598
  25.2550926   5.0855360  69.1503525   8.5464439  21.8915787  44.9835281
   9.0831995  22.6834297  45.0166321   8.2716789  21.8265400  44.0689201
  58.9579239  42.1300316  42.2945709  58.1574783  42.0518379  41.7755241
  59.6412888  42.3244400  41.6531334  73.1763153  11.0999527  11.9908752
  72.6845627  11.8945742  11.7835360  74.0940323  11.3538866  11.8932219
  13.3843822  21.9690704  37.0856743  14.2354736  22.3815289  36.9381905
  12.9237747  22.0656281  36.2521591  80.1204987  64.9715881  82.1583710
  80.8339233  65.5241470  81.8390884  79.8583603  64.4548721  81.3964539
  62.0829124  14.0829887  84.5088120  62.8053627  14.4772015  84.0200424
  61.3151703  14.5962152  84.2570114  78.2633362  69.5884323  38.3488998
  78.1887665  68.6470261  38.5051765  79.2011261  69.7685928  38.4146500
  55.7394066  60.0879707  11.4465847  54.9590721  59.5336227  11.4441051
  55.8414536  60.3619690  10.5351324  53.2398033  68.3262177   2.3763480
  53.8074608  68.3485489   3.1467364  52.3592491  68.4689560   2.7234526
  36.5104294  64.5615692  50.7533875  36.6499252  63.6192627  50.8473511
  35.5608673  64.6569290  50.6794434  40.2741623  33.3429146  15.0216799
  41.2043648  33.3240128  14.7967396  40.1561012  32.6011200  15.6150026
  12.6078949  24.5172462  33.7717400  12.7270727  24.1675148  32.8887253
  11.7321758  24.2278099  34.0278168  34.5200272  16.9159126  53.9360504
  34.7124748  16.2095146  53.3194504  33.8379326  17.4308758  53.5050163
  80.2365799  67.3320312  66.1862717  79.8038101  67.0765076  65.3716278
  80.3843231  68.2732468  66.0939865  61.7995415  25.7402859   7.5637412
  61.4128227  25.8898258   6.7010036  62.6346397  26.2072811   7.5360913
  31.4887562  48.1931190  77.3605270  31.8692894  48.1701736  76.4825211
  32.1879501  47.8773422  77.9329300  50.0092125  70.0021744  57.0093613
  49.3615570  69.3623581  57.3050194  50.1344147  69.8048248  56.0811348
  28.7126179  41.5934639  12.4378557  28.3017578  41.1471214  13.1782627
  28.9443855  40.8892975  11.8323269  16.3613205  42.4166946  84.2031326
  15.5925789  41.9749222  83.8424301  16.9342136  42.5546341  83.4488068
   9.3079367  59.0343781  61.1268806   8.7559147  59.2954597  61.8639984
   9.1371880  59.6938210  60.4544144  68.1079483   7.6135406   4.0078382
  67.4023743   7.0183930   4.2612042  68.0374451   7.6768479   3.0553401
  80.8933868  51.6425095  32.6804428  80.2719727  51.0727272  33.1336861
  81.7495575  51.2539825  32.8600349  79.2656250  29.1855240  65.8366852
  79.7793427  29.4613571  65.0775757  78.4715424  29.7183628  65.7949295
  30.9147301  33.9735985   8.3857441  29.9789829  34.0010910   8.5853796
  31.2698879  33.3232231   8.9916391  36.2959442  38.0657349   6.4790587
  36.8628616  38.8280106   6.3617101  36.2168465  37.9699097   7.4281602
  74.4990387  12.3813963  63.6631660  74.1739807  11.4838200  63.7333641
  73.9993286  12.8689947  64.3179779  13.0970154  51.3257599  64.6451187
  13.7437649  51.4614716  65.3376007  12.3217173  50.9996452  65.1020584
  23.9565964  13.6445427  83.7556381  24.6185284  13.4932156  83.0809631
  23.2759705  14.1522388  83.3137970  75.5274658   9.8526735  20.6927757
  75.1307373   9.0285492  20.4105358  76.4627228   9.7384291  20.5240288
  83.3414001  50.2436562  15.8157701  82.6574554  50.8438148  15.5186920
  82.8710709  49.4465446  16.0599728  33.0372429  58.7134781   3.6586108
  32.1845055  58.4687309   3.2992058  32.9253654  58.6473846   4.6069498
  81.4841156  54.5602303  73.5096512  81.4074326  53.6530762  73.8053207
  82.2893829  54.5763054  72.9924316  62.7696190  45.2135277  72.1371613
  62.6400414  45.1396141  71.1916580  62.2523460  45.9779472  72.3907700
   5.0686431  18.4528198  86.9712219   5.3334041  18.8919678  87.7794800
   5.4684014  17.5849590  87.0281601   5.6762342  12.6019573  66.5658569
   5.5169663  13.1806049  65.8201752   5.2956634  11.7636003  66.3040237
  64.4206848  62.1511497  31.2639008  64.8318939  62.5853157  30.5164833
  63.5348091  61.9466858  30.9644756  35.2212868  55.3372459  31.9374542
  34.8209305  55.2160950  32.7984238  34.5310287  55.7339134  31.4060116
  62.6771164  70.3185883  69.0227509  62.6878052  70.3492966  69.9793930
  62.9094009  69.4148102  68.8095169   2.8351705  12.7623835  65.8746643
   2.2565639  12.8059464  66.6359482   2.5266454  12.0015450  65.3825607
  23.9685326   3.8729405  73.0512085  24.1953888   3.7596092  73.9742126
  24.4110756   4.6815767  72.7933426  30.4076042  71.2067261  27.0379124
  29.6926117  70.9356918  27.6137218  31.1754704  70.7463455  27.3765278
  83.6726379  13.6154709  19.5798817  83.3075562  13.1768627  20.3483677
  83.0249252  14.2834291  19.3550797  18.3421612  71.3824081  67.8152084
  17.4717159  70.9844131  67.8028107  18.4579830  71.7326508  66.9319458
  69.0174789  70.8882294  19.1002064  69.7662430  71.4706726  18.9723701
  68.8091125  70.9667969  20.0311432  49.2106781  16.4635067  46.1295471
  49.8562469  17.0365219  45.7158737  49.2889137  16.6506100  47.0650177
  55.9921684  29.6999035  69.4275360  55.1664886  30.1517525  69.6016464
  56.2317848  29.9717579  68.5415802   6.1427922  48.5906715  82.7768631
   5.2680697  48.9697075  82.8630142   6.6984048  49.3264771  82.5197372
  16.2469959  34.5013046  24.7606964  15.6037655  34.2499542  24.0978928
  16.9774284  34.8645821  24.2599678  33.4427261  33.5415497  16.1041431
  32.4997444  33.6283722  15.9645700  33.7966423  33.3490639  15.2358561
   9.9333639  52.2936401  69.7665482  10.2552919  52.3798523  68.8692398
  10.5156546  52.8495483  70.2843628  21.9494610  58.1805344  29.1298084
  22.6877804  57.8609009  28.6112041  21.2610188  57.5297470  28.9928703
   4.0018187  51.2269821  72.8199234   3.1375518  51.6038513  72.6548691
   3.8678091  50.6357574  73.5606842   3.0838971  62.9164619  74.5207138
   3.6880312  63.0576134  73.7917862   3.6515031  62.7570267  75.2747879
  59.6112938  30.0351162  77.2951736  59.3768730  30.9586315  77.2035370
  59.2280312  29.7726288  78.1321030  47.6831474  48.8126106  26.9299526
  47.4286385  48.7090912  27.8468723  48.0386963  47.9591141  26.6822491
  61.0103722  44.7009926  49.7100563  60.5005760  44.5054207  48.9238701
  60.3556786  44.8027077  50.4008980   8.5755281  32.2641830  88.0060883
   9.1273432  31.5062389  87.8130722   7.9826570  31.9600334  88.6932755
  18.9306221  26.4801998  63.6618195  18.3706760  25.7299290  63.8612862
  18.7980556  26.6361103  62.7267532  31.7754688   7.5350275  18.2192020
  31.3164616   6.7690778  17.8744373  32.3191490   7.8362021  17.4912357
  40.0505371  11.1155567  52.2217102  40.3786545  11.5462055  53.0110855
  40.8360138  10.9239035  51.7093391  46.4863853  10.5450077  54.6535797
  47.3382454  10.8099890  55.0005035  46.4272575  10.9821100  53.8040657
   7.7679710  25.6585827  32.9022141   8.0424747  26.0432568  33.7346230
   8.5725594  25.3009911  32.5267181  18.0571728  48.0244484  85.6513824
  18.1082630  47.1570930  85.2497406  18.3350296  48.6252937  84.9599991
  45.4779701  25.5694637   6.5023932  45.7839088  26.4752197   6.4550810
  46.2788582  25.0453281   6.4927745  32.4642334  21.1540623  26.0528851
  32.7460518  21.3671875  26.9424858  32.0872421  21.9682980  25.7195301
  15.1885529  49.3918877  33.9587708  14.9691925  49.7260666  34.8285065
  14.8273010  48.5055885  33.9445992  28.4518623  14.5062466  12.2435160
  27.9642715  13.7183924  12.4838762  28.7455692  14.8702555  13.0786591
  74.0174637  37.2906494  83.1557770  73.3881760  37.3084221  83.8768234
  74.5084229  36.4793854  83.2863007  79.1954193  23.1796818   1.5490072
  79.7603760  23.6686974   2.1472738  78.3108215  23.3194008   1.8869367
  63.7916603   3.4382434  24.4424057  64.2310257   4.2886186  24.4350681
  63.0173264   3.5639858  23.8939285  86.0208969   0.8246299  62.1758766
  86.8033218   1.1204171  61.7105293  85.3213730   0.8750874  61.5244560
  55.7365379  37.7497902  73.1246948  55.3793221  38.6184616  72.9402008
  55.5717354  37.2484932  72.3260880  54.4612160  64.5887222  69.6473160
  55.2386284  64.2924881  70.1207047  54.0765915  63.7870178  69.2929611
  57.6222763  43.3259125  32.3435020  57.4466934  43.5285110  33.2623940
  58.4886322  42.9189415  32.3492775  76.4284897  13.1994114  72.3664474
  77.1933365  12.9526281  72.8863907  75.7754288  13.4668760  73.0131302
  51.9656677  44.3241386  36.5573769  52.7431793  43.8015900  36.3607941
  52.1155853  45.1553612  36.1070137  54.5351143   6.8013124  59.2939186
  55.2020226   6.2478514  59.7003059  54.6750755   7.6665964  59.6785316
  70.1746750  65.6319427  89.0323410  70.0165558  66.1872253  88.2688675
  69.3007050  65.3786087  89.3293839  58.9382019  56.7893867  37.4375839
  59.1379929  57.7253494  37.4544525  58.3176079  56.6899223  36.7156372
  74.4346848  37.6458511  15.9932632  75.1504517  37.0194016  15.8861341
  73.9599075  37.6113586  15.1628284  65.6933136  44.8145790  49.9675369
  64.7826767  44.5255203  49.9089699  66.1661682  44.0509796  50.2985229
  59.7154999  45.9749413  74.9892273  58.8498230  45.6423950  74.7520676
  59.9966774  46.4776230  74.2247162  65.9607239  44.0809822  18.0921993
  66.6923370  43.9977303  18.7037888  65.2008820  43.7693443  18.5838833
  25.0486603  11.3271074  81.5124664  24.1654911  11.6633749  81.6646729
  25.0535030  10.4674807  81.9334793   9.5291147  44.4897766  46.0213089
  10.3386469  43.9790039  46.0200081   9.3701010  44.6889572  45.0986633
  27.3695965  35.9390717  86.0027390  26.7740650  36.3124390  86.6524887
  27.2484093  36.4843979  85.2254562  61.3734703  16.2649174  14.1443624
  60.4652634  16.3246841  13.8480186  61.3947029  15.4822979  14.6950779
   9.0508919  20.6146202  73.0945358   8.6916752  19.7274361  73.0846939
   9.2759027  20.7920532  72.1812286   9.4159031  39.1905594  73.9347458
   9.1004047  38.3055038  73.7520676   9.6099796  39.5583572  73.0726013
  31.3969917  58.1691132  85.1002502  31.5583210  57.5884781  84.3565598
  30.8485622  57.6538658  85.6918335  39.7204094  46.5116158  29.7034683
  39.3492203  47.3902702  29.7835712  39.3982010  46.0443077  30.4742069
   8.4182844   4.1242704  40.8155289   8.9347725   3.3459466  40.6065178
   7.7570682   4.1655774  40.1246452  12.0685997  14.5249882  16.8896942
  11.7364693  13.8432322  16.3056297  12.8750916  14.8265905  16.4715557
  63.9806671  27.0348492   6.2086635  64.6557693  26.8060436   5.5698199
  63.5372276  27.7926846   5.8275065  75.7298889   9.5724392  62.7859993
  75.3867493   9.1882534  63.5927734  76.3592148   8.9278069  62.4625244
  42.4190369  24.9669361  10.6162128  42.0588341  25.2472801   9.7748499
  41.8893013  25.4255962  11.2683172  33.3102646  18.8192139   0.6222875
  32.7357635  19.5449009   0.3782489  32.8472099  18.3757076   1.3329999
  22.2451782  57.5537376  86.1857681  21.9538937  57.3237457  85.3034515
  21.8235970  58.3940430  86.3657455  82.0496979  33.6449699  32.6880264
  82.3975372  33.7630615  31.8041210  81.7825775  34.5231056  32.9596024
  30.3557339  17.2582951  30.9864407  29.6789799  16.6202755  30.7602444
  31.1581650  16.7412930  31.0574837  63.5679932  55.3685722  30.5574341
  64.2278061  56.0358238  30.3686180  63.4142303  54.9389267  29.7160091
  37.1909866  56.2082024  86.3012009  37.8126678  56.3744583  85.5926056
  37.6654701  56.4477882  87.0972443  85.6565857  55.5375481  57.7396507
  86.1219864  56.2886620  58.1076965  86.2638702  54.8050232  57.8437576
  29.7155933  12.7767296   7.5023341  29.0703526  13.0911732   6.8690705
  29.5153694  13.2559967   8.3063526  49.7935410  53.1103554  55.5262108
  50.4378204  53.2865639  56.2118416  49.7656097  52.1556244  55.4634514
   8.3621616   6.7123990   4.9187436   9.1271839   6.1648879   5.0953932
   8.1394844   6.5257325   4.0067115  80.9085693   0.7394421  44.5790062
  80.8751984  -0.2142255  44.6540833  81.8430862   0.9454642  44.5576744
  19.6648788  11.7919292   7.1991601  19.6132736  12.7106771   7.4627337
  19.9366474  11.8208323   6.2818060  10.3956423  16.5106411  36.0160599
  10.1459532  16.1839008  35.1516953  11.0628452  17.1734886  35.8379974
  83.8636475  25.6522083  55.2670631  84.4071960  24.9395638  54.9310226
  83.3574829  25.2539482  55.9751740  86.2540817   1.4708811  23.1444836
  85.7710342   1.2897795  22.3382015  86.8795776   2.1532409  22.9008198
  37.5835342  12.4572487  33.4836578  38.2835808  12.1864843  34.0776711
  36.8133507  12.5447502  34.0452576   5.6213241  17.4007168  70.9443893
   4.8261375  17.3236694  71.4716187   5.4214959  18.0877609  70.3085632
  77.5308228  59.4733582  61.9680252  78.3511047  59.8170433  61.6141052
  77.4884644  58.5736847  61.6439629  62.7776108   3.3939483   2.4735305
  62.1624947   2.8196144   2.9296038  62.6485291   3.1949711   1.5461805
  52.3954048  59.4590530  45.6414604  51.5368805  59.8823318  45.6406059
  52.3020935  58.7294006  46.2539444  23.4362888  13.8586512  66.2436905
  22.8689461  14.2313309  65.5688095  24.2425232  13.6317177  65.7803116
  13.0501566  50.4776840  56.5837059  13.3270721  51.0500221  55.8681755
  12.2544470  50.0561867  56.2590218   4.6548147  29.1126251  64.6332092
   4.3675089  28.2008686  64.6820908   4.1406922  29.5620384  65.3039856
  65.4692612  60.1266327  18.1696568  66.1882019  60.3574486  18.7579384
  65.0469513  60.9617233  17.9683990   1.6054944  55.7724533  42.4075050
   1.0388509  55.0453110  42.6652069   1.1348234  56.5556145  42.6927452
   3.7148511  49.0853996  11.5166054   2.9683447  48.9322243  10.9373856
   4.3425117  49.5655632  10.9764967  51.7521515  50.7430458  86.6524124
  52.6113739  50.7774277  87.0728836  51.3436661  49.9531097  87.0064926
  47.3883591  60.0147057  -0.0454863  48.1966400  60.4867668   0.1546863
  46.7007675  60.6770210   0.0237347  19.0835037   4.6028624  33.6849403
  18.9404125   3.6672921  33.8279991  19.4727669   4.6548958  32.8120155
  26.6195564  14.3120623  45.6997566  26.4156609  15.1141863  45.2188644
  27.5751858  14.2596159  45.6838303  70.8140411  66.4918976  32.9827538
  70.7104874  66.3860550  32.0370750  71.4321136  65.8056488  33.2343140
  77.7300110  12.3367510   4.1754742  77.8941269  12.4471331   3.2389309
  77.7149353  13.2286081   4.5227418  25.2981396  58.4722443  16.2198925
  26.0887947  57.9732552  16.0146904  24.5814857  57.9349899  15.8822536
  55.8904915  51.1332436  66.8520737  56.2444305  51.0057640  67.7322464
  55.4630585  50.3026428  66.6431808  17.4635162  13.7119656   5.8322520
  17.4745369  12.8136625   6.1626506  17.4297314  13.6166744   4.8804064
  66.2885361  60.4235764  71.0852890  65.3671570  60.6672859  71.1741714
  66.6408234  61.0465469  70.4496536  67.5472183  11.6722527  88.3895264
  67.9250412  11.1052141  87.7172546  66.8692398  11.1365557  88.8013687
  80.5517883  25.2298393  31.4402828  80.2206726  25.7481098  32.1737633
  80.0625534  25.5484390  30.6817455  50.7504692  29.5981827   2.2028153
  51.4836617  29.4015312   2.7858999  50.7537689  28.8846130   1.5648183
   7.6349049  45.0563240  16.2538948   7.9171386  44.2651672  15.7949295
   8.4302149  45.3880692  16.6706219  77.4701309  21.5420132  31.9607582
  77.0746078  21.4469585  32.8272247  76.7263641  21.5583458  31.3584461
  57.9673004  20.7502747  64.7233963  57.6564865  19.8583794  64.5679932
  58.3715820  21.0106430  63.8957520  16.2157345  60.5553970  33.7589111
  16.8620052  61.0418129  33.2470818  15.4759598  60.4395370  33.1626358
  51.3262825  60.9306908  73.0659332  50.6345673  60.6820908  72.4527740
  51.4670525  61.8633385  72.9028931  62.7784576  39.8369522  34.7436371
  63.0225105  38.9401360  34.9725304  61.8559074  39.9043617  34.9897957
  54.1942215  10.9257431  81.0124130  53.3314972  11.1553669  81.3576889
  54.1026001  11.0101461  80.0633545   8.0658321  65.1478500   6.4316559
   7.5365119  65.9066544   6.1861582   7.5651169  64.3948669   6.1177473
  56.2138329  60.0539322  64.2205124  55.7768288  60.8223076  64.5877457
  56.0561256  60.1161156  63.2784424  76.9850388  45.3555756  28.9247456
  76.2458801  45.8978577  28.6494102  77.0956879  45.5555801  29.8542538
  53.8600121   2.6703215  67.4033737  54.0702591   2.4380698  68.3078613
  52.9375496   2.4349597  67.3038940   6.7466869  13.8465996  25.1845169
   6.9305220  13.8517570  24.2451496   5.7990227  13.7249126  25.2424488
  56.0656586  22.3478870  73.5847549  56.1864357  22.6488152  72.6841507
  56.2771378  21.4147873  73.5558929  27.9348831  37.9778366  23.8966084
  28.2147522  37.5114021  24.6842289  28.6743813  37.8961182  23.2943649
  70.3447800  39.7232819  38.3418884  69.5284576  40.2206955  38.2926636
  70.4156799  39.4697990  39.2621880  47.7537460   5.9113269  30.6059189
  47.6645203   4.9753156  30.4266071  46.9521103   6.2997842  30.2556133
  50.6698799  61.0634918  17.6140480  50.9913063  60.2573090  18.0177612
  50.7570114  60.9113808  16.6730385  30.5928726  42.0546761   4.1406903
  30.9698658  42.8898964   3.8640714  31.3404293  41.4588280   4.1892061
  13.4936523  41.7545128  64.1584167  13.9721689  41.8779869  63.3386574
  14.1624155  41.4845924  64.7878036  12.3212795  64.3513260  27.6693859
  13.1035194  64.1840591  28.1950798  12.1761703  65.2940903  27.7491741
  51.5710716  43.4582100  75.2908707  51.0549774  43.2804871  76.0771866
  50.9311523  43.7654839  74.6487503  83.4123077  66.5968399  62.2350502
  82.9501038  65.7711334  62.0907745  82.7164841  67.2462921  62.3363533
  82.5031204  43.3449249  65.4764938  83.0648346  44.1154556  65.3929062
  81.9704819  43.5198517  66.2523346  42.7118225  22.3990517  24.4728680
  43.2018776  21.6481342  24.8078308  43.0496063  23.1455421  24.9677277
  26.9055138  35.1758842  10.7840090  26.2139626  34.8458557  11.3576574
  27.3314991  34.3886032  10.4449596  44.2773514   0.5607753  70.3416061
  44.8605003   0.3710867  71.0765762  43.7401962  -0.2264917  70.2526855
  57.4373474   3.8672557  81.2263489  57.6757851   3.7187960  82.1414108
  57.4367981   4.8196411  81.1304626   6.7501621  28.8187523  10.9293156
   7.3903580  29.1742821  10.3128901   6.2907710  28.1411343  10.4333057
  30.1234169  11.7106867  12.7614508  30.2915783  10.7986841  12.9985256
  29.1703510  11.7688751  12.6942835  77.0304871  55.8982811  64.1562424
  76.1994553  55.4655495  64.3521118  76.8251801  56.4975243  63.4386139
  13.8108501  25.4380665  83.4819794  13.5107470  24.9962502  82.6876450
  13.4958096  24.8852654  84.1970978  14.3287611  22.9939423  16.7968769
  13.4347830  23.3313713  16.7405167  14.8427048  23.7311821  17.1263790
  84.0450363  19.3345089  32.5977859  83.5842590  19.8099728  31.9065189
  84.0337372  18.4218979  32.3092613  30.0134964  10.2439241  43.6700859
  29.5382233  10.1352272  44.4938164  29.8157158  11.1394072  43.3958130
   7.8814788  65.2564011   0.0308053   7.0076714  65.1523361   0.4074538
   8.1628914  64.3641510  -0.1715209  65.1219940  56.8103294  62.5500679
  64.6792450  57.0423775  63.3663750  64.7050400  55.9937325  62.2751999
  37.3406181   3.2072089  74.4318085  37.2867012   3.9174199  73.7923355
  37.7830162   2.4980145  73.9653778  82.2420883  38.1384201  40.0370178
  82.5581741  38.7424431  39.3650932  82.0248947  37.3390160  39.5574226
  19.7067051   4.5351715   5.6137958  19.1516380   3.9665260   5.0801539
  20.5994434   4.3215041   5.3425102  12.8929996  32.1508141  72.4766006
  13.4661131  31.9459991  73.2154007  12.0515499  32.3663330  72.8787766
  21.1925316  47.8388138  35.5921059  20.5471115  47.4183350  36.1603165
  21.6215324  47.1130447  35.1388435   3.5845706  36.8956413  77.6880417
   3.5488827  37.5660820  78.3703003   2.7645135  36.4115257  77.7848511
  82.0929565  67.3459473  30.3466053  82.8085403  66.7527084  30.1180573
  81.3015442  66.8849487  30.0684166  14.8671713  69.4166641  84.6132584
  15.4988489  70.0375137  84.2502670  14.3376083  69.1473923  83.8627396
  21.4150963  54.3465195  72.2706070  21.2751179  54.2917366  71.3252869
  20.5521336  54.1815071  72.6504745  82.3514862  31.2936420  61.1151772
  82.5407181  31.8525887  60.3615189  81.7182617  30.6552734  60.7869415
  57.3772202  15.0676546  43.3463249  58.1850471  14.5622482  43.4369621
  57.1396980  15.3024931  44.2433548  80.1930923  31.9845695  10.7184000
  79.5587692  31.6808929  10.0690613  80.3384247  32.9049034  10.4990864
  20.1101475  14.0958710  34.2540283  19.3792686  14.5515022  33.8363571
  20.8818226  14.3831053  33.7659225  53.2053528  18.5152836  13.7959995
  53.0644073  19.4454556  13.6195145  53.5384712  18.4894791  14.6929932
  72.9532852  38.5005646  85.4367599  73.5393372  39.2244568  85.6575623
  72.0782318  38.8883095  85.4498062  31.5198746  15.9960318  54.9936028
  32.1560249  15.2871485  55.0886345  31.1091709  16.0664024  55.8553467
  71.1776199  14.3655891   8.6494541  71.6445618  15.1752625   8.4430056
  70.2546005  14.6186371   8.6646852   0.1146677  60.3952065  71.9964676
   0.6492209  60.0929871  72.7307358   0.6865287  60.9917946  71.5134735
  22.2039108  47.2058563  39.8818817  22.1567059  46.4980812  40.5245743
  21.7109222  46.8792038  39.1292229  75.8548050  63.9164314  28.4921265
  75.3989410  63.1041565  28.2716064  76.6758652  63.6293907  28.8917484
  79.3420334  12.5132294  88.1686401  79.5989151  13.2938519  87.6778488
  79.7773209  11.7912693  87.7152863  55.9613914  13.4866734   2.3240995
  55.6864433  13.2179670   1.4474956  56.2629433  14.3885107   2.2146106
  56.3396111  48.9154091  18.7915001  56.7832718  48.1239700  19.0964947
  55.5994072  49.0204926  19.3892326  60.6318016   1.2710645  38.7232285
  60.9510956   1.2421533  39.6251411  59.7140045   1.5311236  38.8022881
  20.0712624  14.5495129  62.3758850  20.7246227  14.8028469  63.0279388
  19.5782089  13.8429232  62.7928505  51.6407661  44.0306778  62.4883881
  51.8627968  44.8119202  62.9949379  50.9961662  44.3347206  61.8494148
  66.4223633  24.3530273  66.1623993  67.2681808  24.0050774  66.4447937
  66.1507797  23.7738361  65.4503479  51.6525879  39.7868004  73.2528915
  52.4232864  40.1653481  73.6759186  51.9804192  38.9995575  72.8181458
   0.1875773  37.7981148  82.0075302   0.1748196  37.9298935  81.0595322
   0.5058932  38.6289368  82.3605728  53.6015320   3.0918617   3.3067479
  53.1453171   2.5467432   3.9477987  52.9292908   3.3199160   2.6646304
  24.9105244  23.9029751  23.6017227  25.4355412  24.1727867  22.8482037
  25.5015202  23.9915276  24.3494625  53.9332123   3.5552821  62.1087112
  54.0710907   3.3610258  63.0357971  54.7329521   4.0055332  61.8368225
  71.7308578  20.4124203   5.7531066  71.0012283  19.9558926   6.1719747
  72.2979889  20.6738091   6.4785533  63.2803726  59.9279251  77.1636810
  63.8960648  60.3775673  76.5849075  63.7706223  59.7899895  77.9741516
  18.4438057  66.3456268  17.9727077  17.8419075  66.3431244  18.7169819
  19.1811218  65.8065948  18.2591362  47.5878296  27.2287693   7.1304836
  48.4481773  27.0672321   6.7432590  47.7239571  27.1175232   8.0714006
  60.0595856  69.6430206  20.8575897  59.6269073  69.1535263  21.5571709
  59.9383659  70.5616608  21.0976772   8.5311460  64.2579575  42.3288422
   9.0463400  64.5057678  43.0965652   8.8310061  64.8490067  41.6382103
  72.8356476  48.5401917   4.7618079  73.0005798  48.9673767   3.9212468
  72.4574127  47.6921730   4.5293636  18.1175938  69.9512405  87.5041351
  18.6085339  69.7050095  86.7201843  17.2355709  69.6125793  87.3505936
  83.7603989  46.0582619  23.5107670  83.6912460  46.4082298  24.3990078
  83.8437729  46.8324776  22.9541092  27.2802792  68.7059784  43.2676506
  27.9477386  69.2312622  43.7090187  27.6065483  67.8078461  43.3237038
  12.9924059   8.8383551  72.0421829  12.9299345   8.2704668  72.8101883
  12.1995335   8.6501637  71.5400238  73.0280533   8.5871515  10.8525705
  72.7291565   8.0835829  11.6097431  72.8316498   9.4966707  11.0771408
  37.5802956   0.7191063   7.6981807  38.5002861   0.6990297   7.4346600
  37.5653648   0.2815385   8.5493822  23.2586784  12.4274368  19.5771046
  22.5536156  11.9479609  19.1421089  22.8760052  13.2798796  19.7847919
  84.9992371  55.9819565  20.7633419  84.5158997  56.6197701  21.2885227
  84.8228683  55.1412048  21.1855545  58.9029770  38.7208672  56.7751541
  58.2706642  39.2076797  56.2465439  58.7083397  38.9762611  57.6768875
  64.2592850  63.1528282  13.6868677  64.4793472  62.2368393  13.5172548
  64.9190903  63.4451942  14.3156824  53.7095490  59.1145020  40.3955078
  53.1231003  58.3580055  40.3912354  53.5526428  59.5344200  41.2412491
  65.4324036  55.5182533  12.8313856  64.6631317  55.9724541  13.1751194
  65.9977264  55.3940239  13.5937557   4.5897408   6.0160308  72.0362854
   5.2309289   6.7210107  72.1263580   4.0349050   6.0963321  72.8121338
  27.9748955   7.1435146  75.2310028  28.7753468   7.6440148  75.0728531
  27.4343586   7.7204423  75.7706375  78.7247391   7.8595080  33.7519646
  79.6643982   7.7181139  33.6367226  78.3328400   6.9992962  33.6013489
  22.4233017  53.9230118  24.2930927  21.6836948  54.0002251  24.8957958
  22.4848175  54.7833176  23.8779774  21.1543159  53.7275276  82.9708710
  21.4816113  53.5331917  82.0926056  21.8945389  53.5422287  83.5487671
  49.1195946   1.4014441  30.9502640  48.7776642   1.3273848  30.0592918
  48.3817101   1.7307940  31.4633808  62.4301109  43.1825905  58.9178810
  61.8471031  43.9251289  58.7598457  63.2857018  43.4796982  58.6081734
   3.4960001   9.0381746  78.0808258   3.7574496   9.8239098  78.5609283
   3.2134228   9.3628292  77.2258530  43.2694778  14.8145390  21.3895512
  42.9264221  14.2836857  22.1083946  42.6088943  15.4945669  21.2575550
  52.7678566  60.9762459  54.2090416  53.1689262  61.7036781  53.7334137
  52.3395348  61.3879547  54.9595528  34.6359444  53.6668663  10.9954300
  35.0396309  53.2303848  11.7455978  33.7317123  53.3528709  10.9937153
  51.2948685  65.0506973  77.3380585  50.6487885  64.4962616  77.7755661
  51.9409447  64.4363708  76.9896011  48.6400719  44.2798233  24.3589058
  49.4252739  43.7325134  24.3708019  48.2101250  44.0639000  23.5314064
  29.5828686   1.5684410  73.9508209  28.9132900   2.0980742  73.5179443
  29.3970509   1.6641203  74.8849258   5.3498788  64.6416397  67.8408432
   4.8175149  63.8659782  67.6643066   4.7169781  65.3567963  67.9058533
  31.3115768  19.5863323   9.1557646  31.0118656  18.7814445   8.7332020
  32.2530327  19.6104813   8.9845657  18.7713299  69.0667801  36.3913040
  19.1795807  68.5404282  37.0787048  18.0379868  69.5017166  36.8263512
  46.1005325   2.7021966  59.0150108  45.1621704   2.8349798  58.8805618
  46.3954544   2.2560055  58.2211800  70.2696075  48.8845215  59.9510689
  70.8384476  48.9010277  60.7207298  70.6021347  48.1587143  59.4229965
  38.9588203  17.6764641  76.9507828  38.7987671  17.4464684  76.0355148
  38.0890083  17.6892967  77.3501434   9.8599663  17.0050945  47.1008759
  10.4454679  17.7375736  47.2929535   9.2888861  17.3310032  46.4052582
  39.9322968  20.7244816  46.8714409  40.8410683  20.4818134  46.6940269
  39.9359398  21.6816730  46.8730812  79.1760025   0.5013847  81.6149216
  78.2545471   0.7458600  81.7007904  79.3361282   0.4986059  80.6712112
  74.7139587  13.5550032  57.3702545  75.5303726  13.3044701  56.9378853
  74.5760956  12.8778219  58.0325623   2.5274601  64.8619461  89.1622162
   2.3624022  65.0632629  88.2410965   1.9983925  64.0833588  89.3357544
  10.7759409  31.2190971  40.9635544  11.1454296  31.6454163  41.7368355
   9.8386097  31.1590652  41.1480484  36.3956375  45.7396202  88.3789444
  35.6988373  45.4694214  87.7808762  36.0454216  45.5599632  89.2514725
   5.4419937  47.7936440  60.1633797   6.1397424  48.4463196  60.1050987
   5.8226891  47.0812607  60.6770058  75.7294540   5.9569135  75.3482895
  75.3927536   5.6044745  74.5244827  76.4436874   5.3662062  75.5873871
  39.7288551  50.9121704  30.3507805  39.7362556  51.8483124  30.5503197
  39.2208023  50.5199280  31.0608940  50.1000481  58.9854927  38.2144508
  50.6765900  58.4769897  37.6441422  49.7028885  58.3356934  38.7943230
  22.8646355  43.0444832   6.8388906  22.0209961  42.7808952   6.4714308
  23.3486004  42.2248116   6.9396415  67.6565628  60.5091934  13.1495152
  67.9166260  60.8943138  13.9863424  67.2699966  59.6654968  13.3839684
   9.8098955  28.5199947  25.9992771  10.3215866  28.9843884  25.3369007
   8.9415989  28.9204540  25.9553909  65.7040482   1.6139600  80.2843094
  66.1462402   0.8376461  79.9407425  66.4145584   2.2157018  80.5063858
  75.8377304  66.0844421   6.2986078  75.3082657  66.6771164   6.8321228
  76.6351395  65.9491577   6.8105335  28.8664036  28.4156151  16.3576355
  28.3694172  27.7828331  16.8761196  28.2789650  29.1660538  16.2682476
  39.3127136   9.1573229  43.8968697  39.7984695   8.6187544  43.2721977
  38.4276047   8.7929554  43.8897476  44.8962173   2.8346815   7.4361563
  44.7880211   3.7209785   7.0911889  45.7374802   2.8562422   7.8922749
  60.6863289  44.9785919  81.1066513  60.5365639  44.0445595  80.9604263
  60.6966019  45.3598442  80.2287140  64.0522232  35.8587456  15.1217880
  64.7577362  35.4552612  15.6274385  64.4042358  36.7078972  14.8548298
  43.1651573   3.9654939  34.7553864  43.1432571   3.2096248  34.1685181
  42.2932663   3.9878552  35.1497726  48.8886375  65.1038742  31.8559208
  48.6244431  64.3900070  31.2755585  49.8124275  64.9335785  32.0398865
  41.8205185   0.2460038  57.4814453  41.0801125  -0.3474648  57.3556328
  41.4184303   1.0948324  57.6659660  43.1227226  37.3347740  16.7288837
  43.2101364  38.1343727  17.2477646  42.2425308  37.0153580  16.9275532
  43.2943153  11.1499710  81.5703659  43.3262749  11.4091816  80.6494827
  42.6512451  10.4414835  81.5975800  63.5937119  12.6707611  36.7655067
  63.7554207  13.0045929  37.6479111  63.1551704  11.8312244  36.9036751
  52.4316940  47.9469147  22.2535400  52.1551056  48.6850090  21.7104530
  51.6511917  47.3976402  22.3266792   7.5556984   5.4427276   7.6694007
   6.7448578   5.8416257   7.9850745   7.6754856   5.8058996   6.7919106
  16.4261761   5.7158113   4.6763940  16.5936222   5.2687278   5.5060382
  15.9554749   6.5116725   4.9239378  30.0693684  69.0392609  42.0783806
  29.5211296  69.1646347  41.3038177  30.6744614  69.7808456  42.0661125
  62.4419823  29.0222282  82.8696213  63.0984612  29.4045525  83.4519424
  61.8098297  28.6105995  83.4588394  34.9327316  15.8519154  68.7740402
  34.9854507  16.8075123  68.7909393  35.5981560  15.5865202  68.1392059
  70.6304169  62.8605461  58.0888977  71.1381149  62.4588966  58.7939835
  71.1333923  63.6372681  57.8440361  75.4650116  67.1644821  64.3523712
  76.0319214  66.6333923  64.9116364  76.0191345  67.4061508  63.6102257
   0.9299933  14.1618643  43.0939445   0.1618875  14.6810770  43.3319855
   0.8859501  14.0923748  42.1402855  28.2459507  38.8977661   3.6162434
  29.1551628  39.1801682   3.5171590  28.3063049  38.0369873   4.0305438
  64.6581345  33.1430092  58.4746971  65.0565567  32.2772598  58.3854485
  65.1484680  33.5604706  59.1828880   9.0886288  57.7212372  44.8743973
   8.2100744  57.9402313  44.5638885   9.5350161  57.3716698  44.1031837
  61.1236038  14.9718122  72.7761841  61.7482376  15.6395731  73.0593033
  61.5523300  14.5409660  72.0367203  68.3382874  29.0957489  45.3149529
  69.0805435  29.5014133  44.8669243  67.6729584  28.9959641  44.6340599
  18.4917202  54.6816101  83.2684326  18.1026974  54.2279701  82.5206985
  19.4292660  54.6996727  83.0763016  36.2094307   9.3853188   2.1532667
  37.0297432   9.8488865   1.9846799  35.6396065  10.0436935   2.5508568
  14.9202290   3.2713709  52.6212158  14.2683973   3.0505927  53.2865028
  14.4489355   3.8248904  51.9985390  77.1417160  32.8436699  50.0942307
  77.3040161  31.9024773  50.0305901  77.7447662  33.1453018  50.7736282
  70.0066605  56.8726387  18.5674076  69.2246323  57.2290382  18.9888954
  69.8589325  57.0115433  17.6319332  51.1862297   8.1515045  72.0238495
  51.8605499   7.4741015  71.9723434  50.5451851   7.9024401  71.3580704
  62.0123711  59.3671570   6.4718938  62.3508606  58.4919281   6.2831354
  61.1820030  59.4102287   5.9976940  30.9014816  64.3695374  11.2873726
  30.7089634  65.2431946  11.6278019  31.5921612  64.0361404  11.8601217
  81.5019150  29.5145149  31.2846012  81.7873077  29.8033733  32.1514015
  80.8810349  30.1855335  31.0009155   6.2811813  31.2231884  24.5771923
   5.3964148  31.4183388  24.8859596   6.6442780  30.6399937  25.2437325
  51.9486275   2.5255749  39.6403885  51.3693352   1.7908694  39.4382477
  52.0133171   2.5238631  40.5953979  78.0790253  62.2543144   1.0979077
  77.4387665  61.5427704   1.1004739  78.5878830  62.1157570   0.2990986
  28.0956459  14.2491179   5.8238082  28.8180943  14.8734245   5.8912082
  27.8066902  14.3145380   4.9136128  51.3507538  19.7396660  37.4682999
  52.2439499  19.6736774  37.1305389  51.0394669  20.5898991  37.1577606
  62.8690376  24.7997799  29.9200764  62.2423363  24.3040161  29.3931103
  62.7386780  25.7099380  29.6538944  13.2367249  62.0951767  87.0124359
  13.9868126  61.6512032  86.6168518  12.5609703  61.4196014  87.0688629
  33.9584045  35.8922806  83.5818024  34.8622932  36.0174408  83.8708496
  33.7131920  36.7314568  83.1920776  67.6803360  32.0119591  48.2934265
  67.2335510  32.5111008  48.9771385  67.8515091  31.1589985  48.6926651
  36.5681572  67.2928772  43.8987846  36.2713699  68.1303329  43.5426598
  36.8398132  67.4960251  44.7938652   4.9888897  27.3154964   9.4145222
   4.2564549  27.3788490  10.0275126   4.5813427  27.0988617   8.5759478
   9.1390448  57.4996185  28.3926334   9.8702641  58.0203285  28.0603561
   8.8049498  57.0377922  27.6236534   5.2636480  69.2255630  42.8700981
   6.1451526  68.9209595  42.6546974   4.6943045  68.4897614  42.6449776
  44.5898094   4.9661651  32.0908203  43.8047104   4.6936636  32.5657883
  45.1142197   4.1687670  32.0174751  82.9810638  42.0800247  42.9835777
  83.7117157  42.5449219  43.3913193  83.1897964  42.0781364  42.0494156
   6.6633101  20.2971172  37.5671577   6.5704451  19.3460732  37.6230545
   6.0408459  20.5590935  36.8888245  56.8574028  68.8763428  62.4039726
  57.7585449  68.9430008  62.7197800  56.4460716  68.2378387  62.9865112
   4.9824138  15.2077732  85.7831573   5.1598463  15.0948277  84.8493500
   5.8290839  15.4461718  86.1607132  26.7991600  70.0034332  15.6198235
  26.9095135  70.5329285  16.4095612  26.8674221  70.6303024  14.8996830
  29.3689098  71.1640549  64.2598953  28.6936989  70.9831467  63.6059875
  29.3064423  70.4348068  64.8767548  27.1267033  53.6466980  71.7111282
  26.7490177  53.0141792  71.0999756  27.5686760  54.2855759  71.1519089
  20.9014225  48.2097740  28.1933823  20.4170799  47.5283661  28.6595650
  21.3696346  47.7408562  27.5026417  49.0609665  17.0832405  30.2933922
  49.6435585  16.3237896  30.3006821  48.2531548  16.7693272  30.6997509
  30.1928692  53.4881516  81.8379364  30.7800884  53.3053970  82.5714188
  29.9570255  52.6245880  81.4990158  73.6389618  54.6982956  69.9728470
  73.8255997  55.6355896  70.0264587  72.6863556  54.6478996  69.8939438
  80.4353638  16.3637142  11.2278776  80.7012939  15.5130987  11.5771122
  80.1379929  16.8547459  11.9938364  33.6868134   4.5179300  24.6462517
  34.0041351   4.3600616  23.7570858  33.2720108   5.3795033  24.6030884
  23.6798630   0.6662803  74.4045639  24.5796108   0.3560500  74.5067520
  23.7177658   1.5930643  74.6409225  41.7667313  54.5733681   7.1757817
  41.2025986  53.8769226   7.5118647  41.6228714  54.5624466   6.2295165
  65.0182419  23.3602104  38.4067192  65.1098557  23.8227634  37.5737228
  64.0870132  23.1453018  38.4601936  17.7000866  23.8851089  27.7944031
  18.1682072  24.4470081  28.4119492  16.7746048  24.0535030  27.9714870
  58.9688225  56.3587570  85.3020248  58.9786797  57.3053818  85.4435730
  59.4191818  56.2368507  84.4662323  57.7645416  24.2867718  67.9318542
  58.4398804  24.5333443  68.5637970  58.2499657  23.9151726  67.1952972
  65.3766174  64.8187714  67.9822006  65.1786423  64.3574905  67.1671753
  66.3041153  65.0442657  67.9105682  38.7525330  63.8862572  89.3368759
  37.9530258  64.1543732  88.8839569  39.2038689  63.3198204  88.7110291
  64.8969879  51.8141823  60.2428169  64.0157700  51.5946388  59.9403343
  65.0606155  51.2071724  60.9646187  58.1690063  20.5085106  81.4202728
  57.4022827  20.1545944  81.8709488  58.8648376  20.4853458  82.0771637
   7.6583667  36.3608818  76.9876328   7.6350598  35.5373917  76.5002365
   7.3836389  36.1229477  77.8731461  73.9707260  56.5867958  20.9186897
  73.9816742  55.6734123  20.6326084  74.8912582  56.8491936  20.9175377
  17.0277576  44.2932510  56.7535439  17.5375481  43.6413651  57.2345772
  17.5576553  45.0893555  56.7942276  54.7752647  50.8803635  59.9496155
  54.7727737  50.5117264  59.0662498  54.3855820  50.1972809  60.4953041
  18.1166058   1.5341467  23.8319530  18.9193764   1.5838473  23.3129921
  18.3355999   1.9721169  24.6544228  70.2227554  20.7679558  34.4018631
  69.8406754  21.0310822  33.5646019  69.4694366  20.5531063  34.9519386
  78.9123840  67.9666443  30.6919518  79.6980438  67.5177536  31.0041599
  78.4895935  68.2905655  31.4872894  69.6606674  33.3180237  36.2562218
  70.0373535  33.7193146  37.0393562  70.3536301  32.7485428  35.9219666
  86.8095932  19.3104420  75.3090820  87.2316360  18.4793186  75.0914917
  85.9518280  19.2611828  74.8871307  72.0226288   6.7880793  48.1053581
  71.3578186   6.4863405  48.7244034  71.6427231   6.6169529  47.2436066
  52.2908287   5.8654637  77.5638123  51.6668892   5.4430156  76.9735031
  52.0693245   5.5244617  78.4303436  78.0200577  15.1393681   3.8523827
  77.7048264  15.1951799   2.9503033  78.9737015  15.1206293   3.7721205
  59.2455025  60.6295433  30.7554455  58.8234215  60.8205452  29.9178314
  58.8605385  61.2578392  31.3664112  70.9658585  32.7901878  55.4052353
  71.4996338  32.1857338  55.9209442  71.4054108  32.8330803  54.5560074
  58.5787315  29.2964439  46.4767075  58.9364700  29.2026825  45.5938339
  58.2413330  28.4269390  46.6920128  30.2866764  49.0813370  21.3912678
  31.1449928  49.1754303  20.9781456  29.8948288  49.9525414  21.3305225
  27.8161602  56.6480408  38.0060196  27.5696507  55.8135071  38.4047890
  27.5432796  56.5666847  37.0921516  35.7958183  17.2425385  56.3021393
  35.1329994  17.6997528  56.8196869  35.4165077  17.1838188  55.4252625
  83.3165741  18.7058353  56.6294022  82.8402252  18.0011883  56.1903114
  83.3938904  18.4130878  57.5374527  72.2204056  10.4262218  25.1694069
  71.8202286  11.0617771  25.7628384  71.8695297   9.5814190  25.4512386
  76.3333282  31.7286167  77.6058426  76.8452911  32.5225983  77.7598419
  76.9875870  31.0511055  77.4351196  56.4421883  64.6294327  48.5819702
  55.5946579  64.2686462  48.3216667  56.2776794  65.5647125  48.7020454
  58.5169296   3.6984613  50.4408607  59.0650902   2.9283724  50.2901421
  57.7219887   3.5292814  49.9352188   5.5659561  55.8818169  46.7264137
   6.0092196  56.6733437  46.4210701   5.1604853  55.5159836  45.9402885
  29.6097870  14.9674273   2.8252280  29.3993626  14.9889660   3.7587636
  29.6308594  15.8878126   2.5631592  72.2661285  61.5935059  23.8498211
  72.7371445  61.1699333  24.5674267  72.9449768  61.8026810  23.2082272
   3.7948194  29.9419403  87.3588791   3.5674117  29.8748798  86.4315033
   4.7304015  29.7422428  87.3911133  16.7829990   7.4772191  62.7091179
  17.0714188   8.3888998  62.7525215  17.3692722   7.0706577  62.0709763
  62.2378426  29.0313854  15.9964590  61.4211082  28.5345821  16.0450821
  62.1654129  29.6804218  16.6962719  32.5512314  51.6352806  80.2470779
  31.6935940  51.4574585  80.6331711  33.1173096  50.9452095  80.5928955
  84.7642136  32.0284576   9.5562592  84.0073013  31.4705849   9.7353935
  85.0885239  32.2773209  10.4217787   2.4183888  36.6023674  66.3531494
   1.8580134  37.3121567  66.0394440   2.9880040  37.0157890  67.0018768
  68.0813522  10.5635719  70.3744507  68.2885056   9.6609259  70.1324844
  67.8181610  10.9774952  69.5524826  35.8305206   6.7839942   3.2001328
  35.0096092   7.1223292   3.5577106  36.1110992   7.4502368   2.5727339
  82.0173721  44.7664375  45.3522072  82.2002411  45.5270958  44.8006706
  81.2635117  44.3461761  44.9383202  47.6337204  11.0212860  83.4995346
  47.4321518  10.2999363  82.9035034  46.8032990  11.2100458  83.9365768
  63.5166512  18.1276245  60.7120361  63.6019516  19.0807953  60.7325134
  63.5592461  17.9032593  59.7824783   5.4592643  59.5894928  83.3160629
   5.5142488  60.0557480  82.4819107   5.4607091  58.6635551  83.0734482
  82.7156601  13.4400148  13.0226927  81.9582596  13.9861517  13.2331972
  82.8369827  13.5519075  12.0798292  69.6231766  25.5450573  21.9535198
  69.6647949  25.3432217  21.0187683  69.9089966  24.7400284  22.3853340
   6.3052278  45.2425041  85.9019852   6.9044895  45.7387695  85.3444595
   6.7163811  44.3825684  85.9896851  55.6860695  56.2229576  60.7475433
  55.4321289  55.3746490  61.1110191  56.3178177  56.5732040  61.3755951
  28.1431026  11.9533396  38.0888138  28.1876984  11.3722839  38.8481674
  28.7669964  11.5812140  37.4655113  47.0435905  17.5898647  85.0477753
  47.2906761  16.6734295  85.1715851  47.7461815  17.9569778  84.5112762
  59.5781746  21.2871475  69.2483597  59.0778351  20.4729061  69.3022232
  59.6872559  21.5619087  70.1587677  20.1363468  20.7749138  81.0932846
  19.2573280  21.0743675  81.3254166  20.0080185  19.8830757  80.7701950
  78.5139084  25.6778011  86.1827927  77.9934006  25.8453560  86.9684372
  79.3210068  25.2808933  86.5103531  68.5211411  67.5566940  20.6797504
  67.8347473  67.1831894  20.1269531  69.2536621  67.7082443  20.0825253
  36.8582420   8.1139069  12.3746700  36.0584221   8.6353569  12.4425526
  37.3870277   8.5704966  11.7203407  29.7468071  54.3111267  32.5785789
  30.0754910  55.1902466  32.7665749  28.9547234  54.2327843  33.1102753
   4.9803424   5.2013702  28.7415428   5.0466204   4.6712346  29.5357685
   4.0489845   5.1871099  28.5210857  83.2544327  42.2267799  52.8476219
  82.9828415  43.0835342  53.1769218  82.7222137  41.6014252  53.3394547
  46.2863655   3.3353229  11.3394670  46.5004997   4.2003493  11.6889057
  45.3318024   3.3352649  11.2684784  27.9005413   9.5301456  22.3496704
  27.7576141   9.9186325  21.4866047  27.1401920   9.8020830  22.8636284
  49.7924881  55.9367104  57.5945129  50.7031403  56.1172409  57.3613815
  49.3016968  56.6741714  57.2318802  42.9668579  49.4472389  26.8876286
  43.2532730  48.6980705  27.4100685  42.5292664  50.0231667  27.5145683
  29.5298939  54.0620537  18.2591801  29.7585144  54.6966667  17.5800419
  30.0752945  53.2991524  18.0674686  17.1261425  60.1592865  69.1120758
  17.8870010  60.7201614  69.2628860  16.3745098  60.7141151  69.3205032
  41.8042870  34.5522995  10.5159225  42.4377823  33.8699875  10.2937279
  42.3293953  35.2457275  10.9154882  39.4982834  54.0909958  33.5977135
  39.6249886  53.8914223  34.5252609  38.7517242  54.6898460  33.5813751
  73.6372223  57.1697426  63.5770988  73.7922821  56.6358337  64.3562851
  74.4865494  57.2034492  63.1369438  74.8356552  50.0985756  79.8716202
  75.3810349  49.7557259  79.1636276  74.8159256  49.3953972  80.5207596
  49.2010498  63.6922302  78.5462875  48.2870674  63.9548531  78.4371948
  49.2291298  62.7875824  78.2347412  18.8412533  61.4416962   5.1597672
  19.7054977  61.0658607   4.9922462  18.5310669  60.9888725   5.9439659
  60.6133461  66.2323227  23.2449875  60.7789764  65.6347351  23.9741573
  60.0351295  65.7423325  22.6603451  42.1143265  31.8724079  85.6725540
  42.1091766  32.8227768  85.7865982  41.8468285  31.7388458  84.7632446
  58.1498909  49.7535210  80.1570282  58.6311569  49.6539917  80.9784317
  57.9747353  50.6924667  80.0943146  64.1989059   7.3721962  57.6133652
  64.2827072   6.4195237  57.5730705  65.0011292   7.7005863  57.2073746
  64.4159622   1.4753941   0.4345583  63.5564804   1.8252877   0.1998214
  65.0173492   2.2080779   0.3013838  49.0234795  64.3422546  46.2481232
  48.8664703  64.4576035  45.3109589  48.1768913  64.0682220  46.6008606
  71.4454575  14.0848045  24.8871517  72.0960922  13.6635380  24.3255081
  71.4006195  13.5256777  25.6627789  18.2697506  23.4093246   6.2388549
  19.1192093  23.7991066   6.0321627  17.8172798  23.3606758   5.3967528
  86.2405624  66.2734375  79.7073517  86.6052551  65.3893280  79.6674805
  86.9018631  66.7844925  80.1739807  37.7829323  48.0570946  88.0926514
  37.2233696  47.2936440  87.9502945  37.3056526  48.5883713  88.7299728
  85.5885010  58.0258369   8.6690168  86.3999481  57.9121017   8.1741943
  85.2935257  58.9086456   8.4457006  64.1711731  34.5489235  26.3189564
  63.5825157  34.1070747  25.7070103  64.3987885  33.8760109  26.9605236
   1.1502308  26.2609692   1.0061196   0.5084023  25.7324028   0.5318772
   1.4754432  26.8833904   0.3556899  69.2974701  15.9296274  39.1817741
  69.0829010  16.8624382  39.1894302  68.7380066  15.5496063  39.8591347
  59.3271713  54.5975304  82.9126968  58.8513908  53.8280106  82.6001205
  59.5011520  55.1088829  82.1224594  82.2120438  61.8875923  23.6029453
  82.8910751  62.5497589  23.7321281  82.6079865  61.2515602  23.0071907
  24.2001076  11.0211458  16.5743103  23.5888500  11.7353477  16.7546234
  24.2623672  10.5444555  17.4020309  67.1842804  11.7400961  78.1328735
  66.4510880  11.1994696  77.8389664  67.9070740  11.4988708  77.5535507
   7.9602699   9.1151962  49.5286140   8.2060890   8.5032377  50.2223778
   7.2778282   9.6600561  49.9205742  70.0046082  13.7817450  61.1761398
  69.5852737  12.9391413  61.0017586  70.5539932  13.6216202  61.9434509
  60.1852913  30.9958878  50.2972679  60.6952438  31.7815590  50.4945030
  60.1348763  30.9767227  49.3415871  75.8452759   8.1465034  56.7498474
  76.7861633   8.2096682  56.5855904  75.4987259   7.6881914  55.9842834
  77.3694687  11.7379513  62.7412872  76.7956543  10.9721117  62.7626076
  77.0225449  12.2774687  62.0307961  68.4582596  39.7628593   8.9155664
  67.9368820  40.5399208   9.1170034  67.9073029  39.2518616   8.3226423
  46.5888977  62.8146439  20.9581928  46.8101006  63.7089310  21.2181034
  46.9777870  62.7146225  20.0892906  37.5811653  21.0365677   5.8562016
  36.6438446  20.8712349   5.7545810  37.9927788  20.1870289   5.6978030
  52.9450798  69.9556580  10.9184065  53.8496475  70.2639923  10.9724092
  52.9748268  69.0640564  11.2653847  23.2827377  51.6036263  67.7576447
  23.5360584  51.2593346  68.6141052  22.8750801  52.4480476  67.9499893
  21.8972263   5.1373358  86.7043304  22.4293118   4.9935789  85.9217377
  21.1259346   5.6068192  86.3866425  48.0775757  24.1026554  81.2524490
  47.3557777  24.4951267  81.7435684  47.8534889  23.1736088  81.1987305
  55.9816132  28.8856888  35.8713188  56.9016075  28.9340839  36.1311150
  55.9598427  29.2690735  34.9945183  56.3164215  57.2180214  41.3935966
  56.6577339  57.5166359  42.2365456  56.9358940  57.5607643  40.7493782
  14.5252476  58.4658165  34.7887535  15.0137167  57.6580772  34.9474411
  15.1553831  59.0470543  34.3629303   1.1112771  69.5689850  68.9585495
   1.2935206  68.6299515  68.9235001   1.1712068  69.8587341  68.0482330
  63.7239723  14.8069572  81.0945969  63.8968811  15.6779480  80.7372284
  62.7905197  14.8159113  81.3062973  22.1834030  18.5048370   8.2465582
  22.3818760  19.3182373   7.7826428  21.8018417  17.9351501   7.5786510
   1.7323343  47.9501343  40.7993240   2.2585089  47.1911011  40.5478477
   1.7255671  47.9304314  41.7562981  39.3414536  59.3264656  29.5644722
  39.9473724  59.1637344  30.2873917  38.7484665  60.0007057  29.8961277
  56.2825661  46.3770981  67.1741257  55.8138199  45.9538689  66.4548264
  55.6209450  46.4923859  67.8561783  35.2096481  57.3982658   4.6041899
  34.8740540  57.8666687   3.8398569  34.7184525  57.7603073   5.3416753
   5.4000521  20.1768093  10.0936546   5.8732986  20.9897575   9.9164934
   4.7834163  20.4053383  10.7891884  46.8396721  43.8058891  16.9346275
  46.4988785  44.3342361  17.6563873  46.2238655  43.9549103  16.2171307
  48.1390419  63.7835121  75.2966766  48.9439430  63.5283279  75.7475128
  48.1931610  63.3489189  74.4455414  12.5664816  27.5041771   2.9248171
  13.5094357  27.6376400   2.8286035  12.1952047  28.3858223   2.8918822
  66.5679169   7.0405397  22.9756927  66.2082291   7.9259157  23.0301476
  66.2668762   6.6100817  23.7758865   0.2299427  66.4170532  22.2164211
  -0.4754027  66.0196991  21.7057076   0.3890256  67.2592926  21.7903175
  71.0428238  23.8348122   9.1600647  71.3045273  24.7535229   9.0991306
  71.8507538  23.3694897   9.3767519  81.2657013  39.0284042  77.7466583
  81.7599792  38.4757843  78.3520737  80.3597488  38.7332840  77.8382416
   2.5865471  24.9028759  61.7052612   1.6449984  24.9205379  61.5337791
   2.7066178  24.1684551  62.3072929  67.6612701  66.2122726  39.1842270
  67.6877136  65.2655334  39.0456352  66.7325592  66.4110489  39.3034325
  15.2150040  63.0454979  80.9432602  15.9757395  63.3012848  81.4648819
  15.5536480  62.3937187  80.3294678  69.2168350  37.4689598  75.7953873
  68.9472809  36.5536919  75.8719559  69.7548981  37.4947929  75.0041580
   0.5827017  47.5342941  62.2060966   0.1826613  48.2724152  62.6658554
   1.4899094  47.8042183  62.0634575  79.0683289   7.1946611  36.6351700
  79.9527435   7.1793838  36.2693748  78.4953842   7.2795649  35.8730965
  72.5951233  24.2496834  31.8422489  73.2466888  24.2045803  31.1424923
  71.8514709  23.7469730  31.5098419  51.6458778   7.2386866  15.5815430
  52.3065910   7.9303408  15.5454369  52.1423988   6.4428635  15.7722330
  24.3587399  10.8795433  46.1927567  24.0246773  11.7416000  46.4407310
  23.5741024  10.3592749  46.0198441  69.6988754  16.1685753   2.9815755
  70.4017563  16.3511696   3.6051543  68.9370804  16.6248035   3.3390055
  77.2421799  21.9292698  22.4673328  77.8802032  21.2561207  22.2306290
  76.5430527  21.8346825  21.8204136  61.5871773  42.2908401   0.8543682
  61.7404671  41.4637604   1.3111755  60.7796593  42.1460114   0.3612445
  18.3829346  52.8765182  31.1537781  19.1553707  52.3412437  30.9719677
  17.9366035  52.4187737  31.8661613  85.6519470  16.4651775  14.2820749
  85.4049988  16.5183659  13.3588095  84.8735504  16.7587528  14.7555046
  59.5731735  42.7230721  88.0666504  58.9332123  42.0785789  87.7644730
  59.2758446  43.5509682  87.6892776  53.2757607  36.1510925   6.1939955
  54.1946678  36.1598511   6.4618945  52.8811302  35.4515419   6.7146926
  70.4446259  21.4926987  61.6419601  70.9393387  21.3986130  60.8279343
  70.4836502  20.6264992  62.0474319  60.4666519  15.7466440   1.9703976
  60.5384216  14.8838549   1.5621378  59.7665367  15.6487551   2.6157546
  13.7928686   5.7215624  76.8569946  14.0780134   6.3492460  77.5210266
  14.2668705   4.9172955  77.0684433  65.2965393  43.2950554  65.2376785
  66.1353073  43.0079193  65.5985794  64.8355026  42.4828911  65.0277481
  75.2722778  38.3535271   2.0602350  74.4026871  38.1525383   2.4061370
  75.1027908  38.7979507   1.2295781  17.5454216  29.4835625  16.1926823
  16.7603035  29.5533619  16.7357750  18.0872040  30.2266426  16.4582672
  34.2233772  53.2045174  69.0392303  33.8258438  52.8706169  69.8434143
  34.4249878  52.4205856  68.5283203  76.7905350  15.7875891  20.5321808
  77.5923996  15.2976799  20.3498840  76.0882950  15.1460161  20.4250584
  42.5496101  11.8444519  64.7458038  42.1701317  11.9790497  65.6141968
  41.7938042  11.7444630  64.1670151  77.1301804   2.4440203  41.0433311
  76.6014862   1.9875787  41.6978302  78.0309296   2.1887817  41.2426643
  83.0892181  35.5141258  62.0972710  82.2950439  35.2032242  62.5318489
  83.7750168  35.4247017  62.7590256  26.7026386  14.3199558  75.5430984
  25.9290218  14.4439383  74.9932098  26.3868065  13.8107367  76.2895432
  57.3381271  28.0810394   2.6071641  58.2356071  27.8700600   2.3497820
  57.3494644  28.0489388   3.5637584  32.1115570  41.8536568   7.4955812
  31.1941223  41.8468857   7.7685261  32.1405563  41.2685585   6.7385812
  58.7344322   0.3825632  73.1184769  58.4063644   1.2229513  72.7985535
  59.5861473   0.2805546  72.6937332  62.6813316  52.6325493  43.5875206
  61.9866791  53.2455254  43.3467903  63.4323158  52.9018860  43.0586433
  52.4815865  41.5931358  34.1159821  52.2444305  42.5170670  34.0363350
  52.7159004  41.3284645  33.2264442   2.5934389  38.2449265   4.6492682
   2.6436284  37.3354187   4.9433951   1.7162497  38.3276176   4.2751918
  54.6607018  31.4684181  25.9662113  54.9347305  32.1132698  26.6183681
  55.2459869  31.6155739  25.2232304  58.6625175  36.8458061  28.5476189
  58.2397156  37.2246628  27.7769451  58.3763313  35.9324074  28.5530872
  58.2465477   2.1573727  31.0852833  58.4550629   1.6155317  31.8463097
  58.7038879   2.9826818  31.2463341  44.1041069  38.2096634   5.0097947
  43.5844536  38.9388084   5.3482323  43.9535637  38.2266388   4.0646601
  -0.3607553  31.6867962  58.6435547   0.3158390  31.6100082  59.3162766
   0.1223018  31.6891251  57.8171883  73.9539642  20.0667896  49.6758156
  74.7871780  20.5064640  49.5064850  74.2012634  19.1910973  49.9728584
  69.9992828  23.3588371  49.0541077  69.3790283  23.3700371  48.3251457
  70.8278503  23.0869122  48.6594315  28.5884190  27.6824932  85.7754517
  28.8436165  28.0274467  86.6310883  28.3885479  28.4597511  85.2537689
  44.9669685  34.9343872  34.7898369  45.6558189  34.5536461  35.3345909
  45.4189072  35.5843849  34.2518005  61.9724617  60.2218246  65.2054901
  62.0014687  59.2760048  65.3497620  61.1258240  60.3742256  64.7857132
  71.7838058   6.2037096  17.3446960  71.0889740   6.8357539  17.1604023
  71.6464844   5.9566779  18.2592182   4.2178168  62.6554565  11.9330692
   4.8702483  63.3550797  11.9661484   4.2957158  62.2969208  11.0489788
  29.4702129  42.3041649   6.6072879  29.5978203  42.0921745   5.6826220
  28.5209599  42.3749161   6.7080050  59.6519051  65.3271637  40.4320908
  59.0435905  65.2709351  41.1689949  60.1519241  66.1270065  40.5947800
   4.7823334   1.5265470  75.9954529   5.1629515   1.8457348  75.1772308
   3.9430981   1.1457930  75.7367172  54.0890427   5.7959113   3.2742517
  53.8110657   4.8948646   3.4387965  54.5241394   6.0639234   4.0836287
  60.9942513  37.0872498  83.6804733  60.3373604  36.3911324  83.6926956
  61.7864189  36.6632690  83.3504105  30.0026608  11.8305483  69.7198029
  30.5528126  11.8150396  70.5029526  30.1936359  11.0039434  69.2765350
  13.8532782   5.1166258  45.2558937  13.9245968   5.8931994  45.8109436
  12.9167595   5.0368614  45.0747795  46.4220238  22.7050762  67.8255692
  45.8538094  22.5332298  68.5764542  47.2353745  22.2437286  68.0301514
  51.7469597   1.7883604  25.8679066  50.9891815   2.2403886  25.4968605
  51.6882362   1.9549574  26.8086662  52.5203056  57.1988487   2.2778172
  52.7903252  57.6511497   1.4786030  52.7933311  57.7813721   2.9865880
  82.3729935  66.1800461   0.9521137  81.9058838  66.5830231   0.2202372
  81.6903839  65.9870911   1.5947938  77.0599442  54.3624306  74.8318329
  76.3208008  54.9700012  74.8593369  76.8321762  53.7392311  74.1419220
  11.1026220  42.3722878  76.8727875  11.4850988  42.8689156  77.5961838
  11.6161137  41.5652084  76.8384476  57.0036774  11.7107677  84.2905045
  56.2641830  11.5996819  84.8880386  57.7636223  11.8049536  84.8648300
  37.7116127  39.5797272  17.2432270  38.5071831  39.7549095  17.7458344
  37.5733566  40.3749809  16.7287445  76.5097351  55.2930908  42.8834763
  76.8747177  54.4187050  43.0193634  76.4534302  55.3839569  41.9322624
  20.9838486  57.8480797  42.0011978  20.0894508  57.7535439  42.3288345
  21.5037861  57.2627487  42.5519142  41.2272758  50.6246071  78.5380859
  41.8380737  50.5786896  77.8025208  40.9273796  51.5335960  78.5439911
   6.4615140  50.6614876  74.7848511   6.3814988  49.8114777  74.3520584
   7.0167189  50.4914780  75.5458221  70.1190338  12.4907722  21.6978722
  70.3098984  13.3957491  21.4512615  69.6503906  12.5628700  22.5293846
  55.1915169  68.3193130   9.1562004  54.5313110  68.0050201   9.7739229
  55.5997581  69.0628738   9.5996943   9.2936831  69.8436584  67.7793732
   9.9718390  70.1814117  67.1943436   8.7573223  69.2785873  67.2232742
  45.0355759  19.6724472   5.7295527  44.3607941  20.1965580   6.1610718
  45.7343369  19.5994148   6.3796511  15.2288313  49.4985085  61.4041977
  14.3134089  49.2576904  61.2619286  15.5243034  49.8286095  60.5556946
  64.8864594  57.7843437   8.6961880  64.7480698  56.9160614   8.3178186
  65.8097916  57.7912750   8.9484711  55.6984634  62.3000832  39.9029846
  56.0961761  61.6559677  40.4887924  56.0375023  62.0769424  39.0360985
  32.5102158  67.5212021  24.2902832  31.7569771  66.9366837  24.2054024
  32.3150940  68.0528030  25.0620060  61.5285225   8.6874428  71.1335373
  61.7532082   9.4302940  71.6938248  61.6846924   7.9182959  71.6814880
   3.5264592  40.7494698  41.6604767   2.5978930  40.5219421  41.6132774
   3.9572978  39.9411392  41.9383430  70.8929138  25.0227165  84.1675415
  71.2491531  25.2347984  85.0302963  71.6610947  24.8142776  83.6358566
  39.8990135  59.0339203  55.3779907  39.0033379  59.0977211  55.7095490
  40.2796936  59.8953247  55.5491486  59.5676689  61.8954773  76.0291367
  59.7494431  62.6780319  76.5495148  58.9666367  62.1955490  75.3472672
  17.8252869  32.2281761  30.9279938  18.5642185  31.9009342  30.4150352
  17.7425385  31.6073112  31.6518116  65.0909271  45.7100792  84.5477982
  65.1373978  45.0000992  83.9074860  65.9758072  46.0746117  84.5658646
   0.8034255  30.8950710  37.8558578   0.1739089  31.4298801  37.3722038
   1.6550571  31.2772942  37.6440544  19.4682121  71.5265121   3.7385912
  18.9413090  70.9218063   4.2610259  19.0686321  71.5026245   2.8691108
  27.8962326  13.6148844  51.3671379  26.9534225  13.4514341  51.3421364
  28.2848911  12.7528973  51.5159836  49.5327606  26.4002438  24.2398834
  49.3875809  26.8812752  23.4251652  49.6073227  27.0802021  24.9094582
  12.6469393  25.3975887  26.9433651  12.4166117  26.0615120  27.5932789
  12.2436209  25.7064991  26.1321068  71.8391037  53.3736534  38.8246384
  72.4976883  52.7626724  38.4941788  72.1673508  53.6378593  39.6841011
  19.4161835  57.7298241  36.9183731  20.3359261  57.7499313  37.1827660
  19.4407215  57.7741585  35.9625168  83.9047928  34.9771767  40.1585312
  83.8009109  35.2924347  39.2607269  84.5939178  34.3152771  40.1017342
  49.1039124  22.7416363  20.6082592  49.2786446  21.9995651  20.0294418
  48.7226334  22.3484764  21.3932972  69.2423706   1.3058685  65.1376114
  69.2189102   2.1177986  64.6312027  68.3511200   1.2065110  65.4723206
  79.0678101  59.9479332  48.5199432  78.1554489  59.7849617  48.2806320
  79.3103409  59.1984367  49.0636940  15.7754822  24.7594814  76.6216888
  14.9868994  25.3017998  76.6055603  16.4955006  25.3804264  76.5110779
  79.8091202  11.2195692  48.5854759  79.4251480  10.4243584  48.9548454
  80.4436951  10.9028635  47.9426384  53.9315834  48.7466660  63.9870987
  54.0024796  48.8092346  64.9396133  54.7909775  49.0181084  63.6646156
  23.7010536  30.0541954   3.0778279  22.8363094  29.6743965   3.2334054
  24.2624836  29.6507092   3.7398143  37.0371552  11.8881216  12.7698479
  37.1071014  12.4181004  13.5638638  36.0953827  11.7907534  12.6290646
  56.2372551  28.3093128  40.4066238  55.6315575  28.2489395  39.6679001
  55.9563217  29.0902767  40.8834915  14.6263142  17.7141190  47.0166817
  14.1542835  18.5173454  46.7970314  14.0063734  17.0112000  46.8222313
  69.4905472  52.7826653  28.9655094  70.3630066  52.4898033  28.7022896
  69.3847427  53.6332436  28.5394115  76.7155228  43.1794472  52.3095474
  75.9947128  42.6038284  52.5651398  76.2946930  43.8894272  51.8247108
  84.7469406  35.1384201   5.2344689  84.7126617  35.8734245   5.8467016
  85.2055969  35.4852867   4.4692593   9.2888794  16.4353275  85.3056107
   8.6875458  15.7911263  85.6792831   9.4509783  16.1234512  84.4152756
  30.5437412  20.0339775  22.4230003  30.7647896  19.3050785  23.0027199
  30.3303661  19.6190643  21.5872078  54.5076141  35.9611206  10.8687468
  55.3411713  36.2455940  10.4939270  53.9433899  36.7321777  10.8108368
  42.7124825  71.2271957  60.7470589  43.3878365  71.1423111  60.0740662
  43.1502953  70.9723206  61.5592117  83.8117676  50.5491600  10.1975632
  84.2226257  49.9066429  10.7760019  83.8163376  51.3628006  10.7017450
  67.8207779  70.1390228  37.7720337  68.0006104  69.8855362  36.8666954
  66.9634933  69.7578125  37.9617119  78.9300995  64.8266754  51.5156670
  78.5001221  63.9956512  51.3137856  79.2627335  65.1352005  50.6728134
  24.0217075  20.6322441  88.5872192  24.1816826  20.6057701  89.5305862
  23.0763226  20.7595959  88.5080872  24.5470600  68.5792923  28.0079823
  24.3020535  68.9760742  28.8439064  24.4571705  69.2880630  27.3709526
  57.2118149  37.9028015   4.6528344  56.4905624  38.5312500   4.6199818
  57.8518600  38.2397919   4.0259285  71.3783417   1.8391868  49.7339020
  71.7926254   2.5899882  49.3085899  71.4250793   1.1391658  49.0827370
  45.0639038  11.0937719  63.7292061  44.9043388  10.4530621  63.0361977
  44.2043419  11.4772205  63.9034271  67.3334122  20.4779053  59.3703079
  67.2610321  19.8167191  58.6819572  67.9478149  21.1226234  59.0194855
  82.7763824   6.2387533  11.6665564  81.9602280   6.7015929  11.4770851
  82.8256149   5.5562305  10.9972506  38.5851364  65.5725021  36.8034363
  39.1568565  65.5809631  37.5710907  38.0369720  64.7967529  36.9215813
  39.8781204  69.1572647  27.9943886  40.2938461  68.4087448  27.5664558
  40.5930862  69.5983124  28.4532261  54.9774590  21.7949600  35.3729210
  54.2686691  21.7355499  34.7323608  55.5680771  21.0773735  35.1438522
  74.6952133   3.7541320  70.7010498  75.0914001   4.1755266  69.9383621
  75.1181335   2.8966916  70.7475891  65.8138046  65.9889679   7.5103354
  65.1214447  66.5751572   7.2049584  66.1572800  65.5876846   6.7120676
  51.9720459  51.2930260   7.4205198  51.7716331  52.2279778   7.4644103
  51.1804733  50.8629456   7.7440615  53.4593010   8.2960634  78.6833954
  52.8341866   7.6822863  78.2977295  53.0886497   8.5089149  79.5398712
  80.0284958  27.8032455  71.9237671  79.9098358  26.9184723  71.5783234
  79.2223053  28.2624207  71.6883011   5.2471290  20.1669884   3.1751750
   4.8950505  19.4146156   3.6507881   4.9424205  20.9273472   3.6703911
  30.7566166   4.1579819  62.9120674  31.1288242   4.4850984  62.0931129
  29.8695488   3.8837991  62.6793289  26.4518757  60.5782623  36.7875710
  26.0881443  60.7489433  37.6563606  27.3688545  60.3576012  36.9509430
  81.2679672   1.6311258  48.6977882  81.3747025   0.7152622  48.4408188
  81.9631805   2.0937407  48.2299194  18.4315529  40.9843178  63.3192978
  17.7312450  41.5900955  63.0767365  19.1858921  41.2720108  62.8050613
  36.3055382  10.7587900  64.0272293  37.0671501  10.2810907  63.6986275
  36.6762352  11.4954281  64.5132141  68.7164230  59.7925377  58.6287422
  69.4045868  59.9285545  57.9774628  67.9045944  60.0011177  58.1665115
  59.1215210  61.2191505  16.8184452  59.6184578  60.4216003  17.0006714
  59.7493057  61.7993622  16.3877792   3.2946432  68.2344055  58.8537369
   2.4944162  68.2190857  58.3287277   3.2785733  67.4094772  59.3389854
  52.0696640  41.4154205   2.7463067  51.4287720  42.0768051   3.0071867
  52.9167938  41.8026810   2.9668400  17.4284420  48.7690773   1.2442433
  17.7139053  49.6500320   1.4864483  18.0545979  48.4895554   0.5763908
  58.6858711  65.0963669  25.7032108  58.9650841  64.2203064  25.4371414
  57.7446365  65.0118484  25.8554115  53.3972130  14.4219837  36.2446594
  52.9161491  13.9916382  36.9514885  53.8292618  13.7062140  35.7785721
  80.1463165  42.0643234  24.8638687  79.7156143  41.2561111  25.1422844
  80.7010269  41.7996025  24.1300735  10.7427664   7.0662799  65.4178238
   9.8982153   7.5141416  65.4666595  11.3630495   7.7512817  65.1683197
   1.5997658  43.7048225  36.7491951   1.9975400  43.2283859  36.0204849
   1.8380417  43.1978264  37.5253487  71.9675217  26.2438488  48.5562019
  72.0561371  25.6080914  49.2662697  71.0869751  26.0962925  48.2111053
  46.9483070   5.9603887  12.7283535  46.0060692   6.0296121  12.8820677
  47.3401260   6.5488667  13.3736458  16.1292896  56.2825508  69.6937866
  16.6946487  56.9750404  70.0359192  16.7203484  55.7111931  69.2034531
  20.2796783  17.6271439  10.4632015  20.6332664  16.7407303  10.5372143
  20.8762321  18.0735760   9.8623238  16.5179996  43.6761703  53.2824821
  15.6295519  43.4427071  53.5515327  16.8295002  44.2649460  53.9698982
  21.7902222  44.7226295  85.2021179  22.1260967  45.1590462  84.4191971
  22.4482269  44.8977737  85.8748627  25.5383492  62.6516609  67.7081985
  25.7843723  61.7293243  67.7789078  24.5822849  62.6487732  67.7547379
  78.2911301  21.8496819   8.8886433  77.7591324  22.3784218   8.2939682
  79.0893402  21.6632614   8.3943291  31.1613979  26.8165092   1.5077451
  32.0299950  27.0769005   1.2011971  31.2595539  25.8962269   1.7520299
   6.5253968  24.2666302  70.4171219   6.1512456  24.6680679  69.6328430
   7.3428874  24.7426834  70.5631180  42.3887634  23.4745789  19.0552349
  42.6120110  24.3489532  18.7360744  42.5893021  23.5026627  19.9907703
  58.0636787  34.2341652  29.2319050  57.8479576  34.3825111  30.1526051
  59.0204086  34.2132683  29.2104282  42.7066994   1.3135645  24.3896751
  42.0854378   1.5065775  25.0918217  42.2702522   0.6459246  23.8605194
  26.5642071   2.7033713  45.5903282  26.4592018   1.8896521  46.0833473
  25.7303810   2.8162410  45.1340103   2.0218923  70.3438187   0.5382369
   2.4223461  71.0099640   1.0969151   1.2499951  70.0552673   1.0252136
  20.9060001  14.7328072  10.8908367  20.2046871  14.8954935  10.2600231
  20.4665394  14.3272657  11.6382599  51.6705399  34.0803642  13.6134167
  50.9767265  34.5305252  13.1315355  52.3853951  33.9972687  12.9822989
  65.6394882  14.7086658  39.1450920  66.4513702  14.7003031  39.6520500
  65.8713455  15.1516438  38.3288536  63.9417839  24.0839176  18.1355743
  64.1015472  23.1401711  18.1284237  64.8061142  24.4721355  18.2714119
  44.6702805  55.3827858  32.4487114  45.1169167  54.5958900  32.1363983
  43.7690849  55.1005783  32.6050377  39.2513351  25.4720917   2.2261877
  39.8881416  26.1745186   2.3577425  38.4046555  25.9179096   2.2015269
  39.1838112  60.4904480   1.8522606  38.2320404  60.4401093   1.9407586
  39.3389931  61.3214874   1.4033455  77.0568542  11.5777073  65.8722610
  77.4380112  12.0131311  65.1097870  76.5719910  12.2679338  66.3247299
  64.9547348  41.5267067  19.9048386  65.2563477  41.0322037  20.6668930
  64.1188736  41.1223106  19.6724033  11.2966232  12.2277136  19.1854725
  11.8649845  12.9979067  19.1856575  11.8957996  11.4878635  19.2846756
   4.4618592  63.3082581  56.9548187   5.1334395  63.7123985  56.4053841
   4.9516826  62.8882141  57.6618347  15.3917046  35.8562050   2.9166002
  15.1085844  36.7255363   3.2000387  15.7455902  35.9941978   2.0379910
  68.5106430  46.6967697  64.5798111  69.0044479  45.9608421  64.9414673
  68.7588959  47.4430161  65.1254425  45.2837067  14.8772364   5.5443006
  45.4322472  15.3975344   6.3338938  45.6041336  15.4285173   4.8304043
  73.6426926  44.4041367  16.3251724  74.1306000  44.4841766  17.1447906
  73.6288757  45.2916946  15.9670086  83.8259354  48.9800262  77.2430191
  83.3020401  48.9074364  76.4452133  84.4563217  49.6748734  77.0531998
   9.3648024  44.2654915  81.2900162   9.2621222  43.3721123  80.9620514
   8.8331327  44.7998047  80.7000427  46.9882545  37.5043030  35.6487007
  46.9299202  38.4595604  35.6662941  46.6328621  37.2583313  34.7946396
  84.7826157   0.8357843  56.0716743  84.3421326   0.1935526  56.6282234
  84.4121857   1.6773568  56.3377037  82.1665192   0.9882360  39.1257401
  81.9561157   0.6362885  38.2608147  83.1101608   1.1461577  39.0969925
  38.6759491  65.7136841  44.5252419  37.8189316  66.1293411  44.4304771
  38.4994774  64.9096146  45.0136681  38.8715515   5.7299194  50.0750351
  37.9865570   5.4950266  49.7960358  38.7565765   6.5298486  50.5879936
  33.7657509  67.1545486  39.1758804  33.8612480  66.7505646  38.3133774
  33.1369362  66.5964737  39.6334610  37.0562019  19.8504372  47.3425407
  37.8941345  20.2615414  47.1301804  36.5804596  20.5178509  47.8369713
  76.8300934  55.5227814  69.1384735  77.7006149  55.6843643  68.7747192
  76.9976044  55.1283264  69.9943771  40.4503250  47.9121819  15.3983192
  40.7291183  48.2309341  16.2567520  41.1517487  48.1792870  14.8042698
   8.8704395   2.6742470  30.4806232   8.5412807   3.5286379  30.7597351
   8.2628059   2.0449030  30.8691330   0.2209737  42.2476883  49.7205124
   1.1380545  42.0560684  49.9166718   0.2409254  42.6514015  48.8528442
  16.0493431  13.1589622  46.8798599  15.4389296  13.8453550  46.6106186
  16.5521049  13.5519285  47.5933304  61.2667198  49.5371590  49.4294472
  60.9253044  48.7537956  49.8607407  60.5012093  50.1002083  49.3145676
   5.9075575  45.4727135  31.1224327   5.9663000  45.8345108  32.0066719
   6.6705399  44.8996582  31.0469418  37.3440437  58.8886414  35.9317055
  37.4990005  57.9605026  36.1071396  37.7885056  59.3449097  36.6462021
   4.3726959  39.9496193  37.2527504   4.8979540  40.0082016  36.4546890
   4.1185732  40.8534546  37.4391136  86.1453400  67.7565994  65.5635071
  85.6808167  67.1365967  65.0013275  86.5369415  68.3839798  64.9558258
   4.0892196  -0.2456874  28.3141975   3.8383386   0.6245677  28.0044460
   4.8131747  -0.0850025  28.9194260  81.0455704  35.9077873  33.9654694
  80.5652695  36.4511375  33.3407135  81.9389877  36.2506676  33.9437943
  69.5844040  29.2219009  21.3465042  70.2405396  29.2146378  20.6496048
  68.7796249  28.9262943  20.9208546  18.7135696  37.3334160  80.1436005
  19.1924953  36.5799599  79.7983932  19.3955727  37.9576950  80.3913498
   1.0885955  24.4553146  28.2497330   1.4115016  25.3419724  28.0891056
   1.2986954  23.9751339  27.4487858  54.9100571  62.6446190  64.1608582
  55.7152100  63.0994377  63.9136848  54.2363815  63.0278740  63.5991554
  37.7516937  12.7419071  15.4135513  37.4124794  13.4903154  15.9045181
  37.3654938  11.9786892  15.8431797  41.6262589  53.8037300  76.3617477
  41.0438499  54.2630234  75.7566986  42.3437042  53.4894867  75.8115082
  63.0895081  65.7893753  56.6863022  63.6730003  65.0341568  56.6127205
  63.6208344  66.4619370  57.1124344  44.4703560  61.7376938  74.6633148
  44.7721176  60.9608498  75.1341400  44.7784233  62.4733047  75.1926575
  73.0942612  44.2021446  64.1116562  73.6727905  44.4977036  63.4086761
  72.4297562  43.6742325  63.6689644  60.6258125  62.7287636   3.9175971
  61.4718323  62.3697357   4.1851444  60.8447990  63.5342598   3.4491408
  71.1336441  17.7754936   0.4457316  70.5138931  17.2884674   0.9888194
  71.2121506  17.2549000  -0.3536752  34.7978325  58.2211418  47.1399841
  35.1359482  58.6208267  46.3386383  33.9415398  57.8731384  46.8912086
  27.2210522  12.6770134  42.0058632  27.0026913  13.6056337  41.9270325
  26.7235985  12.3777637  42.7669296  14.4738064  49.5841331  21.7360573
  13.7976580  49.8487625  22.3597775  15.2659235  49.4933281  22.2657127
   1.2486159  20.0057392  28.3808517   0.4215486  20.3991623  28.1026249
   1.3563749  20.2911625  29.2881298  77.0559921  43.3604813  17.6202259
  76.7614288  43.3595619  16.7094784  76.5682907  42.6462517  18.0304165
   6.7365274  33.9564896  23.2816982   6.6506615  33.8082237  24.2234402
   6.7677970  33.0780296  22.9028034  15.1816454  15.2948456  30.7894363
  15.7657938  14.7412500  31.3076401  14.9603281  16.0211029  31.3723602
  37.9886208  33.7531700  34.0889244  38.9197502  33.8123474  34.3027573
  37.7676010  34.6167526  33.7402039   7.4151249  43.0046616  14.3025961
   6.4713459  43.1636581  14.3178244   7.6994905  43.3324013  13.4493942
  56.8107491  47.5871201  72.8449783  57.1151314  46.8363991  73.3548737
  56.8257065  48.3181534  73.4627151  19.4556293   8.5272093  48.3563766
  18.7971039   7.9331942  48.7165413  18.9662762   9.0943165  47.7604256
   7.7329545  42.2290077  32.5858955   6.9264946  41.7171097  32.5241318
   7.8547611  42.5908737  31.7081432  49.7114258  56.7950745  82.8455963
  49.9614563  57.4456558  83.5016861  49.3694687  56.0603676  83.3550110
   2.7817631  67.0755310  65.3364410   3.0185761  66.2992249  64.8289948
   2.0511696  67.4630356  64.8544617  66.6532440  52.0055313  66.7990952
  66.5782623  52.5394859  66.0082092  67.1907349  52.5303307  67.3923187
   7.1403451   7.7638855   1.4935061   7.4379573   6.8764458   1.2932328
   6.1886911   7.6875176   1.5624566  76.6197739  50.1750259  70.9604034
  76.9567795  51.0528069  70.7810669  77.3698730  49.6985359  71.3161240
  21.6160698   8.8995028  26.2804165  21.1389828   8.2949715  26.8488903
  21.6820908   9.7065821  26.7908020  49.9009018  61.4586525   0.5299193
  49.5831642  61.9572792  -0.2228403  50.1554985  62.1248779   1.1683214
  56.9370651   2.5615621  19.4153233  56.5228653   2.3480563  20.2514362
  57.4991608   3.3112202  19.6110115  31.5960808   1.8598653  29.6784058
  30.8787365   1.6363474  30.2714386  31.9905643   1.0177436  29.4515896
  37.4226036  10.2157574  27.1095085  37.3052597  10.2048855  28.0594273
  36.6197586   9.8250570  26.7645130  21.0471821   4.0240326  21.6274567
  21.6257133   3.5762894  22.2447586  20.3799591   3.3732765  21.4093742
  53.3582458  60.9885521  34.9402046  53.4907074  60.9210243  35.8857880
  53.4009476  60.0849686  34.6272430  82.5553589  13.4930267  10.4401340
  83.4614716  13.6501465  10.1746120  82.0302048  13.8652925   9.7317133
  16.1728821  50.2977219  58.7649651  17.0711842  50.4866066  58.4936600
  15.6397905  50.9333267  58.2874146  70.5374756  51.0429039   7.9163980
  70.9587860  50.2116699   7.6978006  69.6857376  50.7928391   8.2744923
  76.7818909  62.0670547  46.2406349  75.9405289  61.6744118  46.4733849
  76.5529633  62.9120216  45.8535233  53.1928444  32.5545387   6.6948166
  53.8329926  31.8439674   6.7339649  53.2254372  32.9544220   7.5638742
  20.2548370  63.3844223  39.1847115  19.4986343  63.7502365  39.6435890
  20.4542999  64.0256577  38.5026131  52.5990486  54.0017319  50.6273613
  53.1924438  54.5560112  51.1342010  51.9995155  53.6354866  51.2774773
  23.8475323  28.5744801  80.7717056  23.9371796  28.2490902  79.8759842
  24.5078220  29.2637672  80.8433380  82.1434708  31.7500019  12.7891941
  83.0321426  31.8375034  12.4444780  81.6048889  31.5669575  12.0193501
  78.2722015   4.3800759  79.3707657  78.9752274   4.9774957  79.1156769
  77.4673538   4.8563275  79.1667252  64.2197800  55.3496208   7.4279771
  63.5866470  54.7493210   7.8216963  64.4231110  54.9595108   6.5778580
  79.6510086  37.0930176  14.9964066  78.7783585  37.2113380  14.6213017
  79.9382095  36.2400970  14.6704044  65.5231247  69.3059387  47.8407555
  64.6993561  68.9257050  48.1458168  66.0036621  69.5112305  48.6427307
  24.9934502  16.9519405  82.2542877  25.3439865  16.1071987  81.9718628
  24.8926716  17.4522629  81.4445038  37.0192413  28.6884003  12.6305342
  37.6564064  28.7469158  11.9186134  36.7297783  29.5904236  12.7676344
  82.3605270  40.2629395  87.6112061  82.0953827  40.9433403  86.9923477
  81.5463715  39.9980431  88.0392456  35.8056564  48.8824234  24.0287228
  36.2049637  48.3325920  23.3545780  35.2277145  49.4726219  23.5451107
  86.4139175  68.4088364  35.2024918  86.3597565  67.6205063  35.7427025
  85.9337540  69.0722351  35.6980476  67.0081024  57.7019615  22.3453541
  66.5101166  57.8152237  23.1549301  67.9112015  57.5739098  22.6355972
   5.1242709  37.1091614  36.4765739   5.1425953  38.0063438  36.8096848
   5.9559741  37.0085487  36.0135651  82.9779510   9.8849697  44.4107780
  83.4794388   9.1189938  44.6901054  83.5426559  10.6295519  44.6179848
  70.5541611   4.1824069  22.0951481  70.2868118   4.7474675  22.8200378
  70.6286469   3.3114839  22.4852467  33.0954514  32.2680664  76.3564835
  33.0929298  32.3254471  77.3119583  32.4852257  32.9492912  76.0740128
  83.0122681  21.6547165  86.8068008  83.9616241  21.5784721  86.9023819
  82.6800690  20.7803879  87.0103378  75.6738205  35.4418488   1.6825595
  75.8292007  36.2273407   2.2070477  75.1504593  35.7480545   0.9419079
  82.4896927  47.8902359  46.0239220  82.0285339  48.7022743  45.8137741
  83.3348770  48.1773338  46.3695602  50.1214485  36.9749260  78.4907455
  50.2990417  36.0343475  78.4922028  50.4232368  37.2743225  77.6331253
  71.5109482  57.7248764  53.5595055  71.2414322  57.9432335  52.6673660
  71.3572388  56.7829132  53.6323700  70.3941879  34.4640045  78.2893295
  69.4871292  34.7073097  78.1041870  70.6936493  34.0301704  77.4903717
  37.7337532   3.1525142  16.5524044  37.7873459   2.8266068  17.4508152
  37.4238319   4.0536494  16.6426029   1.9015051   6.5775537  55.9608116
   2.5558038   5.9617405  56.2908096   1.8754741   7.2738681  56.6170883
  74.1491776  47.5942039  12.8675308  73.6819077  47.9236870  12.0998526
  74.9872894  47.2853203  12.5234556  85.3949661  69.7320557  88.2315445
  84.7964706  70.4787903  88.2106934  86.1523743  70.0178299  87.7207642
  18.4335594  37.1027946  24.6072025  18.5982151  36.5363922  23.8533401
  19.2866096  37.1891823  25.0327301  56.7853966  69.7300873  31.4664249
  56.6229782  70.4692459  32.0525093  57.5446358  69.2867050  31.8448429
   4.4946551  43.3067017  41.5110703   4.7653036  43.4864845  42.4114380
   4.1005864  42.4352036  41.5489159  41.3105659  23.0469589  32.4591408
  41.3059616  23.5694351  33.2611580  40.6548195  22.3667641  32.6126404
  56.8409996  19.7149258  72.9201660  57.7858772  19.7544193  72.7722626
  56.4826126  19.3903999  72.0940475  31.8441563  52.5331345  21.6510620
  31.7077751  52.1854553  22.5323963  31.1920910  53.2284927  21.5643425
  68.2890854  17.2215099  34.8530350  68.0799103  18.1526661  34.9267159
  68.4891281  17.0936108  33.9257507  29.3679447  64.3307648   2.1747675
  29.8850861  63.8317299   1.5425004  28.5684853  63.8169212   2.2890463
  10.2263641  51.1045532  51.4970779   9.5773792  50.5697403  51.9542732
  10.0233870  50.9862785  50.5691528  82.7012253  30.5062904  15.3102217
  82.5141449  30.6609287  14.3843060  83.6286240  30.7228031  15.4066067
  51.4717712   3.4918776  32.2478180  51.9992523   3.9806352  32.8795700
  50.8643188   2.9836268  32.7853279  -0.0809591  49.8344498  46.1806221
   0.1521338  49.2207336  45.4840202   0.5369781  50.5583344  46.0787544
  22.1096115  25.0846367  81.4033737  21.5425701  25.7402935  80.9974060
  21.6147785  24.7773151  82.1629333  44.2411003  39.8687973  26.0737400
  43.5666847  39.6130714  25.4444561  44.3929405  39.0808296  26.5955448
  77.9290924  38.6826859  34.5993156  78.4587631  38.0277405  35.0539970
  77.5254059  39.1934204  35.3010445  80.2868729  56.6898003  12.0562916
  80.0337067  56.9006424  12.9550056  80.7976456  57.4461250  11.7676392
  57.8574829  25.1678467  20.6665649  56.9139137  25.0089493  20.6922016
  58.2392807  24.3120155  20.4715900  71.6106796   0.1292017  19.3469429
  72.1180801   0.7571174  18.8326511  72.2366028  -0.5602766  19.5684586
  22.3701801  20.8538837  32.2906990  21.8720341  21.6695271  32.2377052
  22.1236305  20.4771061  33.1353760  82.5655670  58.1266403  85.5078049
  82.9130707  58.8359375  84.9670944  81.7219315  57.9129181  85.1092606
  28.7727985  69.3380280  57.3210106  28.7337627  69.1554489  58.2598228
  29.6236210  68.9965820  57.0457840  55.5614548  10.4979353  16.4178085
  55.3812790  10.5607252  17.3558006  56.0783768   9.6975355  16.3262653
   0.9454114  35.0677643  21.4852600   1.0289357  35.0520058  22.4386787
   1.2080798  34.1902885  21.2072811  39.5545044  52.2215080  38.2881470
  40.4368057  51.8577232  38.2143898  39.0631866  51.5610580  38.7766609
  48.4270439   7.7735877  73.6850128  48.9298820   8.4775696  74.0946426
  49.0886879   7.1525149  73.3805008  35.2144737  59.9870186  24.5751591
  35.4939804  60.1032295  25.4832363  34.2602501  59.9293747  24.6237793
   3.3372550  28.5256443  43.1639442   2.9966683  29.4180317  43.1016922
   2.5563791  27.9735451  43.2045937  12.0378590  57.3366089  15.4698648
  11.3022089  56.7257500  15.5134706  11.9058342  57.9240341  16.2139988
  23.5672245  41.2797127  37.8311539  23.3893852  40.8493385  36.9948616
  24.4643555  41.6029778  37.7481575  31.6566238  20.0206223  13.6541414
  30.9923744  20.1377277  12.9749584  32.3913918  19.6063652  13.2016573
  44.2168770  49.9250755  44.0037727  44.6211586  49.2781906  43.4255638
  44.4915009  49.6651268  44.8831139   5.4398932  32.9040794  55.1108780
   4.5724268  32.5943832  54.8504524   5.4380655  32.8460426  56.0663147
  19.9810925  60.2367935  29.1872749  19.5324001  61.0501823  29.4181557
  20.8962040  60.3936615  29.4200802  11.5597582  32.6469650  81.8296127
  12.2561054  32.7197075  81.1768951  10.9245853  33.3173752  81.5779419
  55.4720840  10.7574530  43.9565086  54.6903038  10.2531233  43.7313423
  55.3319855  11.6116428  43.5479012   1.9060057  31.4599705  60.1117020
   2.5112226  30.7243729  60.0176773   1.7362447  31.5117378  61.0523033
   4.1249514  31.6928596  66.2791214   3.8363984  32.5812111  66.4883957
   3.3209643  31.1734028  66.2801132   2.5359688  51.2673721   7.5800729
   1.7663032  51.1409950   8.1349382   3.2187631  50.7392426   7.9937205
  76.9330673  43.1433220  55.8642349  77.2791748  44.0345612  55.9104156
  77.6556625  42.5900955  56.1609230  26.1519108  53.8485565  59.8233528
  25.9785099  54.6028976  59.2602081  27.0801296  53.9233437  60.0448227
  79.6462555  63.7329597  56.9112549  80.2469711  63.4550209  57.6027222
  80.2142792  63.9376831  56.1685143  82.0123291  63.6628799  58.4135818
  82.2475052  63.8087921  59.3298950  82.0663452  64.5298386  58.0114632
  45.0401421  65.4668198  29.3625526  45.8457413  65.3902893  28.8512974
  44.9707222  66.4004745  29.5618286  31.5856552  51.9999962  24.3688431
  30.7517338  51.8713989  24.8208027  31.9940491  52.7360535  24.8245525
  14.5782566  69.3400955  33.0729942  14.1846027  69.5774689  33.9125900
  15.4774618  69.6631927  33.1301918  86.0199890  66.8264618  86.1243286
  85.4427109  67.2353210  85.4794922  86.5035782  67.5569229  86.5100861
  51.9999466   9.9772205  27.8165035  51.0533028   9.9586248  27.6759758
  52.1395454   9.4189901  28.5814381  76.2361069   9.7668438  28.2676697
  76.9678345   9.6081572  27.6713238  75.7988663   8.9185381  28.3413391
  70.0192795  44.7372284  25.5731697  69.3837051  44.4261398  24.9285774
  69.4957733  44.9342766  26.3499222  69.3082809  30.3684368  28.8435020
  69.0671387  31.2911491  28.7617512  68.8374863  29.9339218  28.1323204
  26.5765476  65.9645767  71.0485992  26.7013264  66.8890228  71.2632141
  26.0985184  65.9736099  70.2193604   0.4447581  29.4945049  50.9944191
   1.3924719  29.6263313  50.9681053   0.1646868  29.9295979  51.7997055
   8.2381544   6.3107305  82.4618988   7.6759453   6.4228868  81.6953659
   8.0920057   5.4052415  82.7356873  74.6189651   4.0543442  54.7823105
  74.9067535   3.1531401  54.6365700  74.7316589   4.1926398  55.7227402
  12.9931755  24.7711105  30.7493973  12.3312187  24.3092232  30.2349014
  13.1876965  25.5571880  30.2390289  68.3496323  22.8305721  47.1448479
  68.3280716  21.8736305  47.1502151  68.3030472  23.0660038  46.2182236
   0.6556315  43.4775124  75.3843918   0.1511208  43.1864738  76.1439972
   0.5083143  42.7995148  74.7249603  46.1834145  38.9454994  28.4121475
  45.6579437  39.6247063  28.8349781  46.9962997  39.3884163  28.1686802
  14.4167910  65.2368469  65.5375748  14.2953100  65.4711380  64.6174698
  15.3474369  65.3883362  65.7024384  34.1331558  28.2303886  26.7644253
  33.5394821  28.5308571  27.4525394  33.6139717  28.2797394  25.9617748
   7.6227469  45.9348984  23.0938969   6.7904773  45.7856560  23.5425453
   7.3806224  46.3799858  22.2817974   1.5089546  44.2321815  24.0085278
   1.5322657  45.1367989  24.3205471   2.1345465  44.2124214  23.2843208
   2.2567804  24.2840443  77.4035873   1.8357861  24.0184879  76.5859833
   3.1582153  24.4872093  77.1538467  24.8789749  48.8286324  78.7662125
  24.0228958  48.8308907  78.3380127  24.8527260  49.5804710  79.3580551
   5.8447690  23.8614330  66.7832413   6.2545757  23.1509418  67.2766953
   5.0188041  23.4913406  66.4717255  55.0482635  44.2938461  24.8108940
  55.6457253  44.9844742  25.0977821  55.3319283  44.0863419  23.9205513
  78.4076233  16.3043137  64.5659256  78.9445038  16.9749775  64.9880676
  78.8744125  15.4850588  64.7307434  56.3476257  54.8944511  48.5948982
  55.7887764  54.9981461  49.3650742  55.8319855  54.3546753  47.9957428
  39.9703369   6.3937311  17.4264145  40.3833580   7.0779104  17.9532356
  40.4124756   6.4442811  16.5789547  22.4428387  10.8668709  30.6132393
  22.6195602  10.9005623  29.6730976  23.2583027  11.1586103  31.0208378
  34.1137047  45.7588310  23.9294033  34.7975845  46.3410568  24.2603951
  33.3369713  46.3144188  23.8643074  43.8301277  44.6859245   9.5730734
  44.0204315  43.9533501   8.9871120  42.9323883  44.9383163   9.3572245
  15.1153145   5.7409697  -0.0068868  15.1220884   5.3684855   0.8748397
  14.3046379   6.2483959  -0.0463102  69.1455765  49.3236008  64.5488892
  69.1801376  49.5918617  65.4670792  69.1524124  50.1457558  64.0587387
  25.5581112  12.8348827  38.2067566  26.2970181  12.2323856  38.1216354
  25.9527416  13.6591473  38.4915123   6.4439473  35.9888687  65.0693741
   6.4799905  35.6462212  65.9624100   7.2768512  36.4463921  64.9545822
  85.9789124  23.6410275  47.3169823  86.7719879  23.1661415  47.5654716
  86.2322998  24.5635376  47.3486671  33.6433105  70.0621719  13.9611082
  34.5426331  70.3080521  14.1778955  33.6481857  69.1050186  13.9689550
  -0.1416134  58.8454704  50.6487770   0.7285556  58.9658051  51.0289841
  -0.0081676  58.9513626  49.7068596  64.5458527  31.0506992  17.9156017
  64.5119553  31.2367516  16.9772682  65.4591980  30.8165340  18.0805092
  23.7375336  51.7288742   2.4033282  23.3325653  52.4669991   2.8587489
  23.0224934  51.1058197   2.2739160  58.1063995  47.8654594  13.6031990
  57.1794052  48.0712852  13.7238283  58.1112862  47.1386833  12.9802999
  16.0335007  27.8495998  13.8104906  16.7819271  27.6190662  14.3608952
  16.0269928  28.8067532  13.8037090   2.2106781  67.1152191   6.3861823
   1.6044401  66.3752747   6.4205685   2.9418418  66.8519821   6.9450550
  24.7514305  26.2182217  35.1001358  24.8823833  25.5937996  35.8137016
  24.5816708  27.0516243  35.5392876  69.4575043  37.8580284  28.1305027
  68.7116013  37.9014893  28.7288036  69.6638565  38.7727127  27.9381332
  62.5132713  54.1729469  81.0713654  62.5721359  53.3568192  80.5746765
  62.3912354  53.8929634  81.9785309  29.7546158  21.6426048  87.2362518
  29.0277386  21.7053108  87.8558884  29.6048889  20.8178558  86.7740860
  14.0929098  65.1769028  57.0161629  14.9343882  64.7533569  57.1857414
  14.1808739  66.0479279  57.4032211  63.0797424   9.4779911  49.9768219
  62.7053528   9.5176973  50.8568726  62.5830765   8.7885389  49.5361290
  73.5162506  60.4523773  70.2217484  72.6348038  60.7602043  70.4327545
  73.4622421  60.1810989  69.3053818  78.3717346  12.9672070  69.3317642
  77.8526917  13.5031071  69.9314651  77.8850784  12.9900837  68.5078278
  33.0618515  30.8718243  86.2617493  32.4717636  30.1711273  85.9841690
  32.9909859  30.8805504  87.2162857   5.9346151  65.7673798  63.1065102
   5.6535754  64.8527679  63.0796089   5.3908186  66.1651382  63.7864418
  32.2855759  44.4364662  32.1237602  31.4031239  44.3869972  31.7562542
  32.7556953  45.0306129  31.5387707  69.3880920  67.4632874  37.3770447
  68.9317932  67.8487778  36.6291008  68.6897278  67.1054688  37.9252052
  58.9600983  49.2943268  26.8624897  58.2578011  49.8370361  26.5040474
  59.5548859  49.9173355  27.2800083  80.8641052   0.3880965  85.1085968
  80.5846176   0.4612959  84.1960373  81.3515549   1.1948502  85.2752457
  17.0226192   0.9437029   9.6957283  16.6520195   0.0611872   9.6884193
  17.9586029   0.8092003   9.8443098  14.4065189  36.4401207  21.6822205
  13.5710611  36.2487946  22.1084080  14.6554012  37.3009987  22.0186405
  52.8569450   0.7744014  88.5920105  52.0171356   1.0764424  88.2460022
  53.4260216   1.5425633  88.5439224  57.2315598  56.7957916  80.3975906
  56.8100471  57.1682014  79.6230774  56.6615067  56.0713997  80.6555252
  79.5423508  42.4503746  83.1771164  79.5022583  43.1508484  82.5259933
  79.4780579  41.6438904  82.6655731  57.6531601  64.8440628  11.7037268
  57.2540092  65.2329788  12.4819613  58.0814247  65.5774918  11.2622576
  13.4178915  57.1076736  72.2859726  14.2545595  56.8456650  72.6701202
  12.7586632  56.7462082  72.8784180  50.5564804   7.3276739  11.2918797
  50.6184769   6.7480922  12.0511379  50.8355980   8.1825686  11.6197205
  57.8499641  50.0031815  34.9127884  57.6705627  49.0683479  35.0134468
  57.8717461  50.3406639  35.8082581  47.5165329  70.7988434  78.4810562
  47.3415031  69.8683319  78.6215897  46.6744804  71.1622162  78.2069321
  66.8313828  62.9789658   2.8082175  66.6562195  62.9174995   3.7472436
  67.4644241  62.2818184   2.6365263  17.3151608   6.6927223  66.3219223
  17.7314034   6.1809835  67.0155334  17.6761856   6.3349867  65.5108032
  51.8730698   5.1293750  42.4159279  51.8339577   5.7627101  43.1325798
  52.3818512   5.5693884  41.7349319  71.1640778  69.5302658  30.5934639
  72.0695496  69.3914261  30.3158283  70.7078629  69.8000870  29.7964096
  86.3149490  54.1886215  80.9078751  85.7498779  53.9044762  81.6263351
  86.4502716  55.1231270  81.0647964   7.0503778  37.7879105   6.8389087
   7.8853097  37.3217239   6.7965941   7.0424495  38.1865005   7.7091355
  59.3126945  60.7638397  63.9164925  59.4762344  61.2406883  63.1027946
  58.3895988  60.5154495  63.8671532  78.7608109  29.4444294  17.4870625
  79.6110306  29.1039124  17.2088623  78.6099777  29.0422344  18.3424702
  48.7140350  48.0313721  19.4140968  48.7233658  48.9458580  19.6966820
  48.2990875  47.5613976  20.1374054   8.4066477  38.6001396  27.6321602
   8.8484421  37.8145332  27.3098736   7.5608749  38.6002159  27.1839409
  55.2598190  18.6390095   8.3611813  54.3253059  18.4864883   8.2209816
  55.5644646  17.8552208   8.8184538   5.3987093  52.3409042  32.8830681
   4.6591525  51.7934494  33.1468544   6.1336832  51.7319565  32.8107529
  76.6706390  34.4751663  19.2625046  75.9552307  34.9508629  19.6845627
  76.6917114  33.6287498  19.7090092  73.2595444  27.0133476  77.4193497
  73.3328094  27.9544067  77.2603836  72.5154572  26.7372646  76.8842392
  72.1640701  20.1524410  43.5729752  72.8282852  20.4314575  44.2032166
  71.3308640  20.3686047  43.9916306  36.0411377  47.7050018  15.8601542
  35.4241333  47.0936661  15.4579048  35.4955254  48.4297829  16.1654911
  33.2239914  37.8920288  79.6070557  34.1234322  37.7305412  79.8919373
  33.2367821  37.7215233  78.6652527  68.1494522  43.0230522  54.0709457
  68.5498428  42.1538239  54.0899124  68.0442352  43.2584496  54.9927673
  74.2489929  60.1660728  25.4317970  75.1926270  60.1485672  25.5913906
  74.0469131  59.2934074  25.0943794  50.6390343  18.8502541  67.9586868
  51.1918144  19.5642414  67.6410599  50.8582115  18.1085606  67.3946991
  40.2979279  55.9047432  81.9536362  39.6763039  56.5667725  81.6510849
  41.1330833  56.3689041  82.0111160  51.4594345  68.1685562   8.0474443
  50.8972931  68.6424026   8.6603842  52.1188011  67.7505493   8.6012821
  76.1075134  58.8792915  35.4809990  76.0100708  59.0815353  34.5504951
  77.0536346  58.8297424  35.6175308  23.8485928  63.8185349  36.9652748
  24.0208569  63.0202942  37.4646416  24.7045059  64.0762711  36.6229057
  11.6558790  22.4986782  19.1224594  11.4331770  23.3403606  18.7247066
  11.2233839  22.5153198  19.9762173   8.4678268  27.9285583  45.9866142
   7.6416135  27.6273193  46.3645782   8.7411890  28.6502953  46.5528297
  41.6946526  42.3212814  86.1447601  41.0500679  42.9940948  85.9255219
  41.1798401  41.6138153  86.5329590  64.2114792  64.8710327  52.1999054
  63.5494041  64.7268448  52.8759956  64.9168854  65.3352661  52.6506004
  83.0250168  68.0524750  20.4134884  82.6775742  68.9397049  20.5047626
  83.1202011  67.7388306  21.3128204  35.6917801  15.4605808  13.6873522
  36.6417160  15.3444395  13.6683283  35.5540390  16.3577461  13.3834534
  54.5381508  69.1855240  48.5233345  54.1434288  69.9454956  48.9509659
  53.9079666  68.9370956  47.8470345  63.0541267  24.8672142  78.8689728
  63.8200912  24.2964745  78.8074188  62.7417107  24.7528248  79.7664948
  84.0254288  65.0388412  84.3579330  84.9513168  65.0163040  84.1161346
  84.0004196  65.5576630  85.1619415  84.1243362  19.3856258  84.5969086
  84.8155975  19.5751705  85.2313004  84.5432816  18.8203926  83.9478912
  27.2200241  59.9545174  86.4892883  27.2906246  59.0029411  86.5651169
  27.4071789  60.1359329  85.5682602   3.7492135  32.9129524  15.9573669
   3.5838578  32.2732506  16.6499500   4.7024660  32.9336128  15.8730173
  64.0867310  36.6816940  61.9620743  63.5815620  36.7907486  62.7677650
  64.7256470  37.3941765  61.9816818  77.8244324  31.1660728  53.2684746
  78.3385010  31.7643814  52.7262573  76.9313126  31.2469196  52.9337578
  11.1391315  58.3413582  75.6657410  11.8836527  58.9063683  75.4591446
  11.1981955  57.6261559  75.0323181  53.9932022  62.2385292   0.0842213
  53.2087212  62.7150154   0.3558505  54.3657646  61.9053802   0.9005803
  15.5933981  24.9132805  79.8127213  16.0908432  24.1159859  79.6307831
  14.7609921  24.6006145  80.1670837  72.2129211  48.8692665  34.1836281
  71.9075165  49.2909546  34.9868355  73.1204147  49.1592598  34.0910034
  40.5171509  18.9840717   2.6633167  40.1657410  18.1638260   3.0096388
  40.8909950  18.7452869   1.8151112  37.1513443  49.6301651  10.9932232
  37.9812584  50.0161819  11.2733374  37.2449799  49.5217056  10.0468082
  40.6612129  29.9371414  40.7601891  40.9088211  30.3825684  41.5704460
  41.3891220  29.3415737  40.5822029  45.2299385  46.6029015  30.9120483
  45.1448059  47.5011215  31.2317085  44.3779335  46.2040291  31.0887356
  19.0806179  37.6384392  34.2870865  18.8496170  38.5148163  33.9791412
  19.8693314  37.7696533  34.8133469  66.1203079  40.2425613  66.5930405
  65.3781509  40.7556496  66.9127045  65.7428055  39.6606598  65.9334106
  74.2370071  54.8060684   5.5901065  74.5234528  55.4913635   6.1938877
  73.3870621  54.5268745   5.9305182  86.5617447   1.3734225  25.9343872
  86.8388290   1.4765282  25.0239887  86.5370865   0.4264080  26.0714531
  80.2540054  45.8553238  42.1981659  80.5012131  45.9138374  43.1210403
  79.3518753  45.5356178  42.2116661  54.1476974  54.1395950   9.0591230
  53.6333504  53.3501282   9.2277012  53.7330170  54.5366135   8.2931929
  77.7495193  29.0280418  14.6743698  78.1768188  29.4750404  13.9437294
  78.1123886  29.4453354  15.4556656  16.4821491   9.9097538  80.8290482
  15.5566845   9.6994286  80.7044983  16.9503155   9.2026815  80.3850861
  83.8221436  54.6769791  55.4384117  84.4281921  53.9379654  55.4912643
  83.9718018  55.1677322  56.2464943  18.6457939  40.5847702   8.0535460
  18.0399933  40.0441933   8.5605097  18.2586174  40.6225624   7.1789608
  22.2555256  39.1899033  18.5303688  22.5440159  39.4721260  19.3983288
  22.7388191  39.7504158  17.9233398  27.0461464  47.7234840  74.7202072
  27.7927036  48.2287331  74.3983307  26.3802624  47.8198929  74.0393753
  37.2776871  65.7781982  64.4363251  37.3318138  66.5789337  63.9146729
  36.5976067  65.2586060  64.0076675  38.1849060  17.8427238  16.7298851
  38.7707939  17.7379742  17.4795494  38.6989174  18.3370857  16.0914249
  65.8032455   9.4483223  59.6331100  64.9499893   9.5763721  60.0475731
  65.7378616   9.9164009  58.8007278  21.4044361  57.1140175  68.4189301
  21.5299950  57.9798546  68.0306015  21.9477825  57.1238480  69.2069092
  47.7426071  38.3693695   8.1361551  48.2844353  38.3028412   7.3498802
  46.8747292  38.0804558   7.8541164  56.1748314  42.4302979  78.5907516
  55.4781303  41.8323746  78.8615417  56.6227608  41.9702873  77.8808365
  35.6833611  65.4274292   1.9274399  35.9068489  66.3442764   1.7672181
  34.8175964  65.3195953   1.5336664  75.7663269  43.9355278  73.9325562
  75.1357346  44.4967232  73.4812927  76.5216217  43.9035683  73.3454056
  30.4596386  60.1386795  33.8789024  30.6268024  59.4880257  33.1970367
  29.9298859  60.8083191  33.4462700  29.2096272  28.1005535  82.0883179
  29.7056980  27.3256168  82.3521729  28.5990887  27.7795963  81.4246445
  59.4461060   1.5610858  87.8296127  58.6706505   1.6519483  88.3833694
  59.7305603   0.6568145  87.9623184  47.8315735  67.9709930  56.0255547
  47.5351219  67.5186081  55.2358131  47.0362396  68.3554001  56.3942032
  44.4132004   6.3686104  13.5986795  43.5515556   6.4898009  13.1997881
  44.2373581   6.3193607  14.5382986  74.2843018  45.6924706  75.7979813
  74.9073029  44.9787025  75.9344940  74.0712204  45.6493950  74.8657913
  77.3677750  13.2985153  80.4405136  77.4160309  12.4629192  79.9760971
  77.0579453  13.9207439  79.7824402  64.5264816  21.8386078  -0.0874212
  65.2775955  21.2734909  -0.2682572  63.9265785  21.2864742   0.4140762
  11.6916275  65.6370010  55.6001701  12.4656744  65.3100967  56.0586586
  11.1358852  65.9940262  56.2929268  68.0648346   6.1517067  60.7724380
  67.9889450   6.9697089  60.2811699  69.0014191   6.0649118  60.9499130
  68.5376358  17.9274921  28.1738567  68.0983047  17.7696323  29.0095005
  67.8690872  17.7450695  27.5135593  74.5029449  10.5679321  45.0678825
  74.5267258  11.4117537  45.5191383  74.2247238   9.9450197  45.7392998
  51.0686035  49.1212578  33.6278343  51.7647667  48.4875984  33.4544449
  50.5517082  49.1356010  32.8223228  55.8473930  42.5606728  38.0526466
  55.3871536  42.3414040  38.8627892  56.7563057  42.3103142  38.2182465
   0.8128799  69.3197098  78.6101074   0.7600219  69.8282928  77.8009186
   1.0041745  69.9676743  79.2881775  80.6988831  42.1217804  29.5817966
  80.7192307  42.3043251  30.5212078  80.1360779  41.3518982  29.4995422
  20.0632458  18.6587601  20.3866634  19.4780521  17.9022198  20.3488960
  20.0128765  18.9553986  21.2953434   6.0212646  49.2996407   7.4378276
   5.9492898  49.8650169   6.6688042   6.9433818  49.0439796   7.4616838
  48.3989182   5.0916224  62.8349419  48.3834076   6.0468755  62.7759323
  47.6801300   4.8051419  62.2714691  77.1692429   7.9335866  77.4092255
  77.6450958   7.6858354  78.2019501  76.8504028   7.1046114  77.0523300
  22.4783440   3.1926794   1.7996818  22.0635319   3.6413770   2.5364547
  22.9143429   3.8897090   1.3094919   5.5973678  16.8544140  49.9934044
   5.0283818  17.0820675  49.2581062   5.6253114  17.6472263  50.5290337
  80.4156952  53.1108551  48.9843864  80.1080933  53.9885368  48.7579117
  80.5608292  53.1444969  49.9299240  79.9277725   3.2007005  76.8835449
  79.4020157   3.7020035  76.2602463  79.3734436   2.4573889  77.1211166
  69.5599747   9.2604361  83.8414536  69.5186691   9.5887299  82.9432602
  70.1244278   9.8838463  84.2985992  75.2173691  37.9312172  28.0741329
  75.6077347  37.1763306  28.5145798  74.4281921  38.1225166  28.5809250
  66.3431549  68.9565277  64.0145035  66.1679153  68.7971573  64.9419327
  66.7308044  68.1397247  63.7001877  70.4980011  40.2200851  78.7672806
  71.2345886  39.7087669  78.4322739  69.7241821  39.7988892  78.3930817
  40.1772461  64.1575470  22.5881481  40.1451149  63.4278107  23.2067642
  40.5591087  63.7822647  21.7946892  48.1757240  56.3093872  70.9692230
  47.8989296  56.8409119  70.2228317  48.0700607  56.8858185  71.7260590
  56.0806465  63.1365089  70.9855347  56.2383919  62.2550621  70.6473083
  55.8583527  63.0032501  71.9069748  39.9116364  29.3008175  84.4658813
  39.5828857  29.9596386  85.0775223  40.5247421  29.7779274  83.9066849
  52.9203453  55.6179810  72.0492783  52.8937340  55.3155937  71.1414871
  53.7789612  56.0314751  72.1389236  72.3377304  52.5757713  72.4114685
  72.6539001  52.2711906  73.2620544  72.4854736  53.5213966  72.4256287
  71.5420151  63.9524384  15.6930990  71.1723251  63.6007500  16.5029602
  70.9749680  64.6912155  15.4719772  38.8801575  48.0150032  26.2463417
  38.8388863  48.4476852  27.0991688  39.5327148  48.5145950  25.7556248
  21.8699169   2.8709314  13.6215200  22.6209507   2.2778330  13.6418724
  22.1391850   3.6168456  14.1575594  11.5114317  53.9862442  71.3387451
  11.1249866  54.7998886  71.0149078  12.4499750  54.0870514  71.1799774
  15.9485483  53.9912910  32.9395332  16.3141575  53.1400719  33.1803284
  15.0389719  53.8042603  32.7073250  63.0953789   5.4128604  31.2795048
  62.7650986   6.1591511  31.7796993  62.3098106   4.9924550  30.9296875
  23.6819992  64.4043579  25.3697948  24.3568535  64.1042557  24.7609119
  23.8783932  65.3310623  25.5072460  61.5657272  19.0259609  40.4484634
  61.4550400  18.2379074  40.9803963  62.2395401  18.7914963  39.8103180
   3.1792479  49.8906136  21.0876255   3.3724368  49.4698524  21.9254017
   2.2453303  49.7323532  20.9498444  85.7846832  52.5569725   0.2569283
  85.7486038  53.0879478   1.0525380  85.1117630  51.8882942   0.3845142
  58.9206810  54.6962891  39.3399429  59.0269814  55.3543739  38.6530228
  57.9734726  54.6227455  39.4566536  25.9188385  65.5718002  79.4583359
  25.4337063  66.2275009  79.9592667  26.0762348  64.8625107  80.0815277
  10.1148071  49.8485451  31.3399563  10.3573418  50.0360985  30.4331875
  10.8054781  50.2568398  31.8619728  43.6010475  32.9455605  27.8225994
  43.3401299  32.5431747  28.6509953  43.6151123  33.8848190  28.0065136
   4.6843219   5.7401123  87.4211578   5.5019498   5.4656115  87.8363266
   3.9989617   5.3208551  87.9414825  14.9678497  52.4904785  48.8571968
  14.5991201  51.9627304  48.1488533  14.4675207  53.3061638  48.8335800
  53.6972694  56.4000473  42.0973816  53.6095619  56.5535698  43.0381088
  54.6220856  56.5643120  41.9130936  82.5670700  38.4541435  80.1389999
  82.0224380  38.3856735  80.9231644  83.0451431  37.6255264  80.1063232
  62.7492142  44.1632957  39.9320526  62.8566360  44.7909164  40.6467476
  63.6309967  43.8254128  39.7754517  27.4292488   9.8064833  61.6809120
  27.3167267   8.8559265  61.6843605  26.6098900  10.1433458  61.3184128
  84.4256592  11.6926203  32.2472801  83.9750443  10.8693695  32.4355278
  84.0496292  12.3184662  32.8662720  33.8174057  42.3560944  17.3660088
  32.9528198  42.6311684  17.6710567  33.6385918  41.6526604  16.7419605
  47.3159294  12.1134539  23.5346470  47.7775078  12.8488312  23.9376316
  47.2721062  11.4512196  24.2243977  28.9852257   5.2697544  30.4155006
  29.8915386   5.5066261  30.6122761  29.0554047   4.5910416  29.7441921
   3.4174206  64.6869507  63.4316101   2.9370887  64.0824738  62.8658142
   3.6295409  64.1701355  64.2088776  50.5781097  65.2915726  10.2416372
  49.6224480  65.2585220  10.2846127  50.7730293  65.3787918   9.3085613
  11.6479788  35.6808739  81.5762100  11.6933994  36.5486488  81.1747894
  12.5447598  35.5000076  81.8578110  23.9230061  70.2692490   0.8919753
  23.7081318  71.1357269   1.2373364  23.2510319  70.1013565   0.2312979
  35.8263588  57.6976547  65.0186310  35.4089584  58.5442848  64.8598022
  35.0968285  57.0873375  65.1259918  55.1497612  34.8445740  18.0048885
  55.7221909  34.3237953  17.4415531  54.7177238  34.2016411  18.5672150
  53.1398544  40.2921753  77.7225342  53.1824722  39.4358864  77.2968826
  53.6311951  40.1798553  78.5362930  67.4012070  42.6575127  78.8888626
  68.2944489  42.9971161  78.8339615  67.5021286  41.7743988  79.2440491
  73.0127029  23.1253490  60.6410294  72.8729019  22.4888573  59.9399109
  73.6686783  23.7277889  60.2903137  66.5056992  28.6985588  28.2794342
  65.9502411  28.0560913  27.8379230  67.2762985  28.7757435  27.7168941
  59.2025146   1.7451246  65.0198669  58.6555138   2.5301509  64.9924011
  60.0251732   2.0399671  65.4104233  15.9449482  47.0956688  68.1651611
  16.4735413  47.1441345  67.3686218  16.2702618  46.3197708  68.6216507
  11.0512991  20.3281441  63.8845139  10.7694359  21.2163792  64.1032028
  10.2805099  19.7849464  64.0489883  79.0035629  14.5671730  86.2873154
  78.9665070  15.3962193  85.8103027  79.2549820  13.9217548  85.6266708
  50.5994644  32.2319603   5.7193408  50.0859642  31.7645874   6.3782125
  51.4220467  32.4420013   6.1614647  44.3973694  64.2768021   3.5356362
  44.3097267  64.1637802   2.5891814  43.5550804  64.6372910   3.8128197
  10.7098970  27.9709797  19.6182823  10.0390940  28.2335110  20.2486267
  11.5160398  27.9235706  20.1322060  61.1479454  20.6247673  50.1001816
  61.4046021  19.7364559  50.3476982  60.6976051  20.5192337  49.2621574
  80.1213837  57.1150017  77.1540604  80.0200272  56.7138481  76.2909088
  80.2493515  56.3755798  77.7482910  20.5084095  19.1863136  27.2982788
  21.3303413  19.5852451  27.0127735  19.8307915  19.7901611  26.9942551
  15.7114868  33.2329102  61.6357956  14.8649607  33.6262398  61.8477287
  16.0496769  33.7656898  60.9160690  80.5587311  18.2893906   7.0794029
  80.0643768  18.0818329   6.2864552  81.4690933  18.3393402   6.7878976
  59.9814072  69.0402451   9.0687695  60.2887077  69.9440460   9.1390877
  59.1843300  69.0985794   8.5419912  48.4482803  63.0673943  87.9376144
  48.8251572  63.9472427  87.9299164  47.6701622  63.1449623  88.4896545
  26.7224579  21.0244579   5.4337163  25.7841415  20.8365688   5.4115424
  27.0384121  20.5743084   6.2171512  81.9620972  63.2230110   2.5143979
  81.3461456  62.4907455   2.4894786  81.4431305  63.9817123   2.2474205
  34.3484955  62.5302467  88.1219940  33.5592842  62.9969635  88.3968658
  34.1848030  61.6190300  88.3651276  67.1716385  13.9216757   3.7677925
  67.0655289  13.5039396   2.9131184  67.6483612  14.7305431   3.5814996
  34.1786690  38.7220268   4.2788849  34.6737518  38.4244080   5.0421319
  34.7608337  39.3449211   3.8437765  85.0251465  52.7649269  78.3055420
  84.9742889  53.4838524  77.6756287  85.1705551  53.1947746  79.1483459
  54.9811707  14.4498501  77.5228653  55.2844696  15.1018620  78.1546326
  55.7807236  14.0187588  77.2210312  27.0758858  64.0239716  85.9880295
  26.3313484  63.5721741  86.3852386  26.8285732  64.9486084  85.9990005
  64.0175781  48.4669762  37.0217247  63.2330093  48.9643135  37.2526703
  64.5499725  49.0808220  36.5157776   3.9992225   4.5745015  81.0755005
   3.7131007   3.8561823  81.6397552   3.8468599   4.2555881  80.1859436
  40.5689125  45.4322472  82.8148727  40.4000206  45.1137161  81.9281693
  39.9735451  46.1743164  82.9202499  71.1234283  37.4726830  78.8408585
  71.8676224  36.9181595  78.6065292  70.4375687  37.2282257  78.2195129
  54.2967834  27.8448009  75.0214615  53.8519630  27.4742165  75.7837143
  53.7044106  27.6702137  74.2901306  12.8127375   3.3015335   7.8805451
  12.4365358   3.1977422   8.7545767  13.7589016   3.2676771   8.0214710
  75.4994583  53.1869202  31.8860359  76.0806656  53.9105186  31.6518707
  74.8189545  53.5909233  32.4244881   2.7462387  61.6723938  34.2622337
   3.7033496  61.6650581  34.2514381   2.4982612  60.7565651  34.1357422
  25.2358952  26.5930195  17.6131687  24.3517513  26.2528534  17.4760246
  25.1568909  27.5344334  17.4591312  82.2159882   0.5077347  79.0768661
  81.5449524   1.0709722  79.4624939  82.9220200   1.1072357  78.8353195
  41.2482986   6.4487629  48.6418915  41.0195045   6.4543734  47.7124557
  40.4747772   6.0899544  49.0768051  37.3729134  36.7829819  17.1070576
  37.3497849  37.7383499  17.0526047  37.8375206  36.5091820  16.3162327
  28.8851871  46.5184441  76.4005814  29.7142849  46.7660751  75.9913025
  28.2438927  46.5681610  75.6917038  48.8487816  17.9123478  24.8156052
  48.8816414  17.3091488  25.5581036  48.1220398  17.5938244  24.2802315
  65.6039734   8.1529531  49.9699554  64.7758713   8.4196510  50.3691521
  65.3878708   7.9989052  49.0502815  23.7490044  23.3395424  58.2516251
  23.3419838  24.0468483  57.7513428  24.6861477  23.5317440  58.2191849
  41.9981384  53.2610550  54.6985474  42.1427269  52.4688377  54.1811333
  42.8776054  53.5926704  54.8796616  30.6455803  32.3749657  85.1975708
  30.7126694  31.4599648  85.4705353  31.4111595  32.7977295  85.5866623
   3.7719018  63.6229439  19.9159946   3.2970695  63.1383400  20.5912170
   3.3406138  63.3779488  19.0973377  68.8709412   8.4859352  68.4611206
  68.4452438   9.3020639  68.1985397  68.3044815   7.7974672  68.1127472
  41.8558311   8.6547861   8.6129436  41.8825798   7.7001796   8.5478182
  42.7582817   8.9311218   8.4533978  22.6413670   1.5377218  45.9470940
  23.5680237   1.4145192  46.1529121  22.4180527   2.3801556  46.3429070
  52.8072929  64.1655884  63.2101250  52.5818176  64.2188568  62.2813873
  52.0457344  63.7536354  63.6182365  60.0447350  43.0627098  28.8295479
  60.4279900  42.1859818  28.8559952  60.7924194  43.6537285  28.9184246
  70.2495804  48.7111626  56.5409050  69.9362640  49.3181076  57.2114868
  69.4523773  48.3661766  56.1387939  70.1912918  22.6675167  37.9765701
  70.5193329  23.1018486  38.7639542  70.8274765  21.9736919  37.8030739
  29.4767513  38.4887962  88.7442474  29.7007027  39.2185135  89.3218155
  29.4136944  38.8826714  87.8741226  22.0543919  22.2389259  14.1775694
  22.8201694  22.7114582  13.8511782  21.5345459  22.9059429  14.6259909
  28.2279491  60.8055191   5.1048269  28.3196716  61.7551880   5.1819367
  28.5815315  60.4632912   5.9258580  57.7079506   6.3468132  27.0436306
  57.6610718   5.7633247  27.8009777  56.8122940   6.3748994  26.7071152
  59.7400475  59.3603935  36.9935074  60.6310730  59.1535797  36.7114944
  59.3754730  59.8775787  36.2752914  42.3935738  56.6235008   9.2052851
  42.0526657  55.9555206   8.6104574  41.9436455  56.4584846  10.0338783
   5.5787597  59.8915024  50.8851280   6.1777439  60.5944252  51.1368294
   5.0994854  60.2425117  50.1345825  77.9042358  30.2864685  25.4543571
  77.4678421  30.7331142  24.7288933  77.2083282  30.1300621  26.0926971
  25.6793327   1.4050001  60.3099785  25.5618286   1.7302519  61.2025223
  25.5256996   2.1691840  59.7544136  84.3362732  21.4354248  34.4590759
  84.2838516  20.6967678  33.8525505  85.1644516  21.3072395  34.9215927
  57.6340485  18.3290348   3.5271747  57.3117523  17.6138439   2.9786682
  57.1371651  18.2490597   4.3413877  71.6679153   2.0269842  69.1747360
  70.7769089   1.6979806  69.2934189  71.7090149   2.2798076  68.2524414
  17.2611675  68.2629547  77.8901749  16.3741322  67.9641418  77.6898956
  17.3429737  68.1524353  78.8374481  50.1390038  18.4745789   6.0262742
  49.7580948  18.3983097   5.1514473  51.0475311  18.7324066   5.8702774
  79.9003906  10.8070745  70.4618149  79.5234909  11.6418333  70.1836700
  79.3984833  10.5651617  71.2401505  62.8769341  38.7318268  24.5463619
  63.4885025  38.3058929  25.1470261  62.9681473  38.2455101  23.7269669
  56.5546379  36.2592888  83.2714081  55.7022095  35.8239365  83.2795181
  56.9464912  36.0343666  84.1152573   4.9892826  14.5071764  40.5834503
   5.4998202  14.6531420  41.3798676   5.4085855  15.0613852  39.9252205
  21.3859768  54.1503067  19.1730556  20.9710712  53.8843346  19.9936314
  21.5005264  53.3337440  18.6869125  46.2319145   3.9884284  68.8530197
  45.7907372   3.5554378  68.1221924  45.9445076   3.5042255  69.6270905
   1.5447829  70.2038727  44.5206871   1.7917916  70.2288513  45.4451294
   1.7475231  69.3106689  44.2426491  53.7802277  57.9240723  22.7127590
  53.1183815  57.2854385  22.9779816  53.8113213  57.8545685  21.7585907
  45.9041138  22.6994591  84.8062515  46.2222481  21.8051319  84.9295502
  45.1152115  22.7495956  85.3460159  79.3185730  14.7345181  21.4947548
  78.6119919  14.8579702  22.1285820  80.0231552  14.3264046  21.9979897
   2.0610316  18.4470654   8.4431248   1.8549651  19.3627758   8.2554007
   3.0173295  18.4179859   8.4728031  67.8822021  35.1603394  86.4563217
  67.7432709  35.0141945  85.5205994  68.7416534  34.7779694  86.6334381
  40.9295235  28.1463966  13.7060413  41.4002914  28.8508205  14.1514606
  40.1220741  28.0422516  14.2094383  84.9169312   5.8920326   6.8064976
  84.9721146   6.2252407   5.9108644  84.8257446   4.9446712   6.7044020
  83.1039581  46.5812798  85.8633041  82.1713562  46.4681053  86.0468140
  83.5460052  46.1552467  86.5976868  59.7800255  19.4872265  73.3745804
  59.7447548  18.6971931  72.8352966  59.6868668  19.1687031  74.2724152
  17.1608200  33.0789680  10.9864683  16.9901791  34.0078392  10.8305588
  16.3134766  32.7209053  11.2511072  84.5865936  17.8054638  12.0150108
  84.6952515  17.7325611  11.0667973  83.7417603  18.2414341  12.1264610
  57.2015762  55.3688927  14.8688555  56.4109192  55.0386505  14.4422007
  57.2148514  54.9314842  15.7201662  56.1099472   0.4220298   1.3144457
  56.0451393  -0.5282623   1.4091895  56.5163155   0.5501111   0.4573036
  59.1397552  19.4110584  54.2277107  58.5633125  19.9491196  54.7703323
  58.5441704  18.8770370  53.7020340   8.8024158  44.8930435  33.1258202
   8.4729462  45.0864182  34.0034790   8.4412069  44.0310974  32.9189186
  49.5704536  18.5312481  83.0839462  49.5601654  19.2050591  82.4041672
  50.0644608  17.8083420  82.6971741  10.3141613  41.8139343  88.5498199
  10.0015345  41.4402084  89.3737335  11.2586670  41.9087067  88.6729355
  76.1003571   2.0086086  19.7601376  76.0182114   1.4488266  20.5322304
  76.2998047   2.8757169  20.1130924  84.6759186  24.8693142   9.0808172
  84.3178864  24.4445744   9.8603306  85.3358841  25.4742832   9.4194689
   7.1959162  14.4361525   5.5331831   6.8799810  14.8982334   4.7567182
   7.9267931  14.9682455   5.8477125  10.9970703  69.2862778  55.4360542
  10.8171349  70.2261658  55.4142838  11.0465908  69.0305023  54.5149918
  45.9520454   1.4028685  47.3927193  46.4745102   1.0034742  46.6972008
  45.1198235   1.6198986  46.9725647  67.8563995  12.3025255  47.0028610
  68.7139130  12.5539474  47.3459167  67.3484802  12.0646343  47.7785263
  14.4055710  57.2613449  42.5462227  14.4505882  58.0069695  41.9476814
  14.1256714  57.6398125  43.3796768  59.9011307  66.3690796  70.3323441
  59.2736511  66.4152374  69.6109772  59.8311195  65.4701004  70.6535339
  48.7097855   2.7841122  13.9650717  49.1785622   2.0768209  14.4080410
  48.3681717   3.3268733  14.6756630  55.7854843  18.3415585  87.0296555
  56.5836983  17.8408241  86.8612823  56.0490341  19.2555161  86.9226227
  16.3822880  35.8170929  76.2370453  17.1210117  36.0117035  76.8137970
  15.8298492  36.5973854  76.2838364  51.9480057  66.1090927  15.2970352
  51.3033829  66.5348969  14.7318954  51.4395256  65.4797821  15.8085423
  81.0641251  55.1949768  39.3602066  81.9895782  55.2747078  39.1291161
  80.6460342  55.9446411  38.9365959  76.3786011  21.3538780  49.4158249
  76.1716919  22.1846905  49.8438110  76.8497314  21.6045990  48.6212158
  26.8647308  11.6392355   2.5509973  26.8617802  10.6820517   2.5556529
  26.1097012  11.8784647   2.0134742  73.7667694  58.5977058  40.6798630
  74.3757095  58.0262604  41.1477013  72.9756165  58.0693550  40.5742340
  82.5056381  47.6544342  70.6183624  82.0653763  48.4491386  70.9197693
  83.4174728  47.9180374  70.4946060  19.6916180  41.2599640  33.1381950
  19.7403278  40.7835045  32.3094330  18.8431129  41.7021408  33.1107445
  40.2336960  62.1647568  78.6127853  41.0108109  62.1901016  78.0544968
  40.5787354  62.1954155  79.5051117  79.3112488  60.1344490  38.5140648
  78.8080826  60.3105927  37.7190590  78.6520309  60.0676422  39.2048607
  84.2468262  12.3953133  48.2823372  84.4366074  12.7236977  49.1611862
  84.9188766  12.7920589  47.7281036   8.8914394  12.3579798  62.3309555
   9.5792131  13.0086136  62.4719391   8.5032988  12.2284117  63.1962852
   9.4878759  14.1294985  25.2227364   8.5315294  14.1602526  25.2489414
   9.7557039  15.0470371  25.1715164   0.0812951  69.2832565   9.5122242
   0.1267310  70.1623688   9.1362839   0.9788721  68.9545517   9.4618664
  72.6343765   1.9450517  11.0610647  72.1316910   1.6400887  10.3057232
  72.2593155   2.8008981  11.2686453  69.6222458  53.7302666  65.5189438
  69.2419128  54.3905830  64.9396667  69.9460983  54.2281303  66.2695999
  75.2130890  71.2706757  77.9773636  74.9996567  70.3687515  77.7381592
  75.9290390  71.5113831  77.3894043  47.2028961  41.9434471  87.4394989
  46.6533928  41.3171883  87.9107513  46.5943031  42.4164734  86.8719635
  25.2970066  50.3922920  33.6639671  24.8280849  51.2116470  33.5058441
  24.8702869  49.7572632  33.0887451  70.1450577  16.5643520  52.9153976
  70.2333908  16.4696121  51.9670029  70.8606720  16.0408611  53.2760773
  13.0347919  20.8436928  39.5478058  13.7469082  21.0100479  40.1654205
  13.2847328  21.3246670  38.7588654  11.2853193  70.7659988  18.1959476
  10.9346695  70.1699371  17.5341415  10.5463057  71.3287277  18.4270954
  55.2635307  18.1891994  49.4654503  55.9021149  18.2092381  48.7526779
  55.6729088  17.6455650  50.1385803  50.4413109  24.2657032  66.5237198
  49.6133423  23.9542255  66.1580963  50.9000435  23.4690971  66.7905807
   9.7988272   3.5263107  10.1022167   9.4950399   3.2206309   9.2475214
   9.2550707   4.2913303  10.2901154  57.4063187  54.6078644  54.8410225
  56.5272141  54.8132935  54.5228958  57.4571037  55.0340881  55.6965828
  57.2936516  19.4113941  32.1911125  57.9162521  20.1104317  32.3909874
  57.6137733  18.6569214  32.6856079  23.2522774  69.1969910  33.3451881
  23.9264412  69.7417374  32.9390030  23.0251999  69.6589050  34.1522179
  79.6016006  43.8495255  57.0582809  80.2322769  43.8227921  57.7778397
  79.6256866  44.7561646  56.7522430  59.3632698  47.4490967  59.4071808
  58.9487572  48.2734985  59.1526756  59.9034271  47.2100716  58.6539726
  27.6856804   8.5119085  12.7157516  27.0472164   9.2058926  12.8800154
  28.0059738   8.6857290  11.8306351  84.5526428   4.5444756  71.2308960
  84.4513016   4.1074886  72.0764771  85.4200058   4.9472623  71.2718735
  77.6553345  36.9926949  61.8655472  77.5093002  37.8013496  61.3746414
  78.3349304  36.5327606  61.3727531  69.5595551  28.6160355  71.8581848
  68.9323654  29.2446861  71.5008850  69.1339417  27.7654667  71.7504196
  45.6684494   4.8930678  48.8669395  44.9217644   4.2973456  48.8052521
  46.1907806   4.7039347  48.0874290  14.2935572   4.0436258  87.1538925
  13.8104076   4.6094975  86.5517426  14.5503292   4.6219687  87.8721008
  80.6266403   6.0692048  74.5897369  81.3593216   6.5234976  75.0056992
  80.9765930   5.7678227  73.7513199  71.3216705  10.8189373  88.3508072
  71.4305878  11.4724455  87.6599350  70.7422256  11.2376204  88.9873428
  76.1104507  42.9271812  79.3046112  76.8555679  43.5240440  79.2354660
  75.6219559  43.2410622  80.0655899   4.1479578  59.9118347  37.0768394
   4.2362337  59.1349373  37.6289864   4.4455986  59.6267509  36.2129135
  10.7648220   2.2614431  41.4411240  10.4618912   1.4109164  41.7590408
  11.2370424   2.0607624  40.6330605  45.3017998   7.9994731  52.2678261
  45.1847382   7.8244858  53.2015877  44.7227898   7.3738208  51.8324661
  24.0464745  57.9886894   6.2764964  23.8637295  57.7201271   7.1768909
  23.5738716  57.3548775   5.7369046  78.9865189  60.4163208   4.9212904
  79.0494766  60.9958534   5.6805072  78.1380844  59.9841805   5.0195384
   6.2366982  56.1461220  18.8547554   6.4121394  56.6051292  19.6761971
   5.3329968  56.3769798  18.6396732  19.7910519  13.9974222  76.9679337
  20.3627472  14.7627316  77.0287552  19.5902939  13.7755709  77.8771744
  81.6698380  44.3430214  53.7697334  81.5324631  44.7734299  54.6136017
  80.8153152  43.9734077  53.5474586  69.6338043  50.5570221  35.8796196
  68.8084335  51.0254669  36.0043182  69.3713913  49.6585007  35.6795464
  85.8348465   0.7467047  82.5802307  85.1159744   0.9062613  81.9686737
  86.1730118   1.6184428  82.7850494   6.0208907  23.3284416  33.7453346
   6.4046197  22.9845009  34.5519867   6.4599690  24.1682110  33.6103096
  53.3288460  22.9824047  72.1087189  53.3250313  22.4205399  72.8836594
  53.4013748  22.3747768  71.3726807  19.8567467  62.8990593   0.8636954
  19.4239731  62.1506767   0.4527680  20.5560036  62.5118675   1.3903373
  20.4746113  60.8876572  64.7339630  19.8163986  60.9734573  65.4236221
  20.0769749  60.2954216  64.0957108  66.6619797  26.1621437  42.1513672
  66.9968033  27.0491009  42.0193253  66.6408920  25.7809505  41.2735977
  34.0015373  25.6830997  17.6110191  34.0990448  26.2923717  16.8792324
  33.0919418  25.3896103  17.5587578   2.0702538  33.1341095  51.1576729
   1.9265108  33.6307907  50.3521423   2.6448405  33.6909218  51.6830711
  78.8324966  37.3364220  38.2777176  78.5507660  36.8159714  37.5253906
  78.0752792  37.8829117  38.4879608  84.9058380  20.6784496  54.2527466
  85.4925995  20.0818558  53.7879715  85.4626694  21.4159184  54.5023689
  69.1438370  21.3558426  16.9880333  68.2003403  21.4523563  17.1173668
  69.3217392  20.4389286  17.1974430  81.3093491   0.4934953  28.4145298
  80.7733536   1.2844658  28.4720592  82.1666794   0.8056611  28.1251087
  42.8006172  26.3152428  27.8523064  43.6053009  26.3271370  28.3705521
  42.2926216  27.0566502  28.1816788  51.7763481  48.3150597  25.0476131
  51.1283760  47.6802750  25.3532486  51.8645897  48.1354599  24.1115627
  75.2114487  14.0040379  49.1261787  75.5758057  14.4728966  49.8769417
  74.6129761  14.6308699  48.7197990  27.3534851  12.8855247  85.2415695
  27.0454178  13.6733036  85.6895981  28.3049908  12.9847689  85.2096176
  55.5780373  56.2534485  71.5614243  56.1848564  56.4926224  72.2619934
  56.0330353  55.5662079  71.0746918  76.0177307  10.7501211  51.7675705
  76.8464890  10.6597233  52.2379150  76.0415649  10.0593481  51.1053810
  54.3239937  28.4350052  81.6328354  53.4309540  28.1871166  81.8721390
  54.4337387  28.1039562  80.7414398  10.0150347  63.8706055  13.8506498
   9.7228737  64.2725601  14.6687603  10.8020372  64.3599396  13.6110468
  27.9139748  70.6045761  80.5551758  27.4056301  69.8338623  80.3025513
  28.8152142  70.2878036  80.6155930   1.4195894  61.9079819  15.2189932
   0.6456574  61.8773003  14.6565695   1.3429462  62.7395935  15.6867266
  20.7297630  42.4510574  68.0120468  21.2819519  41.6799011  68.1410294
  20.9148445  43.0074272  68.7686386  86.1706924   9.2990913  71.4627838
  85.4674149   9.8924627  71.7264786  86.8057861   9.8621349  71.0202103
  76.7321701  17.6521778  58.4370270  77.0648727  16.7617626  58.5497284
  76.7841949  18.0396843  59.3107338  63.4285622  62.6343155  43.3657684
  64.0364685  62.1824684  42.7805176  62.8395004  63.1088905  42.7792397
  13.7315845  70.4334869  71.1398392  12.8389101  70.7787247  71.1530914
  13.6810293  69.6602783  70.5778503  41.6926842  40.0875816  39.4336739
  42.4095230  39.9786873  38.8087578  41.7060318  41.0190926  39.6535301
  27.9658604  69.3656845  31.8425083  28.8670788  69.6817322  31.7780685
  27.8894844  68.7156601  31.1440315  48.8001099  34.7141609  66.4941483
  49.2812195  34.5831261  65.6770782  48.1316833  34.0290108  66.4910278
  14.2766619  23.5474091  62.4061546  15.1674318  23.4261723  62.0774231
  13.7942514  23.9093876  61.6628609  64.6895828  10.2474651  66.4467468
  64.8375549  11.0046844  67.0132751  64.0950089   9.6874685  66.9458542
  61.6515045  13.7092924  15.3513975  62.4586525  14.0193233  15.7620420
  61.3282661  13.0289698  15.9420824  16.1212540  11.8500080  30.7777004
  16.6537609  12.1515074  31.5137482  16.7016449  11.9158001  30.0193806
  35.5945320  11.0858822  23.3866043  35.9796066  10.6893854  22.6051064
  36.3454018  11.3091135  23.9366913  60.3452530  17.4836483  78.6845856
  60.6709404  18.1270905  79.3139877  61.0263901  16.8117905  78.6547241
  49.9691582  52.1895332  10.6790113  49.6436386  51.6937790   9.9276838
  49.1809273  52.4366875  11.1625795  25.0395279  64.0087738  29.2845383
  24.8189011  63.4040718  28.5761013  24.2124748  64.1498337  29.7453213
  82.7292023  23.7750931  75.8654861  83.1764145  22.9308758  75.8060608
  81.7992935  23.5513744  75.9034882  52.2354164  24.5550919  12.3129892
  51.5127945  24.4181080  12.9255915  52.0672226  23.9366207  11.6020489
  59.5993576   1.2981678  14.8008833  58.8971710   0.6505063  14.8617239
  59.9165840   1.2236682  13.9008570  53.0690422  17.4264641   2.6899605
  53.4314079  17.6516647   1.8331019  52.4144135  16.7533894   2.5037780
  64.9484406  28.9101524  54.3644295  64.5375900  28.8505211  55.2269096
  64.2315140  28.7649250  53.7470551  75.4916840  23.2071934  83.2257080
  75.3320465  23.4653530  84.1335144  74.8072510  23.6524563  82.7261887
   9.7505493  52.3841553  65.5062866   9.2847128  53.1540108  65.8327179
  10.0542898  52.6394958  64.6352158  79.8764572  10.2234564  29.6693192
  80.1190796  10.4003353  28.7604275  79.0422134   9.7581110  29.6083069
   8.9286366  21.1903782  70.3208237   8.1841488  21.5913143  69.8722458
   9.6946402  21.5006504  69.8379135  11.6332579  61.5204353  73.7206192
  12.4994860  61.2602081  74.0339279  11.1947775  61.8737717  74.4946518
  55.0269623   2.1314354  70.5421371  55.1847992   3.0643294  70.6871490
  54.0975037   2.0125568  70.7375946  12.0939865  39.9081993  77.4883881
  11.1714382  39.6768074  77.5960617  12.3417072  39.5207062  76.6489105
  12.6932650  66.1796570  34.1481094  12.0041246  66.5688248  34.6865005
  12.4876919  66.4602280  33.2563400  37.5437317  60.7677269  38.3314857
  37.1422424  61.5983467  38.0763130  37.3289146  60.6729622  39.2594452
  61.6891060  35.6989594  50.0489922  61.0385590  35.6770172  50.7508011
  62.1113815  36.5530930  50.1404572  69.6566925  50.9428215  77.4508286
  68.7591019  51.2438469  77.5920334  70.1176224  51.1778526  78.2561417
  44.1584015  28.0316010  82.7936172  44.0724869  27.3865948  83.4956284
  43.7842522  27.6005592  82.0252151  50.7815437   6.0597773   5.4544187
  50.6316948   6.7653542   6.0836549  51.4528503   5.5131817   5.8628492
  20.5004253   8.0870066  79.2515106  19.6698284   8.3154249  78.8341751
  20.6857662   7.1990204  78.9459610  83.2139282  28.1275463   8.5629730
  82.7727432  27.3427811   8.2378159  83.5323486  28.5673046   7.7746487
  64.7714844  36.1711540  54.5409012  64.5001450  35.7485962  53.7260094
  64.3249969  35.6759758  55.2276840  74.0913162  63.1158791  65.4491806
  73.8750916  63.9450912  65.0226974  74.4630051  63.3706627  66.2936707
  28.4344997   2.8806310  62.7400246  28.3918915   2.4467251  63.5921631
  28.8060608   2.2213850  62.1538773  55.6887283  64.9858704  84.1624908
  54.8658638  65.3539505  84.4844208  55.8590927  64.2403564  84.7381744
  48.4536438  69.1433716  16.2359486  48.0634880  69.8542633  15.7273836
  48.8702774  68.5818634  15.5822210  73.9151382   9.3422241  40.8096924
  74.1838760   8.4718189  40.5157433  73.2867661   9.1744299  41.5119934
   8.4530430  25.6113377  16.6486645   8.8267622  26.3505802  16.1689911
   7.6225028  25.4344425  16.2069130  34.4787064  10.7042770  44.0307198
  34.1115189  11.5521269  44.2808228  35.4038963  10.7643471  44.2687302
  70.5508270  38.4028893  31.7305546  70.1874847  38.1915512  32.5905228
  69.8683319  38.1430702  31.1117496  33.9349518  57.1303177  61.3956108
  33.6182709  56.5959511  62.1238976  33.3147240  56.9605751  60.6865730
  61.3487892  29.8695374  24.2296047  61.1748276  29.2261524  23.5425663
  62.2253075  30.1996613  24.0322151  34.6763344  38.0530319  14.8163528
  35.0731964  38.7531281  14.2980881  33.7410583  38.1112289  14.6211405
  80.2508850   1.8550327   3.4423499  79.9139862   1.6936860   4.3236570
  81.1760941   2.0622237   3.5738218  22.5606365  22.0965691  21.4622364
  23.0540829  22.9167728  21.4651051  23.1192379  21.4793377  21.9347000
  73.4643402  21.4774952  62.8584633  73.9004517  21.8665562  63.6165352
  73.4836960  22.1645603  62.1922798  61.0269585  69.5578308  39.5883560
  61.3485794  70.3521347  40.0148277  61.4552841  69.5553818  38.7323380
   8.7230358  37.3159180   2.4628589   9.3842516  37.4313736   3.1452785
   7.8913131  37.2956924   2.9362080  47.7607498  11.1892509  58.6489944
  47.5354500  12.0954666  58.4386520  48.7153130  11.1900558  58.7199707
  56.3671036   1.1707053  51.0380516  55.5644188   1.6796407  51.1516876
  56.7956924   1.5657296  50.2787743  16.4162998  36.0932808  69.8821716
  16.7766171  35.5019798  70.5430603  16.0248413  36.8063469  70.3866806
  25.0459557   1.8177575  43.0409813  25.3407688   0.9173541  43.1773300
  25.8132172   2.2705996  42.6910133   1.7932106   5.3219409  73.6450043
   1.8852257   6.2616835  73.4879990   2.3198268   5.1570835  74.4271317
  74.3492126   5.5165358  11.3498888  74.8507309   4.7044387  11.4220190
  74.2844315   5.8386879  12.2489185   2.8085847  17.3027840   1.3678257
   1.9330436  17.5733051   1.0912800   2.7614641  16.3477554   1.4118006
  24.3179131  53.4833565  27.3498516  24.8962955  53.0065956  26.7545357
  24.6845074  53.3231468  28.2194328  49.6543579   0.1175233   2.9608858
  50.5495224  -0.1606236   3.1546535  49.6552010   1.0602002   3.1269920
  14.3714495  31.8760624  25.5174294  15.1073961  31.2988243  25.3139343
  14.3308611  32.4822464  24.7777500  14.5759287  22.6412010  75.1895523
  15.3281546  22.4373398  74.6338272  14.9185047  23.2526054  75.8415146
  26.6112766   8.8684072  71.8948441  27.4073524   9.3999090  71.8939056
  25.9272079   9.4621973  72.2041855  50.9982758  46.5593300  18.8673496
  51.7701607  47.0936890  18.6805878  50.2679558  47.1777153  18.8458195
   0.2765576   0.2395164  49.6017036   0.4444456   1.1398146  49.8801041
   1.0283818   0.0140906  49.0538177  77.2766113  68.4764252   4.4177270
  76.4743958  68.7638092   4.8537283  77.7463760  69.2871017   4.2218938
  85.3383713  49.8682976  13.8846254  85.9768982  50.5811882  13.9019670
  84.6919174  50.1095886  14.5480289  20.6418533  43.4570770  82.9525757
  21.0020409  43.7778282  83.7793884  21.1767464  43.8774261  82.2792053
  79.4387207  31.3066254  30.4411564  78.8540497  30.5669250  30.2761250
  79.8093109  31.5149784  29.5835533  38.3125343  62.0509834  76.1697464
  38.7069054  61.7385635  76.9840546  38.8489761  62.8022461  75.9166336
  19.4395618  65.4755173  51.5280113  19.1893291  64.5525742  51.4857254
  19.8254566  65.6585388  50.6713753   5.8719807  35.1510887   7.2175221
   6.1037140  35.8603058   6.6179066   5.9289384  34.3582916   6.6841707
  38.2422562  42.5807114  88.0386505  37.9688110  43.3837547  87.5952759
  38.4328346  41.9679756  87.3283920  38.6632385  36.8178749  12.0913229
  39.5599518  37.0817261  11.8851233  38.3737411  37.4482880  12.7508707
  41.1233749  71.0952148  23.0633221  40.9738770  70.3694916  22.4573441
  40.2566605  71.4794083  23.1953583  15.7321730  34.2203865   5.7907209
  15.2847891  35.0609512   5.8883638  16.5874557  34.4453964   5.4245310
  62.6297073  67.6579285  68.7001038  62.7779427  66.8415604  69.1773834
  61.6879120  67.6679230  68.5293579  32.5271072  66.2444382   5.7428722
  33.0238152  67.0231323   5.4915729  31.6489773  66.5725937   5.9363542
  55.0318604  70.6682816  40.5541229  54.8815498  69.7582397  40.8099670
  54.3658295  70.8433075  39.8892899  59.8904305  66.1797180  52.5386467
  59.2453766  66.7385254  52.1052055  59.6635170  65.2922058  52.2610550
  78.1496429  16.8787231  33.6885452  78.1424408  15.9321499  33.8305969
  77.6605682  17.2358856  34.4298096  61.0520973  32.4516754  54.4466057
  60.7963600  32.9200516  55.2412453  61.8355827  31.9628124  54.6983948
  70.2921600  59.0725021  69.1173325  71.0699005  59.2530632  69.6452942
  69.5778656  59.0221596  69.7525330  79.9136810  42.6456642   1.3364605
  79.8862534  42.8718262   0.4067664  80.8401184  42.7041245   1.5699487
  19.1437893  26.1651955  18.1791267  19.5639019  25.5031509  18.7281570
  18.7937927  26.8042145  18.7999210  72.4816971  34.7391052  39.9204636
  72.8840866  33.8706551  39.9309311  73.2155533  35.3444023  40.0267639
  27.5214157   5.4812355  12.4386587  27.1464443   5.3512959  13.3097181
  27.8917217   6.3634663  12.4664755  54.8273544  36.6908913  70.7787704
  55.0870972  37.4808846  70.3047714  55.1139374  35.9700089  70.2180252
  56.3588715  62.7243729  85.5193481  56.7625923  62.0012093  85.0394745
  55.6283340  62.3219109  85.9889984  65.3322296  17.3542957  28.2750301
  65.9657745  16.8918419  27.7264004  64.5950394  16.7486286  28.3521500
  12.5335188  22.8704948  76.9369583  12.7667370  23.7342358  77.2772446
  13.2522812  22.6434155  76.3470001  40.4148102  23.7360229  67.1523209
  39.9308319  23.3062439  67.8575058  40.3145981  23.1506195  66.4016571
  57.1069336  40.3497124  55.0228310  57.0904694  41.2088814  54.6011734
  57.6784172  39.8206787  54.4662666  49.4062462   8.3589325  54.3625221
  49.2832184   9.1128330  54.9393463  50.1087914   7.8551068  54.7734032
  41.1675568  42.8562813  12.4575205  41.3247299  42.4452667  13.3075771
  41.1332130  43.7938118  12.6474800  78.3911362  23.9152660  27.7665386
  78.4257965  22.9965801  28.0330868  77.8256760  23.9194069  26.9942265
  20.9808235   8.2268085  31.7371521  21.2242451   9.1131430  31.4699631
  20.7537308   8.3097134  32.6633186   8.3898954  52.3627625  29.2393951
   8.2674093  52.8942566  30.0259972   9.3016768  52.0749092  29.2844143
  44.5046463   5.3015471  10.6974211  44.0425873   5.6151357  11.4748497
  43.8182030   4.9261680  10.1459551  50.8891144  59.5562134  56.9636116
  51.3102455  60.3346634  56.5990601  51.0437889  59.6194038  57.9061165
   6.7858977  17.7543297  52.8355331   7.7202458  17.9374161  52.9340477
   6.6720762  16.8811131  53.2107239  82.0127945   8.9029894  20.8546505
  81.1984253   8.4038649  20.7920761  81.7978745   9.6415472  21.4243641
  12.7015591  49.0092125  50.0417061  12.5792933  48.2323189  49.4960709
  12.1866617  49.6898003  49.6082115  80.9557495  52.8934288   2.6840477
  80.1657639  52.3907280   2.4854412  81.1370316  52.7011337   3.6040423
  61.0931015   0.4806238  44.8736420  61.2390137  -0.3978435  45.2246933
  60.1783676   0.6722928  45.0804138  66.8313217  65.0074463  26.8925438
  66.3762665  65.7417068  26.4802132  66.2492905  64.2593918  26.7587910
  23.7244511  18.7988377  74.7198181  23.8065567  19.2874012  73.9007950
  22.9601669  18.2377357  74.5884094  21.1221313  59.2481422  75.0311584
  21.9132366  58.7215004  74.9169846  20.7873287  58.9940872  75.8911514
  83.2976074   7.3352523  73.1145248  84.1642151   6.9532580  73.2534332
  82.8596039   7.2496743  73.9613266  68.0865250  51.6503448  63.3107185
  67.3143692  52.2096596  63.3953896  68.6640625  51.9302559  64.0208817
  66.8391724  46.5524216  44.2872887  66.1713333  45.8987312  44.0801201
  67.4328003  46.5345650  43.5366135  13.6214523  40.6786118  79.6637192
  13.0218849  40.5989227  78.9218292  14.2868443  41.3000450  79.3682404
   6.6212535  47.4850121  75.0998154   7.1222568  47.4764290  75.9153824
   6.1728630  46.6394577  75.0852509  82.4693451  64.8254013  44.2720184
  81.9534683  65.5096741  43.8455429  83.3714600  65.0056610  44.0075912
  72.5459824   4.1888680  79.1771927  72.7247238   4.5807052  78.3223572
  73.2410736   3.5412002  79.2938538  69.6041031  69.1329498  43.7863007
  70.0645218  68.4212570  43.3416252  69.3423767  69.7258759  43.0819092
  25.6842937  18.2142315  18.9592876  26.1354332  18.2854176  19.8005009
  24.7627621  18.3673592  19.1680069   6.0010362  24.3954182  38.9150085
   5.8658128  25.0581398  38.2377014   5.1649027  24.3531132  39.3790359
   5.2457533  31.1584167  10.8040886   4.6475959  31.1838531  11.5509434
   5.7516537  30.3555889  10.9296408  74.7097626  50.1238022  44.3393097
  74.7332153  51.0455589  44.5963058  74.4041367  49.6647301  45.1216660
  79.5774918  16.1364288  24.4179859  78.6930008  16.3396187  24.1136494
  79.6377335  16.5559006  25.2762680   6.5925303  64.3159790  55.8998260
   6.7605586  63.6649590  55.2185287   7.3203878  64.9332428  55.8260117
   4.9813323  38.8695068  42.8130341   5.3093657  38.9009514  43.7117233
   5.6187339  38.3309326  42.3441124  50.3100395  70.5663300  31.2984715
  50.0954590  71.4798279  31.4874668  50.8252525  70.6031189  30.4925957
  11.2595205  40.1621552  69.2716751  11.7716131  40.8520660  69.6935883
  11.8227167  39.8430328  68.5665512  77.4189301  40.0778885  10.1324711
  77.7439575  39.1837425  10.0271769  76.9345474  40.2532196   9.3257113
  25.2904587  37.0284042  12.9938097  25.7058048  36.6060677  13.7457085
  26.0164680  37.4183044  12.5068588  61.6716309  49.8729935  43.5680618
  60.7167053  49.8543320  43.6313515  61.8911247  50.8039856  43.5319290
  47.6595192  57.6924858  26.5244293  47.9148216  58.0040855  27.3927364
  47.0599937  56.9665680  26.6971760  23.4044170   1.5649408  10.7730141
  23.3686333   2.5171931  10.6826420  23.7725735   1.4207480  11.6447372
  57.9471855  66.3592682  30.3360653  58.7594986  66.3930588  30.8412762
  57.2755165  66.6737671  30.9411964  25.0248318  58.1109009  35.9709740
  24.8687401  58.2962379  36.8969955  25.6653347  58.7684937  35.6997528
  27.8082047   1.0093216  68.1000061  27.9625473   0.3828234  68.8070526
  26.8952904   0.8676539  67.8495102  73.2818832   8.8689480  49.9136429
  72.6932220   9.5384912  50.2621040  72.7184830   8.3093882  49.3791237
   1.1833218  55.7409935  64.1109009   1.6918663  56.4174271  63.6636314
   0.2850968  55.8783875  63.8099937  56.4844551  27.4018993  88.2730865
  56.1208191  27.3552341  87.3888855  56.4023285  28.3237190  88.5174942
  34.2735519  44.4212952  35.6553383  33.6236382  44.5572624  34.9658737
  34.0950127  43.5395470  35.9822617  80.3738480  25.3442917  14.7721338
  79.9560318  25.0752735  13.9540329  79.6538620  25.6674633  15.3138094
  83.2988586  10.3786802  69.3445282  83.0668106  10.3927736  70.2730713
  82.4750366  10.1912985  68.8945923  31.7479057   4.3232493  54.0686684
  31.8515377   3.4178395  53.7758827  32.5501747   4.7605357  53.7834053
  63.4683838  47.5220337  83.3285141  62.6795158  46.9799652  83.3194656
  64.0761642  47.0509567  83.8985291  45.1072693  58.8186569  22.3259468
  45.6127701  58.7875404  23.1381874  44.2130127  59.0115128  22.6076221
  41.0218163  12.0530033  58.2040749  40.5599709  12.8557949  57.9622993
  40.3258858  11.4306555  58.4152565  40.4421959  55.1049500  47.8441467
  40.7441635  55.7165337  48.5157204  40.8716850  54.2779274  48.0628052
  59.5993843  55.1824570  65.1024704  58.6473198  55.0853195  65.0832062
  59.8762665  54.6772652  65.8668976  63.8742371  23.7463684  61.4745674
  64.6744156  23.8437901  60.9583778  63.4221420  23.0019932  61.0773888
  32.1469154  46.2461395  27.0452938  31.3001194  45.9665604  27.3931446
  32.7799416  45.6539459  27.4512730  65.2738342  16.7697964  33.1631088
  65.0246506  16.2189102  32.4210434  65.7045670  17.5265636  32.7656212
  53.4213638  53.9301643  69.6863098  53.7627869  53.0361214  69.7050476
  52.4747314  53.8271294  69.7837830  18.6817799  16.8281403  24.8639717
  18.1982594  16.7026768  25.6804867  19.5998039  16.7123337  25.1090298
   2.1094279  62.3282280  62.5679626   1.7052222  61.7370758  63.2030907
   2.8369887  61.8253212  62.2019424  55.1888618  23.3834782  67.8962708
  55.3784752  22.4532776  68.0187683  56.0439796  23.8107567  67.9456863
  22.4336967  36.0033112  15.5243759  21.5485077  36.0215416  15.1605883
  22.3143806  36.1952057  16.4545231  57.0987968  22.6978111  89.0462646
  57.0242004  23.6133633  89.3153915  56.3185883  22.5401154  88.5146255
  51.2646027  11.3073511  48.5673523  51.4199295  11.9608707  49.2492752
  51.6724510  11.6768284  47.7841682   5.5764580  42.4415016  65.8457947
   5.3660283  43.3596916  66.0157471   5.7288313  42.0662117  66.7130737
  81.1825409  27.4059334  27.0243549  81.2166748  27.2614670  27.9699745
  80.8249969  28.2887878  26.9296932  16.9962578  21.0975704  28.6463490
  16.8864250  20.1671543  28.4501495  16.3119602  21.5321045  28.1372814
  55.9771843  33.9198837  87.7711029  55.1795921  34.3743286  87.4998932
  56.5786324  34.6208878  88.0222702  29.2504005  55.2503662  27.0831718
  28.6685486  55.4130516  27.8256092  28.7987347  54.5829582  26.5666466
  29.1041241  61.7178802  58.6254807  29.7367649  62.1537628  59.1964455
  28.6641331  62.4328575  58.1656456  74.7814484  44.9257393   1.9487869
  74.3826752  45.5095367   1.3035032  74.7638626  45.4241104   2.7658236
  85.7409515  11.9610529  69.5023193  85.0854492  11.3410759  69.1826706
  85.4023666  12.8196583  69.2485657  39.3198891   9.4731874  66.7774887
  38.5743752   9.1664801  66.2613754  40.0780602   9.0428066  66.3822937
  85.9542542   2.8149745  66.9556046  85.9049759   2.1373494  66.2813416
  85.0410690   3.0157344  67.1605988  25.4444351  46.9705315  35.0547447
  25.9417191  47.5155411  35.6645851  25.8681889  46.1133957  35.0992813
  15.9562187  32.9744759  15.9281559  15.6368141  32.1103363  16.1879158
  16.6552410  32.7925987  15.3000479  23.6821957  38.3039780  79.8217087
  23.3704834  39.0175400  79.2650223  24.5495930  38.5872154  80.1109009
  12.1488352  63.6062851  62.7096405  11.9085436  64.4532013  63.0854416
  11.7544727  62.9625587  63.2981339  55.0517464  16.6328392  31.8404007
  54.0948448  16.6222630  31.8188934  55.3034286  15.7133427  31.7543049
  49.4470100   3.8160431  43.1538200  49.4433327   3.6575809  44.0978050
  50.3236427   4.1542377  42.9711418  70.9010315  40.3659058  82.1226807
  70.4620132  39.5930176  82.4778442  71.8298264  40.1344604  82.1216125
  46.6694107  60.0068207  78.3362808  46.8424873  59.2104378  78.8383255
  47.5355949  60.3801270  78.1731796  21.5856686  47.2726517   7.7702703
  20.7066975  46.9482307   7.9662108  21.8729000  46.7492447   7.0220900
  31.6165581  49.1403122  31.7869949  31.3416634  50.0553932  31.8443165
  32.3897171  49.0868454  32.3487778  71.9925079   3.7458465  53.6657448
  72.7042847   3.7943032  54.3039093  71.4862061   4.5451784  53.8105125
  81.2073212  19.7466812  84.0326843  82.0780411  19.3555317  84.1040344
  80.7464447  19.4500084  84.8174210   5.0461459  43.7029076   9.4777079
   4.8255615  44.3256378   8.7850456   5.0636110  42.8525391   9.0386171
  13.1617870  56.5872688  27.8936005  12.4481354  55.9590645  28.0044689
  12.7491751  57.4423866  28.0150700  64.9957809  12.1765566  18.5887985
  64.9080124  11.3529081  18.1090775  64.1573944  12.6198406  18.4589920
  82.2452698  52.3188095   8.5224419  81.4425507  52.0298309   8.9564428
  82.8536835  51.5881615   8.6330004  62.2574005  67.0591354   9.4891157
  61.6259117  67.7575912   9.6612015  62.7716217  66.9974823  10.2941046
  59.3599129  33.2873497  68.3575668  59.2206001  33.6900444  67.5004425
  59.0726204  33.9517479  68.9838791  30.9910793  41.2443504  18.4114437
  30.9075584  42.1794624  18.5980549  31.9265366  41.0641479  18.5045853
  34.5977364  13.5300579  37.7179527  34.7351913  13.3706789  38.6517296
  33.7930489  13.0552931  37.5098534  36.3739166  14.4569387  62.0257416
  35.7320786  14.8632984  62.6081047  37.1929817  14.9144926  62.2155113
   2.2929332  32.6436539  23.4068089   2.7830236  32.1148796  24.0364437
   1.3753650  32.5089645  23.6437893  16.2081051  53.1947479  87.8043823
  15.9776754  54.1183281  87.9050369  16.9882870  53.2016068  87.2498550
  33.6900139  23.3438969   7.7477007  34.0088501  24.2235985   7.5459533
  33.7964211  23.2620716   8.6954422  13.7961922  28.3128624  74.6742249
  14.4235563  28.3945866  73.9559174  12.9766178  28.6541882  74.3164139
  24.6244678  62.3862152  42.1539383  24.0719757  62.6264954  42.8977470
  24.2611408  61.5567360  41.8437958  25.2378922  53.5640602  24.3112946
  24.2896671  53.4387779  24.3487625  25.3488388  54.4908600  24.0992470
  21.8850899  64.3290787  46.9354134  21.2486229  64.2952271  46.2212753
  22.6593876  64.7363586  46.5470543  26.0271339  10.3630285  48.2312279
  25.5230255  10.4407139  47.4212456  25.4303913   9.9340811  48.8445282
  46.8938713  61.5016098  12.9831276  46.5632858  61.3132172  12.1048031
  47.8443108  61.5432434  12.8774891  11.5390921  58.5780525  18.2411461
  11.9623404  57.8533173  18.7014236  10.6697388  58.6381989  18.6371746
  51.5724411  61.9212875  30.5827732  51.4133453  62.4742966  29.8178558
  51.8746643  61.0894241  30.2182236  57.6866608   9.5563965  45.0876961
  58.3731766  10.1219921  45.4412918  56.9586716  10.1499281  44.9033508
  57.1252403  31.8058243  64.4053497  56.9588318  30.8960552  64.1586533
  56.7162552  32.3211632  63.7100906  63.9922714  54.3777313  61.6152267
  64.4468307  53.5359840  61.5825233  63.2959785  54.2994194  60.9630928
  11.1616344  53.8439178  43.2685165  10.9552927  53.3266258  42.4900169
  12.1162777  53.8123894  43.3309250  24.3379154  67.9276428  72.9099731
  24.5467396  67.8379211  73.8397980  23.8580341  67.1280746  72.6940308
   7.0063338  25.7144299  84.5344620   7.4818759  25.1592369  85.1524048
   6.9284196  25.1805859  83.7437820  32.2875061   1.8217820  60.0627556
  33.1196327   2.2784355  59.9392242  32.1339264   1.3744720  59.2305527
  57.9453506  43.1802101  80.5820923  57.1523705  43.2269936  80.0480270
  58.6577950  43.3631020  79.9695511  37.9127731  45.8869057  38.5052338
  37.1225929  46.3863258  38.2992516  37.9845047  45.9345322  39.4585533
  64.0987854   0.0743628  53.7188034  64.3594284  -0.6773841  53.1866608
  64.7069931   0.7690005  53.4662247  35.5403786   4.4868169   4.4514346
  35.6847115   5.2712994   3.9222956  35.8939552   4.7102604   5.3124170
   2.3594925  22.1085091  63.4018898   2.1123722  21.3044186  63.8586197
   2.4374394  21.8483219  62.4840355  42.7454567  42.2715569  24.3083496
  42.8994370  41.3930702  23.9608116  42.1792946  42.1329231  25.0676079
  28.9122143  29.8045654  83.9544220  29.0216904  29.2462616  83.1846466
  28.6677895  30.6586571  83.5980225  22.7933884  44.8981552   1.5453817
  22.5535202  44.5199890   0.6994002  22.1559296  45.5986290   1.6840032
  82.3693771   2.5777824  86.0855865  83.1986694   2.8828218  85.7175293
  82.4854736   2.6533566  87.0327072  18.3083134  27.0247250  15.2618637
  18.7206287  26.4652290  15.9200373  18.2103119  27.8724079  15.6955223
  41.2309494   7.8861499   5.2551827  40.3268738   7.9477758   4.9468327
  41.5183716   8.7954407   5.3377047  15.5960112  13.4565744  52.6726112
  15.5721855  13.4087820  53.6283188  14.7388258  13.1333055  52.3951912
  79.6430893  34.7849274  39.5594444  80.3029099  34.7184601  38.8691902
  79.1093903  35.5389633  39.3087997  22.6463337  28.2413769  32.7584114
  21.8765945  28.6977406  32.4186096  23.0570507  28.8720970  33.3497963
  69.2103271  41.0149078  43.7808266  68.8338852  41.0035553  44.6608238
  69.4723053  40.1082954  43.6206741  74.5912628  14.4972744  10.0530005
  74.8535690  13.7074003   9.5802155  75.0979843  15.1997080   9.6455069
  42.1670570  24.0232277   4.0902152  42.0316315  23.6408634   3.2232151
  41.4936066  23.6196938   4.6378055   5.7562442   4.8992467  77.8706131
   6.0142288   5.7335663  77.4787140   6.5701060   4.3983440  77.9249954
  41.2607040  67.1780319  70.8740387  41.6204147  67.6754990  71.6084518
  41.0448608  66.3231583  71.2466507  20.6662235  59.6713371   3.8929160
  21.4710712  59.9544907   3.4590070  20.7200775  58.7156639   3.8975375
   0.1558904   8.5157862  58.0315399   0.3314871   9.2880325  58.5691566
   0.8387318   7.8919687  58.2781372  59.4523277  41.5848007  14.2686253
  59.8544044  40.7597542  14.5404081  60.0882607  41.9750786  13.6690350
  57.5127449  47.1484184   2.7804632  57.4040298  47.6147728   1.9516535
  57.0198479  46.3360939   2.6646490  85.3140335  17.2627888  29.3151913
  85.2344818  16.5767994  28.6523781  85.1146469  16.8220463  30.1411610
  61.3896446  56.7693710  55.8797836  61.9506836  57.5443802  55.8510475
  61.6722488  56.2412910  55.1331253  43.3796883  47.7635841   8.7572737
  43.5126572  46.8686981   9.0699005  42.4556541  47.9431343   8.9309168
  47.4253273  60.2153816  85.9462433  47.9207954  60.8086548  85.3816376
  48.0929070  59.7576752  86.4571915  15.9984512  70.5495224  62.9504776
  16.6443119  69.9397354  62.5937424  15.7643719  71.1102524  62.2108688
  74.5863113  18.1086483  62.9183998  73.8284912  18.4430370  62.4386902
  74.5761642  18.5882874  63.7466965  56.6688690  28.8483734  15.5493069
  56.4367027  28.8814125  14.6212769  55.8300285  28.8960114  16.0078964
  27.8918457  36.4285736  19.3041267  28.2526855  35.9231186  20.0325069
  27.2728539  37.0321884  19.7148972  66.9844513  52.1281433  58.7390366
  66.1724930  51.9754105  59.2223969  66.9622726  53.0601425  58.5219688
  84.9774399   3.4102232  20.7552853  85.4421768   3.7022450  19.9710789
  85.3865814   3.8964162  21.4711418  15.2922125  18.4796028  58.2429390
  14.7339945  18.5741005  57.4711266  14.7869835  18.8742828  58.9537125
  83.6256866  25.3386879  36.1316643  83.1443024  25.3746185  35.3050957
  84.4861603  24.9940033  35.8929176  65.2015076  15.6586637   1.1712675
  65.4356842  14.8132591   0.7882784  65.8923416  16.2534523   0.8793707
  53.6113892  43.5582733  85.2061768  53.4267769  42.6190529  85.2108307
  52.9219246  43.9351807  84.6595383  81.3759003   4.6099024  31.6634178
  81.1456757   5.5160122  31.4580040  81.7653351   4.6538062  32.5367126
  47.1772156   2.7510333  21.7995720  46.6727905   2.8376198  20.9906883
  46.5162811   2.6454232  22.4838562  71.5190659  67.0997772  76.0054626
  71.2184219  67.7547989  75.3755417  70.7482147  66.5578461  76.1737900
  79.9466553  37.5080795  31.8713531  79.8780518  37.8416519  30.9767818
  80.5762711  38.0903893  32.2964821  78.5052261  13.6287184  76.8131180
  77.8442459  12.9823675  76.5649948  78.2307129  13.9319248  77.6785355
  12.0774269  64.6739273  10.7831612  11.8342047  65.5329285  11.1284046
  12.7461653  64.3531876  11.3882618  56.4365120  42.5216713  69.3368530
  56.9444656  43.3211136  69.4750671  57.0860634  41.8188591  69.3560638
   2.4633527  10.8053131  28.4041462   2.5552289  10.0917788  27.7727528
   1.7354056  11.3290520  28.0694485  58.2003975  32.0699768  12.4723721
  57.5189171  31.4295731  12.6765833  58.6953430  32.1609268  13.2866135
  71.9868393  20.5913963  51.6468010  72.4866714  20.6954288  52.4564781
  72.6405334  20.3477001  50.9914207   8.6063433  25.6459808  39.5426292
   9.2301054  25.0087795  39.1945992   7.7474785  25.2853012  39.3224182
  42.1556854  45.2008018  23.9309998  41.3636475  44.6702843  24.0173683
  42.6974564  44.9456749  24.6777439  57.8270798  58.1715126  26.5212173
  57.1684189  58.7495461  26.9062805  57.3775826  57.7510338  25.7881546
  79.9464569  27.8618202  68.2976837  79.9572144  28.0525913  67.3597488
  80.6773224  28.3673820  68.6533203  75.5899811  69.5493546  39.6868668
  75.2871323  70.2732773  39.1387329  76.5448837  69.6060715  39.6524315
  23.6150494  49.0764580  35.8969078  24.1465034  48.3972588  35.4816055
  22.7377224  48.6969452  35.9469070  59.6995430  20.9195156  33.0068626
  60.0532913  21.0000877  32.1210861  60.0927277  21.6470413  33.4888878
  29.5204773  58.1954231  10.2289724  30.0096188  57.4477615   9.8854942
  29.1562538  57.8832397  11.0572929  20.4711971  49.2260017  48.6676865
  20.0627041  49.9681587  48.2220802  20.2488289  48.4691544  48.1254997
  54.8495178  40.2896156  72.1148758  54.2879601  41.0063477  71.8196182
  55.6431847  40.7216454  72.4305954  83.9346161  47.3415413  49.8908348
  83.2187347  46.8470802  49.4917755  84.7248993  46.9960632  49.4756966
  20.4100628  42.9344711  89.1455994  19.8538284  43.6061096  89.5402374
  20.3052025  43.0604095  88.2025299  81.6143188   8.8917294  15.1761084
  81.3431396   8.9656000  16.0911140  81.9672623   8.0050869  15.1017342
  82.3199921  38.8347778   5.0284729  82.9453659  38.5617371   5.6997304
  82.7342377  39.5879745   4.6073699  68.2578735  58.5020103  71.2654419
  67.6060410  59.2029533  71.2610321  68.0338058  57.9713783  72.0299377
  33.5531807  13.2328300  17.5205307  33.7305031  12.8241291  18.3677349
  34.3432961  13.0691566  17.0055923  41.8732376  62.6496925  30.5601711
  41.5411568  62.3166046  29.7264996  42.7412796  62.9949188  30.3514690
  74.0900116  43.3056221  45.7916451  74.2291565  43.2416687  46.7365189
  73.1946106  42.9940147  45.6597824  58.7486954  29.1698971  80.2593842
  58.7083359  28.4485321  79.6315002  58.6692390  28.7476521  81.1147385
  73.4248886  16.0145397  21.2335453  73.9152985  16.0284977  22.0554581
  73.4227982  16.9257374  20.9403858  73.7571945  31.6704617  77.0536499
  74.5900345  31.5271816  77.5031815  73.7516861  32.6061897  76.8521118
  46.6861839  45.1154175  28.6359272  46.1341896  44.9313049  27.8759041
  46.0818062  45.1086693  29.3781624  75.2722397  42.3136024  82.7656403
  75.9533386  42.8121414  83.2170792  74.7161331  42.9795799  82.3613510
  15.3688316   7.8707142  68.7964935  15.4711437   6.9948120  69.1687241
  16.2058468   8.0477934  68.3672104   4.9817233  28.0799809  29.4493160
   5.1024828  28.0813255  30.3988686   4.1553192  28.5431423  29.3123169
  48.4803200  61.5604706  26.6648560  49.0523262  61.9954338  27.2971935
  48.7216682  61.9426384  25.8210964  62.3724022   0.7915965  85.0604172
  62.0494499   0.6919439  84.1648788  63.1245995   0.2017696  85.1107941
  67.2662964  40.9107971  27.1334648  67.9027023  40.5139732  26.5386944
  67.6745987  40.8490524  27.9970074  23.2625217   6.1417441  31.8450451
  23.8754730   6.5367212  31.2249508  22.6272392   6.8340325  32.0277596
   3.3349390  35.4899483  52.8301201   2.5438602  35.8829956  53.1988182
   3.9532950  35.4661751  53.5603943  59.1256828  52.0815239  42.7142220
  59.5096703  52.8849640  42.3631248  59.6240692  51.9068413  43.5125504
  42.1896591  53.7701187   3.5652034  42.5930176  53.2371712   4.2504063
  42.1476631  53.1905594   2.8045599  83.0996933   1.2453189   8.1766853
  83.9599152   1.4870652   7.8334613  82.4779892   1.6681248   7.5842714
  24.2478218  58.6391563  66.3040237  25.0315037  59.1580276  66.4852676
  23.5478706  59.0892906  66.7769699   7.1823549   3.6597133  82.5096207
   6.6166377   3.1634066  81.9181137   6.5789523   4.0753708  83.1255417
  69.6949844  68.5162659   1.4304782  69.0685349  69.1159286   1.0252689
  70.2033157  68.1695328   0.6972610  54.9509659  29.3808289  65.7481995
  55.2911758  29.2149429  64.8690109  55.4117813  30.1678772  66.0387802
   7.5885181  69.5388718  25.5213833   6.9612088  70.2553406  25.4244938
   8.2638149  69.7218094  24.8681297  17.0142517  22.5728188   1.4419808
  17.8147430  22.5954418   0.9176400  16.3782692  22.1193199   0.8887198
   2.9376059  45.6914864  39.5774307   3.6689348  45.3508797  40.0925789
   2.3568690  44.9397316  39.4597855  81.9955978  60.3063736  77.8018723
  82.1835861  59.4375534  78.1568909  82.0843353  60.2023277  76.8544846
   6.7708497  53.0195580  66.0118179   6.1297054  52.4747925  65.5553131
   6.9996109  52.5163307  66.7932663  45.8653069  33.2753067  26.5101471
  45.0559044  32.9378014  26.8937950  45.5899773  33.6796265  25.6873760
  85.4703293  53.9467239  46.5201988  84.8970337  53.8440018  47.2798157
  84.9014816  54.3016548  45.8370667  19.6385479   2.6100991  11.7305603
  19.6477795   3.2758908  11.0429068  20.1103134   3.0124145  12.4598141
  70.4507370  28.4979782  51.8592186  69.8812103  27.7286434  51.8602066
  69.9119263  29.1953220  52.2328911  24.0507145  63.4767570  76.0172195
  23.5920620  62.6375923  75.9763794  24.9496822  63.2711067  75.7607117
  63.3393593  50.4536133  39.8756790  62.8724480  50.1936798  39.0815353
  62.9040489  51.2583809  40.1568947  70.0749130  47.4828491  82.4839172
  70.5419693  48.0399132  83.1066284  70.5776825  46.6684952  82.4671631
  80.6323395  31.8120251  42.8281136  81.4369736  31.9907990  42.3414536
  80.8662872  31.1010895  43.4248352  39.2513733  55.6911812  50.9552002
  39.1988792  54.7364082  50.9118385  38.5233040  55.9455872  51.5221443
  15.0283127  61.3108101  61.8410645  14.2599316  61.8410873  61.6298103
  15.7685795  61.8190231  61.5094681  36.8582497  19.0317745  66.2061234
  36.6915474  18.1401215  65.9005203  36.4024582  19.0862198  67.0460815
  79.3728333  19.0430622  86.0888672  79.1765442  18.3277130  85.4839096
  78.5195999  19.3055115  86.4343414  84.4995575  62.3566475  17.7902794
  83.9489365  62.1783714  18.5526905  85.0398102  63.1015244  18.0539303
  74.5364532   7.2574716  20.1144524  74.6328812   7.0861177  19.1776657
  75.1524734   6.6559086  20.5326290  45.4185257  69.0601959  24.3444519
  44.9099541  68.2594757  24.2162399  46.3193741  68.8065033  24.1435776
   1.6616203  24.1470909  87.6974411   1.8151190  24.7641869  86.9819946
   1.9369330  23.3001842  87.3464661  72.7397919  51.4193077  32.7862663
  73.6448822  51.2423668  33.0426483  72.7158585  52.3629990  32.6278191
  79.1363678  39.2951050  25.3844948  78.5130768  39.4625664  24.6776047
  79.1561813  38.3415413  25.4654522  81.4394379  62.5950165  53.2007751
  81.6415939  62.8404732  52.2979393  82.2945557  62.4663887  53.6112099
  13.0569296  17.4729767  13.3740120  12.2698832  17.9743595  13.5870991
  13.6772108  18.1266193  13.0511580  17.8833580  26.3501225  61.1291122
  17.5827141  25.4760151  61.3776741  17.4779873  26.5094471  60.2767525
  72.2172699  21.1264687  13.4125996  71.9448242  21.7825680  14.0541115
  72.7686234  20.5211754  13.9084396  43.0922356  13.8388634  70.4655914
  42.5374832  13.0831032  70.6587524  42.9203148  14.4512320  71.1809082
  79.0407257  59.0964890  24.7321396  79.0727081  58.8691864  23.8028698
  78.7631073  58.2899933  25.1665649  46.6750908  35.9164619   1.7793398
  46.9502182  35.0461655   2.0676396  47.4839592  36.4277306   1.7555889
  86.3867874  27.2002163  27.6569500  85.6728516  27.8363533  27.7000809
  87.1684799  27.7013454  27.8894634  34.5879974   2.2391279  17.1677170
  33.6951637   1.9010941  17.2370987  34.7749252   2.2309518  16.2289829
  63.1885490   9.8301802   1.1201907  62.9311829   9.7911377   0.1990658
  62.3970184   9.5873117   1.6005318  12.9685154  41.6751633  89.1400299
  13.4786167  40.8799515  88.9861755  13.5876598  42.3896141  88.9901962
   8.2733078   6.9801965  15.5661869   8.9889746   7.3622499  15.0581627
   8.5952768   6.9756327  16.4675999  45.4953041  53.4749641  12.9595795
  44.9470062  53.3358116  13.7317448  45.4804726  54.4222336  12.8228502
  40.0888596  12.0807991  62.7942200  39.5662346  12.8748827  62.6823120
  40.6728210  12.0695486  62.0358696  63.3656998  15.4116755  27.7934761
  63.4069252  15.2259245  26.8553772  62.5402946  15.0200882  28.0791283
  84.6525726  23.0894566  84.9244614  83.8749008  23.0133018  84.3715897
  84.9209747  22.1850033  85.0861816   8.0665951  66.0915604  73.7014847
   8.0270643  66.1356430  72.7461166   7.3647346  66.6713486  73.9972534
  16.5272636  53.6611176  59.3572197  17.4606628  53.4511871  59.3876991
  16.2338982  53.3258095  58.5100250  82.7996597   3.7808449   3.4021730
  81.9967346   4.2613897   3.6037424  83.4427948   4.4615073   3.2039292
  21.5111427  61.7565041  78.1429596  21.0401821  61.1110954  78.6701050
  21.9578362  62.3093910  78.7840652  51.3668365  50.3112411   1.2601978
  52.0135002  50.8405457   1.7269915  50.6144753  50.8929710   1.1517007
   5.7598767  27.9972668  83.7142410   6.4389210  28.2634830  83.0943527
   6.0829382  27.1762142  84.0853653  64.1212616  55.2609329  74.4072495
  65.0159225  55.4261551  74.7047653  64.2141571  55.0382576  73.4809570
  78.3821106  43.8353653  62.2529259  77.6921768  44.4467506  62.5106697
  78.0142365  43.3590240  61.5086136   1.8196563  46.8420219  69.6055145
   1.6636435  47.2704239  70.4471588   2.4828708  47.3851395  69.1796112
   6.8280253  53.1699028  73.8527145   7.6349301  52.8700600  73.4341125
   6.3589387  52.3650436  74.0726929  64.3658600  57.3405800  59.4345894
  65.0073929  57.6125298  58.7783051  64.6523438  57.7686806  60.2413635
  18.3247890  56.9526062  39.5337830  19.2424870  57.2032623  39.6397667
  18.1150150  57.1881027  38.6300316  36.3031731  21.7727604  29.4767685
  35.5844955  22.3934841  29.3566093  36.3774757  21.3261852  28.6333942
  53.2266617  47.9317093  17.9636097  53.1311111  48.4491272  17.1639977
  53.9916534  47.3796234  17.8016663   9.1647348   0.4349537  86.1852798
  10.0012083   0.0062766  86.3663330   8.5127306  -0.2578238  86.2910233
  76.0542755  29.1841984  64.2015152  76.0882034  30.1230278  64.3850403
  75.4642105  29.1079025  63.4516869  53.0791016  59.6755142  60.9203148
  53.9137840  59.7214546  61.3866043  52.4167366  59.7210350  61.6098289
  37.6245193  68.0410080  78.6580505  36.9075813  67.5843201  78.2179718
  37.4308777  67.9481201  79.5908508  80.4268570  45.9227753  70.8069534
  81.1284256  46.5573807  70.6609955  80.5605774  45.2582436  70.1311188
   7.7881780  69.1651382  54.8002853   8.2327127  69.7853165  55.3782120
   6.8700504  69.2039261  55.0681839  49.5965347  66.1083069  26.6154213
  50.4968796  66.2786102  26.8922081  49.1885681  66.9735641  26.5818024
  46.5590591  42.2446327  84.7205353  45.7961121  42.5681190  85.1995926
  46.2525406  42.1482849  83.8188705  44.5892410  11.8488235  22.7052231
  45.4949799  11.7009068  22.9772358  44.2594261  12.5060635  23.3179970
  10.5809708  23.4430523  24.7047653   9.6630583  23.4709053  24.9747524
  10.7955952  24.3512001  24.4916077   1.5361128   7.9654064   2.3328009
   1.6368592   8.8323908   2.7257633   1.0803961   8.1282482   1.5069457
  45.1962547  50.4145508   7.2871356  45.8556023  50.7118607   7.9141107
  44.4097939  50.2751427   7.8146524  85.1264801  34.2325706  69.1453857
  85.2856598  34.1232147  70.0829010  85.9932404  34.3934135  68.7724457
  66.1398544  38.2955589  61.5804214  66.4701767  38.3869095  60.6866798
  66.4619598  39.0736122  62.0355148  23.4232693  59.2281303  61.5671387
  23.1068897  58.7571259  62.3380432  23.6597748  60.0951843  61.8965569
  83.7571030  46.6508827  14.5264168  84.4598618  47.2609329  14.7504730
  84.0820160  46.1834030  13.7569199  61.8469048  54.1849098  59.9296455
  62.2789383  54.4247818  59.1098633  61.4889908  53.3124695  59.7653999
  58.3296509  38.5639000  53.1224365  58.3428268  37.7641830  53.6482811
  58.1127396  38.2660942  52.2389793  34.3632469   5.2548246  29.8291492
  33.9428902   4.5752196  30.3560905  33.6444092   5.8245273  29.5553894
  34.0844994  45.7534332  14.5786877  33.6766510  46.5151367  14.9906387
  33.3809509  45.3512459  14.0692816  76.4090652  16.6675739  54.6860085
  76.5322266  17.5568256  54.3539009  75.5145416  16.6608524  55.0265999
  69.5221252  47.5416946  88.4014587  68.9420624  46.8256454  88.1425400
  70.2807846  47.1066055  88.7905121  42.2761536  68.0409164  30.4390621
  42.0126495  67.1404800  30.6288509  43.1763458  67.9653778  30.1225567
  52.7879066  57.4496765  47.7654991  52.4319229  56.6028824  48.0346642
  53.6928024  57.4391518  48.0774040  56.2613831  35.0022545   5.0363388
  57.0674591  34.5140152   5.2039547  56.5161018  35.9211273   5.1201210
  71.2307816  10.1930227  14.0942135  71.9914398   9.6348410  14.2556629
  71.4550323  10.6799736  13.3012285  69.8454819  43.3964806   2.6903577
  70.5953674  43.3052788   2.1024890  69.0821228  43.3352242   2.1161082
   0.9667607  51.2966347  13.5889816   0.5912488  51.1515846  12.7205439
   0.9200251  52.2443657  13.7148895  64.2708664  34.4625816  11.2228260
  64.1708450  35.4106712  11.3086071  65.2029572  34.3350792  11.0462227
  37.2670288  13.1234989  36.9036522  36.3212204  13.0490370  36.7766190
  37.4177055  14.0591526  37.0381126  20.8357906  56.9465752  51.8385048
  20.2587471  57.3970718  51.2218170  20.3076363  56.2231064  52.1759682
  23.7692337  63.6637230  13.2542639  24.3608818  64.4145355  13.3038464
  24.2084141  63.0512657  12.6641359  11.7102547  66.4495926  63.3591080
  11.2956676  67.1840973  62.9064980  11.3554077  66.4845581  64.2474213
  60.4882317  66.6366425   0.9940281  60.7498322  67.4960098   0.6634477
  61.3043098  66.1383209   1.0379161  39.8798103  44.0727310  23.9262524
  39.0305061  44.2894020  23.5415916  39.8553429  43.1227722  24.0411968
  65.8373032  18.8597088  82.2398529  65.9146729  18.1675739  82.8965073
  65.6851501  18.3938541  81.4176178  55.6922188  58.5536118   0.2854300
  56.6422539  58.4450264   0.3286970  55.4339638  58.0884018  -0.5102559
  28.9781475   7.4479909  66.0704041  28.5540714   8.1240120  65.5418320
  28.7632999   7.6804047  66.9737625  14.6681671  30.5597744  16.3431854
  14.1790504  30.9134331  17.0860996  14.5360327  29.6133327  16.3981419
  47.4419479  30.7478046  11.7360506  48.1794968  31.1869621  12.1596012
  47.1499252  31.3640442  11.0643320  18.1791782  61.5287933  20.3213558
  18.0223122  60.6269569  20.0414925  18.5719814  61.4450531  21.1902199
  54.2769127   9.0423365   5.6897068  53.4321671   8.8680086   5.2746801
  54.9241142   8.7714643   5.0385642  74.0769119  58.3883820  22.9310760
  74.0283508  57.6878242  22.2806206  74.0304947  59.1951714  22.4180737
  38.0236893   5.6134868  54.0836182  37.5702553   5.7170777  54.9202194
  38.0455284   6.4954238  53.7122154  80.6926117  42.4395180  48.2856712
  80.7370758  42.9662781  47.4876862  80.9602737  43.0380974  48.9830170
  53.7798691  60.9627037  70.0483475  53.0116081  60.4184799  69.8756485
  54.0790939  61.2366753  69.1813736  53.9057579  48.9986877  10.3533792
  54.0851479  48.8907433   9.4193563  53.3590164  48.2466164  10.5807428
  13.0452414  11.6947775  46.8584175  12.7687893  12.5069761  46.4339905
  13.9256344  11.8822880  47.1839638  44.9347076  35.6451797  18.1250877
  44.2619591  36.2926559  17.9143353  44.5165024  34.8011665  17.9548569
  20.7944889  55.7081108  48.2369537  20.7061577  54.9640694  48.8326340
  20.6303711  56.4750443  48.7856903   8.7553091  12.6352348  30.0322990
   9.6509714  12.9214449  29.8531227   8.2110376  13.1838627  29.4674911
  40.7060738   1.3386523  82.1013336  40.7594795   0.5822447  82.6854782
  41.2299843   2.0128603  82.5339890  53.5092201  27.4517746  71.0774078
  52.6812019  27.5445824  70.6062317  53.7756615  28.3501606  71.2727051
  78.2606354   3.7347436  60.3927193  79.1008759   4.0995040  60.6705437
  78.2315903   3.8919582  59.4489670  47.5999069  21.7547779  28.0854855
  47.4391823  22.5471668  28.5978546  47.0313873  21.8446712  27.3206730
  75.2578812  26.1689281  62.7810173  75.3493347  26.5943298  63.6336021
  74.8123627  25.3434811  62.9717636  30.0648727  39.0626373  85.0318756
  29.4641972  39.4657974  85.6586761  29.6658764  39.2276764  84.1775894
   2.6901307   1.7761068  26.8417873   2.9289138   1.9442948  25.9302349
   1.7785959   2.0608468  26.9070511  10.9497299  12.8676090   9.5305643
  10.9910831  13.8236189   9.5067520  10.5831089  12.6650953  10.3912668
  68.7169418   2.8960621  61.6259460  68.6586609   3.2852774  62.4984970
  67.8549881   2.5064473  61.4794197  16.4457855  44.9011765  24.1773014
  15.5754929  44.5082130  24.1109619  17.0288830  44.1631927  24.3550968
  64.1080017  31.1218815  22.3267899  64.6165466  30.3966846  21.9638863
  64.0345001  30.9197254  23.2595081  45.3586159   7.1488914  18.2508030
  45.1766281   6.4097166  17.6705170  44.7011032   7.8041897  18.0173683
  14.9035788   4.9648361  28.7178879  14.1928129   4.3238416  28.7048607
  15.5604763   4.6062284  28.1211319  35.1540070  57.3559837  70.5887299
  35.8215141  57.9535522  70.2517090  34.6871719  57.8667946  71.2500687
  29.1524734  30.2523956  30.3139992  29.3994408  31.1174126  30.6410828
  28.7927074  30.4194736  29.4428596  16.7926579  15.5453644  59.3754539
  16.2591610  15.1258926  60.0504761  16.1608162  16.0029030  58.8207741
  76.6562576  49.3758736   2.0345538  75.8971024  49.9488182   2.1425111
  76.4789505  48.8928833   1.2273886  82.1147232  51.7606926  78.9112778
  83.0273972  52.0172462  78.7792435  82.0922852  51.4038658  79.7992020
   3.7251999  34.7593727  19.0652485   2.9843004  34.7208061  18.4604244
   3.3889856  34.3859825  19.8799686  61.5368652  34.8623734  33.8013878
  61.9478569  34.1604080  33.2968445  62.0082016  35.6532249  33.5394173
  21.5818520  16.0254192  77.2974777  21.5336266  16.7528896  76.6772385
  21.9342346  16.4156055  78.0973587  40.5684814  23.6269760   1.1700674
  40.0881920  22.8003159   1.2168410  40.0821724  24.2193031   1.7435535
   1.0880971  21.4001255   1.7636417   1.6601888  21.7833729   2.4285204
   1.6775010  20.8972607   1.2015368  63.7102318  14.8164053  57.3868523
  63.3793068  14.2994013  58.1213074  63.6332588  14.2347374  56.6305656
  26.4223480   0.5836333  39.4961128  26.0332489   0.2475736  38.6887131
  25.9869709   1.4238275  39.6401672  13.3740854  31.5237923  44.9292679
  12.9006720  32.1306458  44.3601990  13.8051100  30.9174366  44.3269539
  19.5748215  25.5782490   4.4566121  19.2042465  24.9918938   3.7969975
  19.2309113  26.4421616   4.2294259   7.8427219  51.3634644  32.3808327
   8.4514923  50.7026520  32.0507393   8.3927774  51.9687004  32.8781853
  82.7837143   7.6685057  84.8748474  83.6390533   7.6362190  84.4463730
  82.1852722   7.2657962  84.2456207  20.1472874  50.6446571  26.6306133
  20.1937695  49.8467026  27.1572418  20.8704987  50.5637207  26.0088043
  19.5445576  59.5390701  26.4777851  19.7634068  59.7150307  27.3928661
  18.8085823  60.1219521  26.2911835  34.5156021  55.5029984   8.9381781
  35.3200455  56.0185356   8.8805037  34.6213112  54.9824295   9.7344608
  28.8160248  43.7489700  78.4985199  28.0207119  43.2370262  78.3514633
  28.7091484  44.5220337  77.9442825   4.6312690  11.0239401  62.4395294
   4.3190041  10.4228287  63.1158333   4.2443137  10.6939735  61.6285896
  72.8838043   6.0863013  76.7610016  73.6367645   6.0471435  76.1712875
  72.1861649   6.4748321  76.2332001  62.1971359   3.0143015  12.4054213
  62.2688332   2.4441056  11.6399355  62.9279404   3.6262136  12.3175669
  39.2227631  46.9894485  21.1003933  39.5770187  47.7250710  21.5999851
  39.1459465  47.3221016  20.2061501  20.1767349  64.8502579  76.4168091
  20.1089802  65.7774734  76.6446686  19.5945072  64.7453766  75.6643219
  25.5836468  71.4161301  46.1186371  26.2484703  70.8865051  46.5587997
  25.0448589  70.7808151  45.6471329  51.9247818  19.3275719  23.7513237
  52.5068703  19.8469391  23.1966476  51.3618050  18.8589973  23.1351013
  13.7523165  31.1524792  39.7205811  14.1022167  31.8146114  40.3167191
  13.8076525  31.5566216  38.8546486  74.6265793  55.9867973  29.0767574
  75.5657272  56.0068016  28.8928490  74.5706482  55.8646660  30.0244865
  74.6107254  13.6294785  24.5725117  74.0022888  13.1626797  23.9996777
  75.1694336  12.9436502  24.9381790  58.9241714  16.7840061  88.2744598
  59.5146103  16.6699314  89.0191803  58.2100220  17.3225613  88.6153107
  60.3357506  51.6801682  45.2062683  61.2155914  51.9958382  45.4123344
  60.2474823  50.8710632  45.7100449   9.9167309  16.1661930   0.6629626
  10.5577860  16.5846100   1.2376000   9.4137077  16.8931255   0.2958526
  21.4083557   9.9121580  11.3532343  21.7221966  10.5547085  10.7169456
  20.4962883   9.7574263  11.1074238  23.4150620  62.8038025   4.6622782
  23.2736340  63.4740715   5.3308387  24.2357597  62.3816528   4.9161997
  24.0251236  43.6172066  34.1969757  24.0543270  43.6667747  35.1524467
  23.5999508  42.7794762  34.0134888  13.9411583  12.3734646  76.0510559
  14.8580809  12.6472301  76.0278854  13.4472752  13.1759472  75.8827286
  28.2718449  50.9866867  43.4955254  28.9908218  50.4525146  43.8331146
  27.5736656  50.3587685  43.3097878  26.0330162  63.1409225  80.8723679
  26.8198605  62.6075630  80.7599640  25.3571529  62.5175819  81.1386108
  44.5194740  42.4574242  27.0270767  44.4202576  41.8164291  26.3231487
  44.2517433  41.9885406  27.8174591  83.6270905  15.5365019  54.2017975
  83.3740845  15.2004986  55.0616341  84.4743118  15.9570341  54.3487930
  37.2775841  62.8514214  19.4151630  37.5569839  63.6842117  19.7954655
  36.5172195  63.0761261  18.8788910  27.3490372  63.2352943  57.1996765
  27.1748257  62.6615067  56.4535866  27.0293407  64.0935822  56.9215317
  83.3480988   4.1655560  36.7785530  82.6795654   3.8585014  36.1661682
  82.8783951   4.2901502  37.6032257  13.4624472  63.3766899  54.6507378
  13.6814613  64.2754593  54.8966560  12.8889360  63.0692825  55.3527489
  84.0050430  63.0694199  60.6510315  83.9030762  62.2003441  60.2630310
  84.7275314  62.9715576  61.2712402  57.8146324  58.6367264  13.0223894
  57.9819145  59.5791740  13.0283394  56.9832230  58.5439758  12.5572100
  15.1659098  39.8604698  17.0824623  14.5998650  39.3600922  17.6702099
  14.5696363  40.4482117  16.6185150  21.6849709  57.0269775  83.3916626
  22.0773659  56.2043037  83.0993271  22.3469200  57.6904869  83.1972122
  68.9371796  30.9284477  66.2481308  68.3050842  30.2293510  66.4153061
  68.9207001  31.4613895  67.0430756  58.7306442  19.9109039  42.5323792
  57.8231125  19.7702866  42.8022842  59.2208748  19.2137394  42.9681129
  70.7145386  25.6169453  80.5866623  71.5456848  26.0855408  80.5102615
  70.2881851  26.0082436  81.3491211  17.2640324   7.9650626  56.2552490
  16.7377586   7.8641362  57.0483971  17.1121807   7.1584239  55.7627983
  35.8528214  42.7309875  89.3271942  36.6495781  43.0196190  88.8821030
  35.1401024  43.1027527  88.8075256  57.4245987  57.9447975  58.8934784
  56.6979713  58.0444298  59.5085526  57.0450706  58.1502495  58.0390930
  24.8729134  26.2314758   8.4519491  24.4715118  27.0085697   8.8408365
  24.9199772  25.6010723   9.1707029  43.3491058   3.2471204  49.2546921
  42.4727707   2.8635743  49.2887688  43.4800529   3.6230092  50.1252060
   9.3503742  15.8123198  19.6513920   9.9915237  16.2700386  19.1076527
   9.7228613  15.8367424  20.5328045  24.7608624   5.3653812  55.1779594
  23.9057903   5.1324015  55.5396271  24.7965202   6.3196950  55.2431183
  21.5524654   5.1336522  70.8655777  22.4428768   5.2881808  70.5501099
  21.0239735   5.8006620  70.4273682  81.3459015  60.2932053  25.8244553
  80.5596771  59.9702034  25.3842850  81.7250290  60.9199181  25.2082310
  18.2011662  20.8504028   3.2082205  17.8148556  21.5013866   2.6223745
  18.8517818  21.3384953   3.7128952  85.8702927  19.2973442   6.1688051
  86.1076202  19.7332497   6.9872751  85.9329987  18.3632069   6.3680239
  48.2914085  59.7605591  66.0205383  47.6426430  59.9535408  66.6973648
  47.9026642  59.0487785  65.5121307  39.9132156  56.4387589  78.6257477
  38.9928589  56.5043373  78.8804474  40.2950630  55.8333702  79.2612991
  10.8722630  17.4801178  78.3214035   9.9259176  17.5703659  78.2095261
  11.2154379  18.3623371  78.1794357  31.3362865  58.3421631  47.5468864
  30.4063187  58.1510696  47.6688576  31.7147655  57.5131454  47.2541237
  23.9783325  43.8944511  76.8142853  23.9438343  44.5884056  76.1559067
  24.7160530  44.1332283  77.3755264  12.7712774  25.2160053  88.9658356
  13.1083708  24.6392155  89.6513367  12.6084566  24.6351032  88.2226791
  69.0804901  61.1691513  39.3584099  69.4308472  61.5133133  38.5368080
  69.8386154  61.1216354  39.9408379  11.5667734  11.5536575  34.4903412
  11.7441225  12.4891453  34.3921509  12.1572418  11.2698994  35.1882401
  51.6338272  44.2060280  78.7534485  51.4153595  45.1324234  78.6519928
  50.8462410  43.7417641  78.4699097  81.2696991  64.1058273  77.8603821
  81.5188675  65.0283279  77.8042908  82.0815430  63.6517563  78.0861359
  66.3346329  11.0972500  35.4865837  66.6978531  11.5549278  36.2447624
  66.2291107  11.7791166  34.8231430  16.2761230  50.0396805  14.4701118
  16.7928925  49.6062698  15.1493282  16.3057842  49.4381180  13.7261505
   6.5012522  27.1805058  42.8645515   5.8546534  27.6148376  42.3082275
   7.3432307  27.5253983  42.5673065  69.2421265  68.8037338  65.3777084
  68.9160385  68.0005112  64.9718399  70.1676483  68.8357620  65.1356049
  57.0914650  65.8243790  88.5084457  56.1824532  65.7454605  88.2191315
  57.2456169  65.0374756  89.0311813  18.7285786  13.8747616  44.3617058
  18.0010719  14.2029486  43.8332558  18.8075352  14.5047054  45.0780640
  11.3938351   7.6591578  22.9308548  10.9979353   8.4200268  23.3557949
  12.2375011   7.9766417  22.6088867   7.6008539  57.5243492  85.7561111
   8.2709751  58.0701675  85.3447113   7.9424253  56.6328430  85.6869659
  79.7115326  35.6813087  84.0736237  80.2317810  35.9411049  84.8339386
  79.7682266  34.7258873  84.0597534   0.2010892  65.9908447  52.5905266
   0.8750815  66.4585724  53.0836754   0.1881320  65.1142426  52.9747543
  44.7244606  62.8929024  30.1226158  44.8236656  63.8343964  29.9812775
  45.2001495  62.4902077  29.3961220  16.5421581  26.7536068  58.8921204
  16.1117458  27.5982971  59.0243073  15.8946743  26.2253151  58.4253197
  57.8850212  36.0684738  -0.1848207  58.7923393  35.9719582   0.1044645
  57.3640900  35.7315521   0.5441156  43.1205673   0.4745257  51.2558975
  42.5483665   0.9621038  51.8484230  43.1287384  -0.4151441  51.6089592
  65.6795425  20.5618649  49.1092224  65.4871368  19.6292572  49.2064590
  66.2795639  20.6062832  48.3647537  60.0070267  21.8245926  72.0106049
  59.9850655  20.9497070  72.3983154  59.3934479  22.3358517  72.5382080
   3.3109179  47.7990875  47.9252396   2.3567286  47.8108788  48.0001793
   3.6207235  48.1671257  48.7527657  30.3628120  64.6976852  22.1458588
  31.0925083  64.5371552  21.5475235  29.6965618  65.1195679  21.6033134
  68.9320831  18.5842838   5.4199266  69.0223465  17.7207298   5.8228602
  68.4752884  19.1088428   6.0775046  33.8979149   0.4507567  10.5456800
  34.7053413   0.0005236  10.7938442  34.1850548   1.3189069  10.2626638
  19.7690105   9.5014029  60.4643326  19.8700829  10.4331627  60.2698059
  20.6533070   9.1432695  60.3869362  51.9514809   9.7794800  19.2633991
  51.1936646   9.6969814  18.6844845  51.6277199  10.2807999  20.0117893
  21.1862469  63.4638596  28.4611626  21.1732559  63.2203979  27.5355339
  21.2820702  64.4162445  28.4569988  82.2041016   4.1042376  22.4172573
  82.6467896   3.7303083  23.1791191  82.7639008   4.8327131  22.1485977
  70.7676392  16.1340923  29.2914906  70.1948166  16.7124329  28.7878819
  71.0619583  16.6703129  30.0277500  61.5810051   6.9851098  15.8787632
  61.8967934   6.9175229  14.9776850  60.8653831   6.3514686  15.9299269
  30.5953865  57.5250893  26.0828781  30.3700829  56.8369064  26.7088795
  29.7702389  57.7271729  25.6418285  15.4743996  69.2980957   2.5390415
  16.0106354  69.1233063   3.3124309  14.8583403  68.5663147   2.5043719
  78.3251266  70.6930542  73.7697906  78.8551025  71.4876633  73.8326492
  78.1822510  70.5741119  72.8308105  59.7409058  29.4339943  60.7148247
  60.0915833  28.7364426  61.2686119  60.1855698  30.2259998  61.0168686
  72.7838745  16.5026302  82.8814545  72.6838684  15.5939960  83.1653824
  73.1931915  16.4402218  82.0184402  76.5035095  19.2593861  23.5585194
  75.7012558  19.7760429  23.4831333  76.8338547  19.1978226  22.6622429
  53.8817635  63.5804558  37.9442139  54.2076607  63.0947838  37.1864853
  54.3850060  63.2378082  38.6828423  77.2797623  21.4227066  62.2441978
  77.1686554  21.7236366  61.3423500  77.1295090  22.2033157  62.7773972
  62.8632202  68.4517593  23.5196495  63.3535957  68.6773987  22.7291737
  61.9601517  68.3478775  23.2198029   7.2636724  16.4860764  66.5718231
   6.6044192  16.2888470  65.9064484   7.0697379  17.3834858  66.8425217
  20.4433327  54.6336021  78.7999039  20.8553276  55.3907890  78.3837814
  19.6857986  54.9956322  79.2595825  77.7591782  54.1615295  35.6971970
  77.6769257  53.2559090  35.9960556  78.5733948  54.1747131  35.1940956
  54.5994606  47.9385376   3.6356335  54.8434296  48.8586426   3.7362018
  55.4106522  47.5028610   3.3741348   9.8975658  13.7314377  88.7720642
   9.0039301  13.4246321  88.6187057   9.8172865  14.6834974  88.8301163
  69.9817276  66.4603195  72.1406326  70.8959045  66.1991959  72.2516098
  69.7328644  66.1045227  71.2875748  31.9782028  51.4849510   7.6044507
  31.3497124  51.3569069   6.8939328  32.0302963  52.4349060   7.7098451
  40.1383476   6.6660562  69.5532990  40.4894409   6.0115509  70.1571121
  39.5689659   6.1690307  68.9659348  20.9283905  11.8835487  51.3169518
  20.7920437  12.8211346  51.4532394  21.0460186  11.5280809  52.1978798
  48.3043060  51.4330101  31.4029751  48.3928528  50.4799232  31.4074574
  48.4084396  51.6875420  32.3198166  26.0228539  51.7282372  19.0424538
  25.6347656  50.9333839  19.4082775  25.4949532  51.9173851  18.2667122
   3.9943526  64.8171768  33.8096771   4.7320738  65.3001022  34.1822052
   4.3975911  64.1872635  33.2123184  38.9539604   9.2419338  47.1243248
  39.5435715   9.6145935  47.7798500  39.5332870   8.9431429  46.4233704
  78.0507278  26.3907547  15.7372131  77.4256058  25.8982754  15.2053070
  77.8729477  27.3077660  15.5281172  19.5483475   0.4070629  10.3764420
  19.7627201   1.2382410  10.8000212  20.3957291  -0.0146546  10.2338610
  56.0334511  26.3703098  17.0829811  56.2002754  27.2243214  16.6841526
  56.8750000  26.1134987  17.4599113   0.5792897  45.2355919  27.7699871
  -0.2900236  44.9773407  27.4636688   0.5914791  46.1885147  27.6804390
  20.0205173  68.3515854  57.1703491  19.8643494  68.3751984  58.1144257
  19.4342461  69.0189819  56.8138351  76.0945511  18.4806957  20.8227425
  75.1392517  18.5108967  20.7706337  76.3033752  17.5470409  20.8529568
  50.7742462  59.6130333  80.1607513  50.4144974  58.7379265  80.0158310
  50.3416176  59.9209824  80.9571381  19.3653450  66.3248138  86.1730423
  18.7796059  66.0482788  86.8777847  18.7975121  66.4028854  85.4064178
  52.7883759  10.2397985  75.3626175  52.1606750  10.5968513  75.9908905
  52.6908836   9.2907000  75.4396820  11.0264645  67.8988037   7.2155471
  10.5049105  68.6835251   7.3841805  11.6833687  68.1801147   6.5786986
   1.7124797  19.5636578  64.1020203   1.1775908  19.8726368  64.8332214
   1.9243808  18.6575680  64.3263702  47.9321709  57.7126122  64.0781631
  47.4263840  56.9785042  64.4267273  48.8078308  57.5967026  64.4469681
  54.9107018  13.1633167  43.0404243  55.4397774  13.9605970  43.0148315
  54.3165436  13.2937708  43.7794685  52.1992455  57.7942848  50.7928123
  52.6864586  57.8521690  49.9709206  52.8080406  58.1203346  51.4556046
  19.6166611  67.3838120  76.9982452  20.1406803  67.8529205  77.6475372
  18.7311344  67.7296295  77.1099854  61.8258705  27.8593521  33.8045845
  61.5859871  27.8809853  32.8781853  61.8661537  28.7800941  34.0631294
  71.9419861  26.6072521  65.3299637  71.1597214  27.0881691  65.6001740
  72.3767319  27.1883717  64.7058411  35.7603378  38.3568077  20.7219429
  36.2022705  39.1961670  20.8500290  35.1965714  38.2633171  21.4898338
  52.7159615  61.9311218  79.3783112  53.3037834  61.5382576  80.0235748
  52.1276512  61.2195625  79.1257172  48.4743576  49.0711899   3.4119036
  47.6175804  49.2422028   3.8029535  49.0897141  49.5561981   3.9617543
  79.9313889   8.8044462  74.9482574  79.5662842   7.9710736  74.6508942
  80.6172409   8.5576906  75.5687027  40.4961929  49.2506981  17.9363708
  40.3647652  50.0934944  17.5020237  39.6673813  49.0800018  18.3837700
  47.9131203   6.2486820  50.3740654  48.3127174   6.2951055  51.2426262
  46.9917259   6.0531702  50.5444641  59.7269440   1.1283413  75.7191772
  59.0813713   1.5984855  75.1915131  60.4484482   1.7486287  75.8236008
  79.4488525  60.3369255  14.6923590  79.6994324  61.0702286  15.2542400
  79.3868179  60.7169609  13.8160267  31.9084930  44.7318535  13.2222719
  31.0483875  44.3546181  13.0374889  32.2397995  45.0034904  12.3663034
  44.6835289  57.0789070  54.9457970  44.6481094  57.7534180  54.2675514
  45.3891411  57.3612213  55.5277252  22.3393764  67.6400681  44.4617882
  22.4048939  68.1897583  45.2426720  21.4026432  67.4663925  44.3690491
  62.6117210  -0.0701316  22.8759804  63.4638786   0.3321671  23.0439415
  62.0301514   0.3192707  23.5289536   0.0242665  23.1610298  75.6237488
  -0.4623134  23.6034660  74.9282532   0.8663362  22.9418755  75.2248535
  83.6792374  60.4156113  31.5455494  83.1042480  60.2397957  30.8007584
  84.0064240  59.5540428  31.8041592  81.1968613  46.1958580  25.4643364
  80.4405670  46.3483772  26.0308895  81.4089661  47.0595207  25.1103153
  41.3212318  36.4578476  24.7561646  41.0071678  35.5719566  24.5750713
  42.1292801  36.5339050  24.2487144  71.8580170  42.8396301  59.8935699
  71.7634354  43.7382355  59.5776711  71.5185623  42.2982368  59.1809006
  28.1626625  52.9037170  45.9336586  28.5657291  52.4662628  45.1837234
  27.3574696  52.4115028  46.0937195  86.4799576  51.2735786  38.9802437
  85.6475830  51.1057625  39.4220848  86.3136597  51.0521240  38.0639839
  58.0943794  26.8879128   4.9760880  57.6919136  26.8928833   5.8445525
  58.2077751  25.9600735   4.7699637  21.3662968   5.2282834  17.9188213
  21.3969746   5.7988744  18.6867504  20.6025143   5.5296693  17.4268532
  71.8066711  47.4158096  52.9923477  72.2037888  46.5448875  52.9874916
  72.3870163  47.9405937  53.5437431  58.2409439  27.8781929  72.5421448
  58.8540230  28.4749088  72.9714355  57.7994690  28.4188175  71.8871155
  77.2502670  33.9636917  31.2864037  76.9453888  33.0643349  31.1662292
  78.1034164  33.8726883  31.7107639  84.5278397   9.8409109  66.6852570
  84.0601654  10.1237946  67.4710693  84.7583847  10.6549931  66.2376556
  18.9235630  12.6979713  70.1710587  19.5788670  13.3799782  70.0238266
  19.1338940  12.0208902  69.5279770  17.8411484  64.7339935  48.2775993
  18.5432968  64.0854187  48.2268677  18.0270424  65.3445282  47.5642166
   0.1705701  19.6220570  85.1527328   0.9023075  19.1080856  85.4942398
   0.5067658  20.0099220  84.3447952  71.8844757  69.0806885  15.1618242
  71.3881836  69.8085251  14.7874146  72.4924622  69.4951859  15.7740173
   3.3419495  44.1441574  31.9190006   3.9605100  44.5951843  32.4936218
   3.8940463  43.6379128  31.3230686  83.9464569  67.9021149  17.4275169
  83.5571136  67.7177505  18.2822990  83.2230148  68.2470551  16.9041843
  60.8010330  65.8853531  79.6023941  61.2325935  66.7089386  79.3750305
  59.9198227  65.9681168  79.2379074  44.2207870  58.7955208  12.9542065
  43.2723579  58.7061043  12.8608532  44.4674797  59.4377174  12.2886543
  40.6737251  56.3008194  87.0986404  41.2626572  56.6662521  87.7588348
  40.3199387  55.5096207  87.5049286  24.5276642  69.8470154  79.5278625
  24.6665764  69.4429398  80.3843994  24.3915749  69.1087570  78.9339905
  85.5765839  27.8256931  20.1414394  85.2702332  27.3870182  19.3477478
  86.1950836  27.2086906  20.5325871  55.4222832  50.7178841  51.8562164
  54.7318764  51.3055611  51.5492897  55.1531143  49.8517570  51.5502663
  43.2151451  56.4987411  51.8605690  42.9833755  57.0225792  52.6274529
  42.7242279  55.6842842  51.9695854  76.8860931  68.3961945  14.1479816
  76.6511078  67.5854187  14.5992670  76.0805511  68.9132385  14.1494446
  48.2044945   9.2422867  10.0502825  48.3322372   8.4003859   9.6131144
  48.0591278   9.0155830  10.9688168  47.5046959  41.6507988  25.4959068
  46.9655418  40.9938812  25.9363670  46.8941307  42.3552513  25.2786694
   7.3979039   4.9297338  87.9979630   7.8484011   4.9638877  88.8418274
   7.5118437   4.0265932  87.7020111  81.1191025  33.8812981  24.1805496
  81.3196945  33.9694633  23.2487659  80.7246933  34.7196579  24.4210148
   3.2713754  23.6119499  33.0460777   4.1883421  23.3680191  32.9199753
   2.7795589  22.9634209  32.5423317  41.4305382   6.2819710  45.7060051
  40.4902916   6.2146788  45.8722610  41.5380020   5.9686141  44.8079567
   6.1353450  50.1102066  16.2494144   5.2672639  49.7137566  16.1752892
   6.3531032  50.3785782  15.3567829  18.4176998  65.8644257   8.9566708
  18.4513321  65.1541061   8.3159332  18.0485821  65.4610138   9.7423210
  52.4878807  19.9441967  65.9142761  52.4391022  19.2917080  65.2156219
  53.4196281  19.9984074  66.1267395   5.3010440  23.6029320  72.6548462
   5.4471259  23.8808594  71.7506104   4.6774859  24.2400150  73.0034637
  53.8214722  45.8536034  28.5208073  53.1541328  46.3011246  29.0410118
  53.3241997  45.3340530  27.8891277  31.6433296  43.7153358  78.6443710
  30.7209263  43.5183372  78.4813004  32.1068840  43.3195610  77.9063263
  50.7372704  56.7400055  75.8471069  50.8240929  56.3835106  76.7311935
  50.5506477  55.9779167  75.2988129   2.8789928  65.9345932  84.3495636
   2.7725947  66.7762909  84.7927933   3.8257711  65.7964783  84.3218765
   8.4098892  18.5160809  63.8128929   8.0557814  18.4936733  62.9238853
   8.6083517  17.6017017  64.0147705  10.5680914  44.5596657  69.6392365
  11.3617840  44.2023277  69.2409973  10.0300083  44.8337746  68.8965607
  84.7086639  47.9059334  67.8859558  84.8721619  47.7311821  66.9591522
  84.0576706  47.2524490  68.1416931  27.9196014  50.4047241  33.7031212
  26.9800930  50.5839424  33.7409897  28.0157433  49.7816811  32.9828415
  26.1518383   6.1154556  65.8552475  25.7412529   5.3756614  66.3028641
  26.1938744   5.8467431  64.9375076  80.0649261  11.3599234   7.6610336
  80.8142700  11.8463840   8.0046444  80.3617630  11.0306149   6.8126965
  69.2940826   8.0548553  55.2262383  68.8807831   8.5155315  55.9564400
  69.3782425   8.7182589  54.5413704  16.2384052   2.8017006  40.0696945
  15.3015404   2.9777517  40.1564178  16.4265308   2.1622043  40.7566338
  70.0772247  38.5407867  44.5230560  70.6536560  38.0602722  43.9288673
  69.5185623  37.8674965  44.9114037   6.2335830  36.4225082  79.4552765
   5.9927897  37.3406105  79.5791092   6.2396865  36.0551758  80.3391647
  55.9936523  32.0804405  84.3072662  56.8217239  31.7915649  84.6907806
  55.3486176  31.9471302  85.0018082  83.6221619  45.7697754  64.5996552
  82.9132462  46.2804184  64.2086029  84.3464661  46.3900146  64.6827927
  13.5774031  55.9982300  57.0792084  13.3521957  55.8452225  56.1615486
  14.1120386  56.7920876  57.0654640  77.7613831  23.5621071  36.2285652
  77.8904266  24.1241493  36.9925613  78.4788132  23.7920876  35.6381149
  10.2200394  12.0314674  81.1427841  10.9964895  12.4514198  81.5129166
  10.3175220  12.1391783  80.1966705  21.1857872  67.9794159  86.7538757
  20.8255043  68.8633270  86.6823120  20.6003838  67.4385147  86.2238235
  56.9967690  20.6455135  86.1203842  56.4203758  21.0410767  86.7742386
  57.4427986  21.3883362  85.7135620  23.7154827  66.6575775  55.8643913
  23.5146904  67.5336227  56.1937180  24.4298458  66.7935944  55.2419662
  70.4376144  40.5106773   4.6010928  71.1317825  41.1695557   4.6166792
  69.6330414  41.0133972   4.4739404  73.6569138  30.1311283  69.2056274
  74.1345062  29.6050568  69.8470230  73.8601379  29.7244320  68.3632889
  72.1747665  24.7931786  50.9950294  71.3830643  24.6560879  51.5152626
  72.6501007  23.9648399  51.0594254  86.8722687  16.6040058  23.0932827
  86.7966919  16.9895096  23.9661541  86.3884277  15.7802248  23.1525612
  23.0370159  16.9838085  13.5425272  22.1795082  16.9976425  13.1174135
  23.4035759  17.8511753  13.3706512  40.1020584  69.4139175  44.8812332
  40.5740738  69.9496155  44.2436905  40.7382317  68.7542572  45.1575546
  13.5125275  45.8956909  60.7568779  13.2344074  46.1340485  59.8725319
  14.4483747  45.7131577  60.6726074  71.8259735  28.2603855  43.1130562
  71.0642853  28.6877937  43.5047035  71.4562836  27.5735760  42.5582123
  40.9842873  58.5028648   2.0349803  40.2618103  59.1306725   2.0242252
  41.3508720  58.5746498   2.9162829  28.0498161  30.2322273  27.6456127
  27.7860909  29.3367977  27.8574791  27.2586117  30.7534866  27.7816849
  32.6904831  51.1756516  88.6783142  32.3336067  52.0216408  88.4078140
  33.5238495  51.1072388  88.2124252  66.7892075  57.0821609  85.5592117
  66.0625992  57.1283340  86.1806183  67.3625488  57.8075714  85.8067856
  57.2012405  47.2048340  34.4059944  56.6513634  46.4420166  34.5848007
  57.9491272  46.8530769  33.9231224  64.0298615  33.7860260  46.4158096
  64.2112503  34.6986237  46.6405373  63.1027336  33.6681557  46.6226082
   2.3149831  12.8313875  44.9626236   2.9074724  12.1699762  44.6052399
   2.0270398  13.3323994  44.1995354  33.9231415   8.9991198  72.8991928
  33.5781212   8.4955215  73.6364746  34.4106293   9.7155752  73.3057404
   1.2205101  25.6038456  38.2947769   0.5807335  25.9394341  38.9227066
   1.7580296  26.3636742  38.0712509  54.6661034  54.5416641  85.5430374
  54.6034203  53.6060791  85.7353516  55.2885094  54.5959435  84.8178558
  14.9902096  48.1368980  17.7555752  14.7657156  48.8898888  18.3022385
  15.8691139  48.3309479  17.4298363  14.3829117  35.9745827  30.1314564
  15.3013449  35.9957504  29.8626385  14.3672428  36.4405136  30.9674549
  70.9940567  60.5160446  20.9724941  71.7934952  60.8238525  21.3995667
  71.1687927  59.5967102  20.7711926  37.2698784  69.8507919  44.4071007
  36.9663162  70.5012894  45.0402946  38.2228737  69.8559952  44.4965591
  22.5855446  44.8593445  19.5900211  21.8143444  44.3107758  19.4466515
  22.2686195  45.5807915  20.1334438  45.2470055  48.7979851  81.9374771
  45.7189827  49.6203117  81.8061447  44.5236320  48.8344269  81.3116684
   5.9373631  54.3962440   5.3392696   5.0083838  54.1883774   5.2391686
   6.2508597  53.7795410   6.0008073  47.4570618  19.6467171   9.9265594
  46.9170074  20.4033585  10.1547413  47.1606636  18.9540958  10.5170326
  40.5010414  23.5503597  46.2141762  39.7025986  23.9957409  45.9307098
  40.5235062  23.6793652  47.1623764  18.7908039  70.6420135  20.0241032
  18.1558762  70.5000992  19.3219929  18.2773533  71.0184708  20.7388611
   7.3731580   9.3476324  17.8290005   7.7587910   8.4939861  17.6320057
   8.1086960   9.9586058  17.7851048  32.5220642   0.0589497   6.7588277
  31.5836945   0.1955075   6.6282816  32.9362335   0.7941999   6.3070483
  55.3284760  34.3309212  22.0174503  55.7386360  33.8941345  21.2709808
  54.3897324  34.2835770  21.8364697  66.2067490  24.7011795   8.5345612
  65.5136566  25.2336521   8.9248486  66.7334442  24.4104824   9.2790861
  20.4493637  68.5440445   6.6051559  19.8893700  68.4584198   7.3767190
  19.8515701  68.4491806   5.8636189   3.8588512  29.2586098  60.5634193
   4.2819853  28.5447025  61.0404167   4.0768509  30.0441341  61.0650749
  37.4442596  21.0868092  74.1724167  36.6748009  20.6317863  74.5146484
  37.1691666  21.4107742  73.3147430  78.7138214  46.8679771  19.0541210
  78.5950851  46.0075378  18.6519032  79.1865082  46.6891937  19.8670368
  10.0900974  19.4197788  75.3176956  10.8505125  19.6317215  75.8590698
  10.1881371  19.9704533  74.5409241  62.8447571  46.5713120  23.9396191
  62.8859749  47.5083199  23.7484360  63.7401390  46.3370857  24.1838608
  29.0098209  68.0129471  60.0081558  29.7319508  68.2523956  60.5890388
  29.2322788  67.1348190  59.6989059  45.8322906  68.0626984  48.8778877
  46.5709610  68.6236420  49.1144028  45.4242325  68.5051498  48.1336060
  55.9001427  50.6178169   1.5569746  56.0039520  49.7299004   1.2148328
  56.7077141  50.7829247   2.0435941  59.8188438  56.4382477  26.6953945
  58.9290276  56.7745399  26.8020153  59.8632736  56.1645432  25.7792377
  17.1701984  36.2789459  40.7573776  17.9452209  36.1908875  41.3121910
  17.4921532  36.1226311  39.8696060  35.4116898  13.5160198  88.8125687
  34.8853760  14.0899982  88.2559891  35.1433220  12.6310272  88.5655899
  71.8859100  36.8630066  43.0253906  72.1870422  36.8732491  43.9339294
  72.6793365  37.0027657  42.5084991  28.3819199  24.7819805  14.4699640
  28.1396770  24.3364716  13.6581326  27.6423168  25.3605824  14.6555357
  66.1133423  50.5255013  39.0483551  65.2166290  50.8018875  39.2374344
  66.6585159  51.0894890  39.5969276  76.0213928  41.1705589   7.7470040
  76.0371780  41.9720535   8.2700653  75.0982666  41.0467529   7.5262570
  80.7975311  11.4060068  74.2203369  81.6868896  11.2977352  74.5573044
  80.3719025  10.5663204  74.3935318  82.4571609  66.2258072  48.1074333
  82.5022964  65.3594131  47.7030029  82.9516983  66.1359253  48.9220428
  34.6646194  20.8601265   6.2660065  34.3370667  21.7418575   6.4434643
  33.9464569  20.4259987   5.8055596  64.0084686  10.5340834  47.7606812
  63.8193626   9.9514360  48.4962044  63.2278976  11.0826092  47.6828156
  85.4855347  44.0526390  34.6878433  86.3271637  43.8389931  34.2850418
  84.8938904  44.1899033  33.9480095  61.9768333  33.6527405   1.5572952
  62.0197639  33.0140266   2.2689390  61.3165245  33.3016281   0.9598460
  13.4413462  26.0993977  41.8731689  13.6282473  26.7301426  41.1778564
  13.4768143  26.6141605  42.6793900   0.1078742  38.4787369  43.7599449
  -0.4386267  37.7480431  43.4707184   0.7401319  38.0823364  44.3594017
  72.9701767  61.1300201  10.5782900  73.5234070  61.5541306  11.2342548
  72.3720932  60.5826340  11.0871143  18.5372982  40.4045982  85.8598938
  18.9558392  40.5943947  85.0202332  17.6186676  40.2496719  85.6400146
   0.7453255  15.6666937   4.0473857   1.0742682  16.5655842   4.0426092
   0.9210142  15.3520660   4.9341636  62.7327461  47.3501625  68.0457611
  61.8979416  47.7626190  68.2676086  63.3526917  47.7069550  68.6818466
  76.7690964  39.9496193  77.0887375  76.2997284  39.9569550  76.2545471
  77.2423325  39.1175880  77.0899734  49.9410820  52.7772255   0.9489580
  50.5359535  53.3685760   1.4101173  49.2309380  52.6188698   1.5709295
  64.2870789  21.1017246  19.7218933  65.0859375  20.8082981  20.1600304
  64.2276230  20.5532074  18.9396992  53.8216858   7.0893936  32.2174149
  54.5640182   6.7857661  32.7398949  53.1993065   7.4292164  32.8603706
  48.4343071  37.5796700  15.5631218  48.8537331  36.7670250  15.8458271
  47.5287628  37.3302574  15.3787050  63.9178505  46.9743309  20.9953823
  64.5836945  47.2261124  21.6352978  64.3167953  47.1659050  20.1466331
  12.2092638  46.7978821  48.6172485  11.2529011  46.7808990  48.6534843
  12.4245377  46.3874931  47.7797089  35.7041664  12.6000814   2.1981061
  34.9418221  12.9184427   2.6815450  35.7711411  13.1856480   1.4438794
  49.9940186   0.4246188  14.9459486  50.6099319   0.8060442  15.5715656
  50.5444031  -0.0720440  14.3404474   2.9694781  51.6003723  69.6105804
   3.3574986  52.2224693  70.2259369   3.3549867  51.8282166  68.7645874
  38.2810402  63.8705635  73.3406448  38.9095230  64.4381409  72.8944321
  38.6084671  63.8095627  74.2380295  64.9891586  47.0021172  18.4582882
  64.9494705  47.9416313  18.2794724  65.9179230  46.7830505  18.3832512
  12.0671730  17.5726871   2.7147262  12.8881178  17.9226398   2.3685834
  11.6111240  18.3366241   3.0677896  72.7201996  35.2949982  22.7076855
  71.8556595  35.6787758  22.5610161  72.6929092  34.4585724  22.2430630
  49.9692154  59.7860985  24.1096973  49.5995712  60.5714569  23.7062092
  49.5585632  59.0598412  23.6404972  24.2028370  20.2537785   5.2150822
  24.1475201  19.3994904   5.6432939  23.3555660  20.6639729   5.3885856
  61.3710899  62.8936653  11.3561659  61.9138374  62.4169579  10.7281494
  60.4727287  62.6614418  11.1211081  18.3834953  62.0369377  29.9761429
  17.6773930  62.1328125  30.6152515  18.9718761  62.7698326  30.1575356
  74.7692719  27.6188965  15.9291286  73.8365707  27.4542294  15.7906590
  75.1702728  26.7498245  15.9172297  82.3037415  54.5001755   6.3922820
  82.8917236  54.3832245   7.1384983  82.4710312  55.3939705   6.0933185
  49.8755760   7.4198542  31.5595760  50.5765572   7.4327221  30.9078922
  49.1819191   6.8989315  31.1549568   9.5495930   1.2017597  50.2753410
  10.2814350   1.7736096  50.5069160   9.4161911   0.6573561  51.0512657
   1.3777403   1.0883490  84.8199463   1.7373325   0.2132930  84.9655609
   0.6436813   1.1503937  85.4311295  85.5154114  68.1965790  53.6068535
  85.8293610  67.3323288  53.3409004  86.3086243  68.6770248  53.8439751
   6.5156407  45.1908989   0.9283521   5.9605808  44.4115257   0.9016511
   6.2074738  45.7294998   0.1995342   0.9214676  20.2745438  18.7947235
   1.4739056  20.2581387  19.5762444   1.5366156  20.2014980  18.0650063
  15.6774092  39.6533890   9.0687790  14.8429842  39.8728790   8.6543036
  15.8758831  40.4086685   9.6223106  70.5540314  52.3279266  79.8570862
  70.3138199  53.1385231  79.4082413  71.4882278  52.4243546  80.0420532
   8.5257006   2.3092294   3.9761987   9.1906681   2.9891109   3.8675163
   8.9987459   1.5706306   4.3595161  77.8715134  52.6819839  50.1251335
  77.9843750  52.7388687  51.0739517  78.5442276  52.0633354  49.8405800
  60.5080299  61.2755966   8.9094610  60.3356476  60.9919777   9.8072796
  60.7747116  60.4775124   8.4532003  71.1108322  10.1509333  72.2882996
  72.0169296  10.2068892  71.9848557  70.7568283   9.3801785  71.8446198
  32.9643250  34.0922165  85.8329926  32.8485031  34.7460060  85.1435165
  32.9887886  34.6007195  86.6435776  45.9892960  60.9689217  17.9075489
  46.7810860  61.5040398  17.9618187  45.8412323  60.8547783  16.9687824
  16.1373653   4.1327615  14.3321543  16.0113430   4.8277068  14.9782200
  15.2621565   3.7692685  14.1975708  75.4828568  60.8040581  42.4764442
  75.9623337  59.9757957  42.4941635  74.5626755  60.5496445  42.5455284
  71.0927277  24.8789482  56.1251602  71.6215744  24.1084251  56.3321686
  71.6832352  25.6192608  56.2646866  23.7835655  64.1648941  78.6393585
  23.8654022  63.9868164  77.7024384  24.6334877  64.5272980  78.8894119
  75.5175934  37.7543068  66.0116196  76.3268738  37.5858040  65.5290222
  75.7131271  37.4842377  66.9088745   9.2491398   2.8723230  61.0605850
   8.5326433   2.2381303  61.0863609   8.8138981   3.7240715  61.0242348
  42.9128036  14.6569204  18.7469349  42.0275002  14.2946072  18.7815418
  43.3010254  14.4215631  19.5896225  10.1934958   6.7093191  85.5137787
   9.2395058   6.6656852  85.4487381  10.4460192   5.8697681  85.8979874
  10.1065006   6.8019857  51.1222458   9.6910582   6.7941747  51.9845543
  10.7306337   7.5265379  51.1636353  74.5918884  20.7788048  30.9020329
  73.8395386  20.6982155  31.4882965  74.6047516  21.7033768  30.6545830
  79.1731339   7.7602701  71.0904999  79.8494339   8.3815718  70.8206329
  79.6592026   6.9897790  71.3842926  48.5488014  14.6739635  24.3090420
  49.2960548  14.1887856  24.6589642  48.0204010  14.8873491  25.0781250
  28.1889420  15.1197901  79.2964783  28.7212944  15.5345097  78.6176300
  28.8232384  14.6820879  79.8642120  65.8711624  45.3477325  35.0911331
  65.9471512  44.7453537  34.3511314  64.9491806  45.6049271  35.0969009
   6.4287834  25.7840061  15.0734653   6.0746040  26.0160999  14.2150240
   5.9262238  26.3148670  15.6914062  69.8803406  33.5399475  42.3834991
  69.9613876  34.4800911  42.2228851  70.7692261  33.2558670  42.5965881
  62.7048225  49.0617714  28.4619675  61.9073372  48.5329819  28.4870167
  63.4055939  48.4307022  28.2979622   4.7402363  28.6726246  52.6602364
   4.6039824  29.6186752  52.6087151   5.6887965  28.5632515  52.5931358
  80.5780716  41.7987099  18.7104435  80.4114304  41.2992821  19.5098400
  80.0598602  42.5967827  18.8142319  35.8700829  38.6831627   9.3768015
  35.1985130  38.2020874   9.8603182  36.6581001  38.1467323   9.4634209
  24.5081215  14.6003761   0.5255530  24.4211617  14.2787237   1.4228879
  25.1465321  14.0127954   0.1213100  50.6670227   7.4569969  21.7605000
  51.2204552   7.5887604  22.5302963  49.8027306   7.7669363  22.0309963
  37.4571915  24.3589554  84.2442169  36.5304298  24.5803738  84.3354187
  37.9034882  25.2051048  84.2112579  52.8924217  70.0962448   6.5932374
  53.3831024  70.5107193   7.3029370  52.3724174  69.4187088   7.0254145
  24.3627625  44.4495316   4.0754309  23.9747467  44.4834404   3.2010593
  25.2305717  44.0698013   3.9378009  85.6708374   5.9008651  22.7414551
  85.0598068   6.0884199  22.0289288  86.5331345   5.9094491  22.3260021
  67.4796524  37.6896095  87.0196075  67.5039520  36.7832985  86.7126083
  68.3834076  37.8822174  87.2693100  80.8622971   7.1953421   7.8011827
  80.0962830   7.7522287   7.9402142  80.5143127   6.3036513   7.8065858
  42.5162888  54.7681160  36.5615120  41.6542358  54.3522720  36.5485382
  42.5051842  55.3657761  35.8139038  51.1117439  33.8202095  32.0275764
  51.1799927  33.6548653  32.9679146  51.8430748  34.4065895  31.8337994
  73.5115356  52.0017357  85.5377502  73.1218185  52.2694931  84.7054901
  72.7634125  51.8582993  86.1173859  30.7331600  63.3693924  59.9553490
  31.6435680  63.2873001  60.2393379  30.2967701  63.8211784  60.6776276
  13.8294935  30.1176720  11.6096334  14.4340057  30.4733505  10.9582596
  13.8685150  30.7387428  12.3369446  17.9157238  26.9438400  30.7156887
  18.4245224  26.3751049  31.2935257  17.0315018  26.9280090  31.0819263
  29.8613396  12.9347601  42.9539413  30.3803940  13.4033937  42.3003387
  28.9942532  12.8522654  42.5569649  77.7680511  44.8457375  41.8708458
  77.5097504  44.3740730  41.0789871  77.0981674  45.5212631  41.9765091
  51.9128342  36.0187950  15.7429943  51.7931061  35.5758362  14.9029436
  51.2087135  35.6791649  16.2953491  59.3513412  51.3027687  48.6338196
  58.4878197  50.9878044  48.3666878  59.2205963  52.2329445  48.8179626
  76.2531281  51.5690155  48.1640472  76.7825699  52.0460167  48.8031006
  75.7164001  50.9774551  48.6915092  79.6984406  57.7060089  22.4809322
  79.1738052  57.2328300  21.8351059  80.5495758  57.2683411  22.4651661
  59.1526985  41.2619514  10.9322090  58.4792175  40.5869865  10.8480778
  59.7326698  41.1160812  10.1848240  68.9683838  58.8354034  85.6400604
  68.7887650  59.1479645  84.7533417  69.7082672  59.3658714  85.9357224
  21.5540409  44.8254128  38.4097824  21.4459686  43.8744850  38.4268532
  22.3508511  44.9667702  37.8985634  48.4368324   3.6595471  86.9531326
  48.6796761   4.3307385  87.5909119  47.4959717   3.7802370  86.8248978
  24.0304508   6.5225296  19.5492058  23.5025921   7.1676846  20.0197086
  23.6890984   5.6765270  19.8390160  46.4251823  59.7870712  59.6740913
  46.5193138  59.4283333  60.5565186  45.5288582  59.5669098  59.4203949
  84.0550995  31.0538635  77.7335129  84.6737518  31.7734509  77.6082687
  84.3184433  30.3967228  77.0892715  24.8259430  20.4971409   2.3078396
  24.4796429  20.5073013   3.2001426  25.0373650  21.4121265   2.1225419
  36.5912476  60.2689781   8.0665731  37.0119972  60.8314743   7.4163432
  37.3107147  59.9590950   8.6166372  58.2161522  15.8110657  26.9353657
  57.7891922  15.6311588  27.7729626  58.8496399  16.5009670  27.1327534
  27.7671642  66.7296906  22.3533554  27.8679905  67.6037445  22.7303009
  26.9213543  66.4237366  22.6808224  41.3711472  48.1369781  70.5536728
  41.2843513  47.1953583  70.7021484  42.1728554  48.3796043  71.0169525
  58.0209579  15.6184473  36.6498795  58.1878090  14.9279737  36.0082893
  57.1044846  15.4980145  36.8984833  84.4777832  23.0070915  81.1109467
  84.4797516  22.4321117  80.3456802  83.7819595  22.6602802  81.6693192
  54.9869118   9.2577200  60.9876442  54.2160683   9.4074125  61.5350227
  55.7254639   9.5201311  61.5371094  31.2917213  64.7739334  15.3201752
  30.9601631  63.9898262  14.8825922  32.2041473  64.5674210  15.5228052
  65.3715515  35.7000275  69.0533829  65.8319016  36.4334412  68.6454468
  65.8039474  34.9211998  68.7031021  56.7649231  31.6772289  36.6799011
  56.1906586  32.2546158  36.1768379  56.1744270  31.0327110  37.0699577
  35.3299599   2.4552846  75.9343491  35.7373657   1.8171070  76.5199966
  36.0560837   2.8028207  75.4164658  60.0356789  22.3582439  76.7094269
  59.6362762  22.5644131  75.8643188  59.2938805  22.1846352  77.2889328
  25.3227749  40.5751801  31.3388672  25.6164608  41.3865547  30.9245567
  24.4192505  40.4678764  31.0416164  81.5794296  48.9372864  25.0018635
  82.2710266  49.4081383  24.5368614  81.1733932  49.5993347  25.5613785
  23.7931080  10.6116047  69.4548492  23.5699844  10.5475883  70.3834763
  24.5317554  11.2197809  69.4273758  57.9186859  52.2544174  82.4845352
  58.3520470  51.4105492  82.6122818  57.0220299  52.1114960  82.7875366
  67.4803696  10.8194637   2.3487475  66.6864700  11.2025318   2.7218609
  67.3738632   9.8767014   2.4755785  41.2317924  65.2969208  82.4722824
  40.8400917  64.6279297  83.0337601  42.1460609  65.3395081  82.7525253
  63.3068047  56.4569550  26.3603878  62.5120468  56.9836159  26.2754135
  63.0925102  55.8060951  27.0287380  26.8237209  44.0594139   3.7734559
  26.9802399  44.0232964   4.7170815  27.5313053  43.5388641   3.3932083
  82.9249344  41.3286743  35.9176598  83.8651810  41.5018120  35.9644661
  82.8079529  40.5096550  36.3990707  38.9791107   6.2285557  46.6206436
  38.2086868   5.6698618  46.7233276  38.6942711   7.0885115  46.9297943
  74.2094193   6.6926174  32.6096268  73.6547089   7.4716535  32.6500168
  74.8825989   6.9110770  31.9651566  68.0857849  28.2165031  56.4051628
  67.6235046  27.4211502  56.1407013  68.9982147  28.0540161  56.1657906
  21.2086220  24.5356960  15.8435068  21.4514275  25.3752136  16.2340031
  20.7721539  24.0600929  16.5502815  33.1524925   1.2728575  49.5544891
  32.8166809   1.2372144  48.6588402  33.6007690   2.1168547  49.6087990
  31.6296883  35.2411880  20.7464046  31.4737358  36.0090942  20.1966534
  31.5260315  34.4970207  20.1533585  18.4834862   2.8610437   3.8559852
  19.1659794   2.2324660   3.6207771  17.7553520   2.6544514   3.2700045
  12.6651669  42.9188156  68.3390503  12.8849611  42.3279457  69.0593262
  13.4663811  42.9694214  67.8177719   9.1621914  71.0708313   1.2314371
   9.9997168  71.2948303   0.8257188   8.6755400  71.8949432   1.2469096
   1.3523893  69.8520660  84.8821869   1.1714424  69.6523361  85.8006592
   0.4944727  69.8281097  84.4583511  50.4857254  68.5395126   2.9886277
  50.2790337  67.9452133   3.7099645  50.6826019  69.3738022   3.4145684
  84.2454529  69.1745682   7.7153611  85.0122452  69.0791779   8.2803030
  84.5694580  69.6493073   6.9499364  43.5519218   4.8875136  58.0309143
  43.1968803   4.0868340  58.4170341  42.7924042   5.3252883  57.6465683
  14.3855772  33.1409988  23.0987434  14.5936890  32.8279800  22.2184372
  13.4649935  33.3986320  23.0499325   0.7195125  31.7777405  83.8436279
   0.7065162  31.1934757  83.0855408  -0.1016940  31.5956554  84.3004608
  74.5853577  54.5842438  79.8504639  75.5338440  54.4728241  79.9152679
  74.4624405  55.5259743  79.7310104  77.6114807  40.4288979  19.9776211
  78.0487289  41.1004715  20.5011024  78.2166290  39.6873055  19.9855900
  51.4047508  53.3352127  83.3609848  50.6864319  52.9910393  83.8918381
  52.1187210  52.7109489  83.4904785  59.3755722  66.6272354  10.5007477
  59.3854904  67.5072021  10.1241961  60.1301155  66.6101227  11.0894785
   8.2361259  65.8936844  64.7514725   8.1156130  65.0817032  65.2438126
   7.8794398  65.7029495  63.8839340  79.4141159  69.4702301  88.4288177
  79.5819550  70.2636414  88.9373093  78.9720840  68.8822556  89.0412903
  77.2519226  18.1503029  36.5109100  76.4355240  18.1273594  37.0101089
  77.5080109  19.0726070  36.5128555  67.6947021   9.4771395  42.6781921
  67.4794235  10.1265011  42.0087013  67.6101990   9.9497986  43.5062523
  30.2796135  63.3799248  46.0012093  30.2897606  63.8794632  46.8176575
  30.6684093  62.5361862  46.2318115  51.5455666  17.8491821  76.6616898
  51.2020531  17.5031509  77.4853973  52.2265625  17.2270088  76.4059906
  81.3100739   3.1909597  25.4933395  82.0825500   3.6822305  25.7729206
  81.6383209   2.3096702  25.3149662  15.0442562  64.4503174  48.5193405
  15.9022579  64.8392639  48.3496742  14.7718630  64.0930634  47.6741142
   7.5769782  43.9417381   7.2721710   7.8319073  43.5570374   8.1107693
   7.0694089  44.7179108   7.5091500  27.3351574   2.0306962  13.2003889
  28.1657372   1.5603297  13.2719746  27.3743172   2.6923552  13.8909721
  73.2300873  22.2146301  10.1174421  72.9234848  21.3341808  10.3343153
  74.0432587  22.3138065  10.6125669  55.3528786  -0.3071188  71.7234344
  54.4464989  -0.1027950  71.9535751  55.6538887   0.4580522  71.2333984
  64.9144821  28.1381931  58.6752281  65.5110703  27.4272327  58.4410362
  64.4149933  27.7971363  59.4171295  68.5519257  66.1535492  45.9976501
  68.9276886  65.6078644  46.6884880  68.6323776  65.6244125  45.2040672
  56.0262642  71.2142258  25.4608231  55.1490288  71.3104630  25.0901184
  55.8814201  70.8137131  26.3180542  55.0938988  66.7068176  44.3619576
  54.1406975  66.7584000  44.2913933  55.2645416  65.8102112  44.6504173
  83.2879410  25.7187176  25.9795055  82.9830551  26.6004200  26.1937008
  82.5182114  25.1629295  26.1013451  22.2294083   9.9200487  87.0564499
  21.9496269  10.4227524  86.2914429  23.0709248  10.3049326  87.3012924
   9.6428566  40.0634117   8.6927834  10.5254374  40.4162064   8.8060026
   9.7086267  39.4953766   7.9251623  45.5781784   6.2520695  23.2426796
  45.9892082   6.0297985  22.4072857  45.0023499   6.9887328  23.0377941
  69.0308304  23.9533997  41.6846695  68.5326233  23.2774544  42.1441422
  68.3978806  24.3540268  41.0887680  60.1879921  47.2244949  56.6349716
  60.5082970  47.6699944  55.8506470  60.9774055  46.8858185  57.0572891
  17.5896473  48.1087837  53.2951088  17.0556107  48.7662315  52.8492393
  18.4922905  48.3801460  53.1282921  41.7077827  16.6108437  24.0238190
  41.8016129  17.3773499  24.5894127  41.6705704  16.9703293  23.1374683
  12.7995682   7.1001344  74.3933334  12.9062300   6.4628587  75.0995483
  13.2775049   7.8730597  74.6939926  41.1400185  66.8057861  19.6880856
  41.5996056  67.1340714  20.4608955  40.3033447  67.2707520  19.6914787
  11.8253031  36.5318451  40.0846786  12.1215057  35.8446503  39.4878044
  12.4252176  36.4778976  40.8286018  48.6110153  71.3726807  34.6363258
  49.2273979  70.7639847  34.2291527  48.5923119  71.1140289  35.5577278
  23.5291843  59.6557922  41.9599152  24.2009830  59.4413490  42.6071625
  22.7145271  59.6867523  42.4615211  13.9131546  67.8038864  69.8293915
  13.5834875  68.2488708  69.0486603  13.2324286  67.1673355  70.0476685
  68.2831497  13.8228369  83.8121185  68.1893539  13.3719988  82.9729614
  67.5954437  13.4489708  84.3630447  18.6843319  54.7282715  46.3847084
  18.1883259  55.3404961  45.8412094  19.4054890  55.2502670  46.7363968
  45.8253021  26.9109154  24.9256630  46.0801582  26.5152397  25.7591629
  46.3532944  27.7071781  24.8671627   6.2913637  64.1704636  12.3055611
   6.4339590  64.1754990  13.2520676   6.5315237  65.0527420  12.0224695
  76.6779099  51.1379814  33.1544418  76.6657028  52.0350418  32.8207245
  76.0730438  51.1501350  33.8962173   7.8151608  58.0259476  30.5890865
   8.2687092  58.0455360  29.7463875   8.4646597  58.3403244  31.2180138
  27.3943806   3.5888798  10.1674099  27.7706280   2.8412349  10.6318417
  27.3919067   4.2954264  10.8131790  21.0256252  70.4267883  35.3610840
  20.5403595  70.4794540  34.5376892  20.4344273  69.9689331  35.9586487
  41.1650047  55.1097679  29.4422035  41.6351357  55.9252319  29.6160679
  41.4232483  54.8694649  28.5523739  31.3032570  64.0789642  57.2576332
  30.8241978  63.9465141  56.4395905  31.3583736  63.2062340  57.6469154
  69.4613953  40.3042221   1.6504079  69.2098236  40.4084015   2.5680637
  68.8211441  39.6877556   1.2950404   2.5997062  63.6985817  24.1145020
   3.4953516  63.3927231  23.9713192   2.4980524  63.7049179  25.0662670
  40.5061607  34.1325645   7.8733726  41.2288284  34.1289673   7.2457032
  40.5635071  34.9876366   8.2997503  78.9411392  42.3087044  38.0994110
  78.0358353  42.5393562  38.3078613  79.3633423  43.1459007  37.9068565
  86.2359772   6.0402789  65.4147720  86.9483566   5.7780313  65.9978485
  85.6623306   5.2748857  65.3781967   5.9133229   0.3030696  10.4731789
   5.1185546  -0.2207598  10.5740671   5.6465235   1.1912093  10.7103662
  49.1516838  16.6791725  13.8757858  48.8612480  17.5347233  13.5596981
  50.1073380  16.7331219  13.8690157  12.2537346  -0.1576289  30.1401081
  13.0860586  -0.0577020  30.6021519  11.6953001   0.5309718  30.5009575
   1.5674914  29.9143543  81.6349487   2.3227117  29.4392414  81.2883301
   0.8094248  29.4249001  81.3155670  17.6809750   3.9194560  85.0758133
  16.9969006   3.9931180  84.4103470  17.3328800   4.3940444  85.8306885
  81.5607147  12.3782978  56.2745171  80.7405014  12.0027428  56.5945854
  81.4868774  12.3374109  55.3210449  55.9667091   6.6686206  76.4331589
  56.1450310   7.0356817  77.2990112  56.4554558   7.2288294  75.8302307
  31.1635990  11.1575699  66.0616608  32.0357056  10.9195852  65.7469864
  31.0757465  10.6961632  66.8956985   6.5412588  21.2211895  82.7921371
   6.9373837  20.8252087  82.0159149   5.8593683  20.6029530  83.0548935
  68.4313049  45.1070938  59.3745422  67.9936676  45.4231911  60.1649818
  68.7325668  44.2277184  59.6029587  58.6285858   8.9339132  82.7863235
  59.1406784   9.3598356  82.0988770  58.0144119   9.6070700  83.0793762
  23.2326450  41.1895409  63.7497025  23.1865559  42.0819817  64.0927124
  23.8496761  41.2449684  63.0200233  69.0962067  38.3205414  82.7523804
  69.2832336  38.2357483  83.6872940  68.2252274  37.9378395  82.6466827
  14.9449158   6.3838420  20.9922886  15.1051493   7.2974644  21.2286167
  15.1723385   5.8893452  21.7796803  50.8390884  20.5330391  87.9263687
  50.1560745  21.1887264  88.0670776  51.1464806  20.6950016  87.0344543
  49.1710777  54.8576698  78.2142944  48.2846146  54.6471367  77.9208832
  49.4766121  54.0594749  78.6453018  22.5297718  17.8314114  83.2693481
  23.4772091  17.7277374  83.1807632  22.3598881  18.7304859  82.9882202
   4.9520907  39.3216362  66.3784790   4.8219352  40.0658875  66.9661713
   5.5375905  38.7364693  66.8591003  74.5800171  68.7598495  32.7245178
  73.8662643  68.3690033  33.2285271  74.1997223  68.9295197  31.8626518
  63.4220314  37.5928230   9.4985304  63.6899910  37.8387146  10.3839493
  62.4653778  37.5879097   9.5304842  28.1816826  49.3127365  36.6285591
  28.1039505  49.6439896  35.7338753  28.7322273  48.5338058  36.5485764
  55.1639519  66.0373001  80.7176666  55.2807579  65.0934906  80.8263168
  54.5270805  66.1196823  80.0078506  83.5124588  23.5105820  24.2747135
  83.5295563  23.9493999  25.1252289  84.0176086  24.0845604  23.6988640
   4.8932137  22.6451511  56.1967812   4.5430923  22.6151962  57.0871468
   4.1455927  22.4324989  55.6381454  29.3296986  33.2200356  53.5668640
  29.8948898  33.3894005  52.8131332  29.3699532  32.2713928  53.6880569
  22.8116856  40.9422150  80.8895493  22.7509842  41.8670692  80.6503983
  23.6577034  40.8638496  81.3303986  74.8867950   3.2615719  52.0125809
  74.4043808   3.1721659  52.8344803  75.7605591   3.5487330  52.2777367
  85.0984497   0.5499013  59.2556343  85.7573013  -0.1386331  59.3454475
  84.5135345   0.2333737  58.5672188  80.4717407   2.6472580  79.6670456
  79.8862762   3.3173320  80.0198364  80.5320358   2.8493731  78.7333755
  20.4357376  32.7676659  32.6516609  19.8996353  33.4522629  32.2514687
  20.2820187  31.9947739  32.1083031   0.6204205  26.3068943  53.4479027
   1.0559969  26.4454498  52.6068878   1.3318291  26.1051922  54.0557251
  38.1053047  18.4423275  86.3986130  37.5253830  17.8982735  85.8657684
  37.8896713  18.2091885  87.3015976  21.6862068  16.1035480   5.1117682
  21.2081223  15.2859249   5.2501845  21.1866055  16.7585869   5.5991645
   9.1822386   8.6660624  39.5419464   9.3807268   8.0368242  40.2354126
   9.3784847   9.5191317  39.9292336  77.9019928  25.2459049  66.2456512
  78.7754822  24.8799381  66.3846588  77.9162750  26.0828152  66.7099838
  58.1420593   8.0629902  60.6523018  57.9865532   7.1318989  60.8107948
  57.7280350   8.5045843  61.3937912  64.0928345  63.0267944  20.7708740
  64.5597839  62.5175362  21.4333324  63.8564796  63.8401909  21.2166882
  17.3088551  21.2402248  83.9712677  16.9406147  21.7635632  83.2594070
  16.7432060  20.4695377  84.0193481   4.3269687   8.7218618  81.4973526
   3.9298866   9.4630966  81.0400467   5.0262251   9.1111298  82.0224609
  18.5815678   9.8881979  37.6872520  18.7124386   8.9474068  37.8056412
  19.3161392  10.2922039  38.1492233  67.8604355  55.1470070  87.0097351
  68.4997711  55.5434570  87.6016083  67.5682068  55.8695526  86.4540710
  67.7588654  24.2731419  73.1264877  68.2655182  24.5457630  73.8914795
  67.2685394  23.5070076  73.4245682  12.7079878  16.5960999   7.2076392
  11.9109306  16.9788818   6.8410220  13.1484118  16.1960850   6.4578080
  32.2209244  65.6556244  65.5889969  31.9158649  66.2499161  64.9034424
  33.0664406  66.0145340  65.8582993  22.4754982  30.6650028   7.9068441
  21.8128052  31.1811676   8.3658037  22.0994110  29.7864704   7.8523259
  71.7179947  26.6906109   0.5786531  71.7246780  25.7370243   0.4958335
  72.3281631  26.9937019  -0.0937062  52.3048210  69.0800552  84.5577469
  52.6788483  68.4558563  83.9358902  52.6023331  69.9351501  84.2470398
  31.1271744  55.0518227  62.0113525  31.4556541  54.2654419  62.4471703
  30.5205879  55.4395866  62.6421623  59.5383873  19.9739666   3.9841266
  58.8925285  19.3727779   3.6130874  59.1386261  20.8392086   3.8959339
  65.6143341   9.2435360  -0.0889859  66.2244720   8.6272907   0.3162363
  64.8342438   9.2071810   0.4645271   2.1334646   1.0414137  39.9717560
   2.8502483   1.2368513  40.5752945   1.8914399   1.8914001  39.6040878
  15.5355320  50.2683640  84.9836578  16.2857933  50.1041031  85.5549316
  14.9290800  50.7744598  85.5243149  84.5794907   3.2248783  77.0219574
  85.2450027   3.8638227  76.7668533  84.8891602   2.3969207  76.6547775
  10.3578005  38.2213326   6.6514950  10.4213333  38.0615730   5.7098627
  10.9257793  37.5592918   7.0456138   4.7203960  29.7332821  49.0422134
   4.5357013  30.6717148  49.0039558   5.6597800  29.6810474  49.2184563
  10.4716158  68.1139374  29.8449955  10.7209311  69.0366287  29.7929363
  10.5233870  67.9040909  30.7774734  29.3423691  18.9824371  86.1116028
  28.9460545  18.3647041  85.4971313  30.2164536  19.1453915  85.7571259
   1.6810876  67.0016785  77.4463120   1.3704504  66.1398926  77.7239304
   1.1927962  67.6191406  77.9908676  38.2435303  57.1862106  67.8480682
  38.4196854  57.7449799  67.0911179  38.1788559  57.7941017  68.5846252
  53.3482819  25.3685894  68.5223541  53.9659500  24.6437893  68.6192169
  52.6312103  25.1535263  69.1188354  28.8743896   5.5916495  52.8224754
  29.5683746   6.2062016  53.0611038  28.4602757   5.3631039  53.6546478
  70.3985596  65.8582764  14.1350231  69.6367645  66.4378204  14.1295681
  71.1317139  66.4241333  13.8931198  76.3165131  67.7406082  67.8839951
  76.1007538  67.1774673  68.6273346  77.2394104  67.5593338  67.7061310
  71.7893600   6.5130773  39.6177025  72.7402496   6.5061669  39.7271729
  71.4773026   7.1366720  40.2734337   3.5946074   4.9155846  15.1566753
   4.1636224   5.6798377  15.2481680   4.1369443   4.1782770  15.4368191
  56.4089165  67.8214035  68.4581375  56.7036057  67.9666138  67.5590820
  56.6838684  66.9267578  68.6587601   9.9214001  45.8594170  65.5032806
   9.8885326  45.0279884  65.9764328  10.7966404  45.8803406  65.1163025
  17.0286217  56.7820015  83.5047684  17.5124111  55.9913940  83.2657700
  16.6189232  57.0680809  82.6883545  59.2153740  51.4391022  57.5266800
  59.7433624  51.5488586  56.7358513  58.8447609  52.3064919  57.6895256
  42.8686981  15.9184561   6.6510901  43.4106827  16.4011002   7.2752228
  43.4193726  15.1873579   6.3709340  68.4611969   9.4185762  26.4333115
  69.1381149   8.8840828  26.8484402  68.8490219   9.6933708  25.6024609
   2.1896350  20.4382668  61.1255341   2.0338597  19.5696735  61.4963608
   3.0533569  20.3733654  60.7180977  69.4774704  12.0939941  32.0930061
  69.9537735  11.8234940  32.8779907  69.6615067  11.4068832  31.4525070
  24.2256393  52.9754028  11.4204197  24.1766682  53.8269539  11.8548059
  24.7377510  53.1395569  10.6285696  60.2011375  61.2220535  82.6695709
  59.3759880  61.3551521  82.2030487  60.8530235  61.1137085  81.9770889
  24.4240036  55.6681709  38.7678452  24.4711895  56.1108437  39.6152229
  25.2845440  55.2628136  38.6611328  53.9530602  61.6608849  86.6266251
  54.0335579  60.7076302  86.5940247  54.0757790  61.8801689  87.5502472
  22.9021130   4.3249135  25.3255119  22.3893185   4.9774919  25.8023949
  23.8080368   4.4986796  25.5811234  37.4433327  50.1445045  28.5138245
  38.1941261  50.5639877  28.9340305  36.9802132  49.7096405  29.2298183
   8.5325899  49.6950226  37.2658272   7.6557555  49.7008629  37.6497002
   8.8712568  48.8200569  37.4554863   1.2254564  45.8965187  64.2480850
   0.6925855  46.2502937  63.5359612   2.1193464  46.1634521  64.0337524
  10.6090984   9.3440285  67.9505692  11.5520582   9.4961128  68.0132523
  10.3177395   9.9307289  67.2526245  83.4567108   0.7025903  22.0546627
  83.7710190   1.6029894  22.1366615  84.0675278   0.1868087  22.5810738
  66.3665848   2.3678281  65.8531647  65.8638763   1.8358091  66.4699783
  65.7038193   2.8080087  65.3209839  72.5324326  18.9858208  26.1536217
  72.0648956  18.2346420  25.7884121  73.4565887  18.7922077  25.9965267
  70.7974472  35.2699089   1.3928782  69.8585815  35.2673721   1.5793275
  71.0821228  36.1579132   1.6088409  70.2082062  34.2696571  32.2761269
  70.4065475  34.7081337  31.4487019  69.2818680  34.4555702  32.4296722
  75.6782761   0.6945139  42.3944054  75.0812988   1.2548062  42.8903084
  75.3882675  -0.1965396  42.5897293  55.6073494  20.8207932  26.3278084
  54.9433441  21.3068085  26.8168068  56.3995285  20.8961239  26.8597927
  78.7268372  13.4322510  74.1085510  78.7859650  13.7581692  75.0066071
  79.3815002  12.7354145  74.0630569   8.3504210  18.0896931  37.2386169
   8.3470812  18.5297356  36.3885689   9.0141306  17.4054890  37.1515236
  61.4229851  48.7394714  77.1002731  60.7916031  49.4585266  77.1236725
  61.5647659  48.5754662  76.1679459  69.2072906  26.5227909  52.8447838
  68.4385147  26.3950806  53.4005699  69.7312393  25.7324467  52.9754181
  20.5646534  41.5975494  21.2964325  19.9921703  42.2601357  20.9098110
  19.9728260  40.8910599  21.5549793  36.5522804  10.4064598  17.0172901
  35.7604942  10.1218004  17.4736652  36.7440834   9.6963387  16.4047775
  75.3050766  51.3708420  59.5733643  75.1015625  52.3052254  59.6150436
  76.0403824  51.2587624  60.1758652  68.9515610  59.1465530  77.2239075
  68.6049118  58.2562447  77.1654434  68.2164078  59.6692657  77.5441589
  33.5877953  70.2248459  49.6092453  33.6426735  69.9623413  50.5281067
  33.7946014  71.1594238  49.6143837  50.5816460  18.7916336  10.0168381
  49.9888992  19.0911865  10.7061501  50.6491470  17.8465729  10.1529837
   4.8963046  27.1185894   4.3167138   4.5229125  26.2940025   4.0054808
   5.3691311  27.4676762   3.5611970  20.9685688  10.8643894  38.2469330
  21.0768623  11.1666374  37.3451805  21.4030437  11.5323925  38.7772484
  45.0938950  68.1354752  29.8043499  45.7467194  68.8083267  29.6111698
  45.2252464  67.9332504  30.7306786  24.2256050  53.0693893  33.6926193
  23.8326187  53.1477432  32.8233337  23.4912529  52.8588486  34.2693634
  85.4255066  56.6305847  51.8733597  86.1153717  57.1473198  51.4570580
  85.6333694  56.6617393  52.8071976  56.0480156  56.3221588  10.7634363
  56.1879082  56.3226242   9.8165140  55.1489639  56.6319275  10.8728800
  60.6561699  40.0543900  83.3211594  60.0529938  39.5430374  82.7817764
  61.1927376  39.3992043  83.7673187  31.7939911  66.5908966  19.4130077
  30.8664036  66.3589554  19.3681087  32.2496643  65.7499084  19.4495430
  39.0737267   9.5093431   8.7427139  39.9742661   9.6395578   8.4455519
  38.9402237  10.1862125   9.4062319  64.5734863  66.6259689  39.1214752
  64.6679840  66.1381454  39.9395981  63.8881760  66.1599426  38.6425209
  85.9506912  61.8913689  42.5025978  85.4328918  61.8402443  41.6991653
  86.8375244  62.0922775  42.2036133  85.7241974  47.4494972  65.3634415
  86.4167633  46.7943268  65.2777557  85.9606476  48.1315727  64.7348785
  57.6288185  40.2530365  32.7335510  58.2170105  40.9784355  32.5236435
  58.1799507  39.4727287  32.6735039  85.4782333   8.0380220  51.4718933
  85.4492874   8.9037390  51.0645523  86.4061432   7.8030453  51.4693756
  47.7074013  52.7933121  80.3690567  47.2657356  53.6421661  80.3443680
  48.5804558  52.9874077  80.7101364  81.5435638  27.4397278  35.3690872
  82.4960709  27.5343533  35.3732567  81.2464905  27.9748650  36.1050224
  64.3786469  34.5005188  39.3062515  65.2789764  34.4375267  39.6251144
  64.2655258  35.4259644  39.0894890  63.6969719  21.2810555  59.1656990
  63.2631912  20.4953480  58.8329353  64.1771698  21.6264572  58.4131432
   8.2486820  36.9978638  18.3392181   8.3696280  37.9356041  18.4883652
   7.3080168  36.8575134  18.4473038  62.0067635  49.8188782  14.0805893
  61.9071579  49.5860062  13.1575079  61.2626762  50.3922043  14.2646112
  82.9026947  58.4195824  52.9710159  82.1239395  58.5853043  53.5023460
  83.6361771  58.6291542  53.5492134  53.3636360  13.9297342  13.3943253
  53.3797722  14.8770094  13.5308590  53.5884209  13.5607729  14.2484751
  25.8116875  10.3332806  28.0673828  26.1929016  10.6313562  27.2415142
  25.9970589   9.3945179  28.0917263   5.3771982  30.3082371  15.0870361
   5.6196404  30.3678265  16.0111046   6.2033820  30.4139442  14.6153593
  16.1253395  60.6682091   8.0887709  15.4476490  61.3409767   8.1547289
  16.9028072  61.0728722   8.4735079   2.6739647  14.1605577  19.8960075
   2.9369974  13.5216846  19.2335243   1.7379004  14.0043907  20.0210171
  65.1213226  37.4624329  30.7428970  64.9663773  36.5344276  30.5667419
  65.1559296  37.8681374  29.8766193  12.0201187  42.8941307  74.2088013
  11.4462118  43.2334099  73.5219574  11.6085482  43.1760216  75.0257339
  17.5735512  47.3536720  23.6083927  17.0487232  46.5655022  23.7483177
  18.4793892  47.0568008  23.6953392  73.9837875  18.2611217  65.7980804
  73.8970413  17.9638691  66.7038116  73.2009964  18.7898808  65.6435242
  32.9076347  69.1166077  69.1442947  33.3687820  68.2893677  69.2830276
  32.5563469  69.0490265  68.2564545   2.9415329  35.8051758  15.7319813
   3.6605167  35.2154083  15.9588528   3.3536611  36.6653442  15.6514244
  53.9789848  58.5345879  52.8544197  53.7893791  59.4583549  53.0185356
  54.9001503  58.4329338  53.0939064  38.3017044  31.4924412  81.1041489
  38.7099838  31.2010040  81.9193802  38.9115028  32.1389809  80.7486649
  60.0386047   0.7473834  62.5553818  59.6387062   1.1541697  63.3240433
  60.1356850  -0.1741565  62.7953224   1.9568696  31.1874218  42.4568405
   1.7219615  30.5898170  41.7469673   2.6518748  31.7337914  42.0898514
  65.3831177  59.1919632  61.3271370  65.2645340  58.3395004  61.7460327
  66.1791229  59.5453339  61.7242889  71.9043121   6.6948128  21.7205791
  72.5003891   6.9576712  21.0192757  72.0655899   5.7580748  21.8334637
  26.9524956  47.7800865   5.9076886  26.3718357  48.3908958   5.4538436
  26.3662319  47.1136284   6.2659674   3.8950279  15.1592989   9.3196983
   4.4817719  15.7994642   8.9170179   4.2753592  14.9954100  10.1826706
  50.8387680  52.4627228  70.0341110  50.9576721  52.4511642  69.0843964
  51.4534798  51.8055687  70.3604660  43.3711815  57.1475754  25.2601891
  42.8226662  56.9979401  24.4901428  42.9158936  57.8331451  25.7490025
  41.9061279  57.6673241  74.0897141  42.3515854  57.6247330  73.2435532
  41.8532906  58.6027412  74.2857590  66.9606018  24.7175179  82.2930374
  66.9686127  24.7511501  81.3364563  67.5578308  25.4154320  82.5622406
  77.6626434  68.2112045  81.6944046  76.8480988  68.6053467  81.3823242
  77.9588470  68.7947617  82.3929367  55.4504051  41.7053032  83.0276108
  56.2310715  42.0324860  83.4745331  54.8488007  41.4735680  83.7351456
  25.9344540  64.0834274  73.2571411  26.2322712  64.1596069  74.1636429
  26.2753277  64.8673096  72.8263702  71.7829742  24.0826817  39.6960678
  71.4913177  24.7920227  40.2687798  72.4980164  24.4645061  39.1869888
  20.8794937  38.6900940  85.2521210  20.4520340  39.3414879  84.6960678
  20.9894009  39.1299095  86.0951614  33.1933899  10.3939695  47.7591782
  32.3982964  10.9267616  47.7729187  33.8455429  10.9479504  47.3301811
  51.3920746  55.2433662  48.6020889  51.6855965  54.6013260  47.9556694
  51.6913643  54.8926888  49.4409485  38.3564301  18.2132683  80.3802109
  38.6392899  18.0408554  81.2782593  39.0620766  18.7390728  80.0036087
  13.7849932  19.5016270  52.4807205  13.0576658  19.0999470  52.9559860
  14.1867208  20.0954094  53.1149673  72.3086929  65.0069580  58.2480392
  72.1940918  65.9488068  58.1214600  73.1749573  64.8203049  57.8861427
  75.2545624  64.2213974  67.8008499  76.0969467  64.5923309  68.0636063
  74.6038132  64.7806168  68.2251587  35.3392868   0.2572837  63.0799828
  36.0454330  -0.0447145  63.6512871  35.7827301   0.7581248  62.3953323
  16.7455349  49.9637260  49.3966026  16.4326763  49.2042427  48.9051361
  16.3233109  50.7122650  48.9751167  39.1860237  43.1933517  15.1588812
  39.8935928  42.5530777  15.0838633  38.3994217  42.7122536  14.9019070
  16.6013927  64.5723419  11.3298702  16.4845829  65.3512268  11.8738565
  16.4980812  63.8389740  11.9362822  55.4159355  33.1583252  72.9532547
  54.8560944  32.6226997  73.5153198  55.6128006  33.9330864  73.4797745
  49.2297745  58.5883141  87.2238846  48.7476883  58.7205315  88.0401840
  49.7862778  57.8284874  87.3947525   6.1188283  11.3368406  50.6278419
   6.1325622  12.2620296  50.3827515   6.6809788  11.2854786  51.4008751
  40.1876869   8.2434568  76.3013535  39.4157486   7.7731795  75.9864197
  40.1693611   8.1250677  77.2510300  69.2405930  58.1798019  38.8453674
  69.0723953  59.1191483  38.9199867  69.9625931  58.1146660  38.2203026
  25.6222401  47.3480225  71.8424072  25.9685421  48.1792297  71.5177536
  24.7512264  47.2821999  71.4509583   1.5700887  10.8801117  14.4877958
   0.8755844  11.5382442  14.5153208   1.9823971  11.0026188  13.6326790
  10.2482462  65.5626297  31.4181824   9.8649063  65.3333893  30.5715847
   9.5326509  65.4492188  32.0437164   4.7513661  44.8598328  66.9080505
   3.8723328  44.6814651  67.2422867   4.7981462  45.8143921  66.8545685
  15.9396181  34.7176018  79.4330215  16.1412430  33.9256821  78.9345779
  15.5863018  35.3257828  78.7837753  13.8912001  70.5005112  42.3826332
  13.3290663  70.2117386  41.6637115  14.6446619  69.9110947  42.3491364
   9.4581518  30.9794559  11.7186480  10.0903797  31.5576687  12.1454849
   8.9053812  30.6606731  12.4321280  12.5513248  49.8315315  13.2192488
  12.8418398  50.0483932  14.1051397  13.2562408  49.2918320  12.8614073
  33.6570625  70.3255310  74.7921448  33.8465271  69.4842453  74.3767319
  33.7306099  70.9645996  74.0833359  17.1695614  15.6215487  22.2300777
  17.5820942  15.7722101  23.0805779  17.2070255  16.4716663  21.7917519
  27.0222359  66.8803711  35.0566635  26.6458683  66.6604080  35.9088326
  27.5674839  66.1259003  34.8337021  68.4288254  58.8245621   0.9729681
  68.7062683  59.7238121   1.1479214  68.2699356  58.4500656   1.8394192
  31.1161404  66.7819443  43.2322731  31.9274101  67.2532806  43.4217949
  30.5869350  67.4060974  42.7356720  74.4961014  36.2455559  47.3755188
  74.6118317  35.7663078  48.1959839  75.0435791  35.7772331  46.7453079
  53.7140884  65.0060272   3.4958963  53.2479134  64.8792419   4.3222356
  53.9635658  65.9301300   3.5009849  78.4384613   4.3282609  87.3923874
  78.9234085   4.5311618  88.1923218  78.1711884   3.4153786  87.4993668
  33.9041290  10.3192549  65.5102997  34.7412643  10.4581795  65.0674286
  34.1286736   9.8209009  66.2960815  42.5324211  51.8474541  87.5431442
  42.0866776  52.3986740  86.8999481  42.7727242  51.0586586  87.0570450
  85.6508331  52.5600815  55.0939941  85.8327866  51.8412590  55.6993217
  86.4530334  52.6487083  54.5793648   3.9797852  14.3000488  63.9600639
   3.9211533  13.5774488  63.3350487   3.5077579  13.9878826  64.7320557
  34.4607391   0.6011431  84.5341644  34.3146667  -0.2566621  84.9329910
  35.1083336   1.0212802  85.1001511   3.5910320  22.7898960  66.1955872
   2.9365535  22.4435863  66.8021851   3.1374454  23.4919052  65.7290344
  13.4091196  26.0793877  76.1999435  13.5050907  26.7975712  75.5744629
  12.7267551  26.3758698  76.8022003  41.5741653  12.4917831  41.8667870
  41.1678886  13.3559237  41.9333496  42.4045105  12.6514254  41.4181519
  42.6109962  58.0208015  79.1512756  42.1801186  57.2036629  79.4019928
  42.2345009  58.2382469  78.2985153  19.7828884  33.1459770  80.5946884
  20.5575409  33.7066460  80.5523300  19.7616196  32.8348236  81.4996567
  19.4440498  13.1938677  27.9116745  19.5196133  13.0479288  28.8546619
  18.5809727  12.8480616  27.6841965   1.0957404  68.7271881  87.2111664
   1.9671655  68.3337784  87.1655655   0.6945715  68.3316269  87.9850006
   4.0819473  29.6032581  34.1715431   4.6928868  29.7397423  34.8956680
   4.4710140  30.0781860  33.4371681  41.1508293  69.2909470  75.1711121
  41.4537849  70.1989365  75.1735840  41.0181961  69.0801926  76.0953522
  73.6389694  50.0929337  14.1839828  73.8313065  50.9156265  13.7340794
  74.0974350  49.4269142  13.6716728  10.7740631  33.1634254  64.4048767
  10.3114185  33.0707588  63.5720444  11.2581358  32.3434410  64.5024872
  55.1594505  44.9031754  40.5642509  55.6187782  44.1406708  40.2123528
  54.5940933  45.1935844  39.8485222  32.1659126  68.6960602  76.5640030
  32.6083336  68.1475143  77.2117691  32.8701439  69.1991730  76.1551437
   7.7592835  57.5009613   1.7243713   7.9779100  57.2466011   0.8278586
   7.1030817  58.1906242   1.6243994   0.1675817  57.6425476  43.8636322
   0.6660362  58.2175179  44.4443092  -0.6574240  57.4927559  44.3253250
  81.3929596  68.4462814  53.7746811  81.3868484  69.2362366  53.2341576
  80.4932175  68.3656769  54.0912094  67.3829956  40.4176903  63.0009232
  67.6489029  40.9020004  63.7825661  68.2065506  40.1451836  62.5962944
  53.7579918  53.9076004   0.0301102  53.7491837  53.4591675   0.8757228
  52.9332733  53.6537933  -0.3841942  37.6779099  10.9265842  68.5372391
  38.5192375  10.7725391  68.1074982  37.4021988  10.0617352  68.8409653
   3.1699345  14.3422108  14.3765097   2.8452995  13.5811443  14.8577805
   3.7448606  14.7904615  14.9968023   2.7361212  26.6182613  27.5667076
   3.1705196  25.9622974  27.0215092   3.4064722  26.8909969  28.1931877
  80.7322769  53.9001389  34.6885529  81.4471817  53.5249367  35.2027245
  80.8162842  53.4909744  33.8272972  15.6151924  18.7764015   5.9599304
  15.0196619  19.0793228   6.6453600  15.7475891  17.8478279   6.1508617
  45.9239655  14.5121098   9.6562948  45.5222702  13.7743540  10.1151943
  45.4357643  15.2774696   9.9598026  62.8451881   1.4866291  10.2599745
  63.0707932   1.5000128   9.3298378  63.6794281   1.6175315  10.7106848
  44.9440384  38.9885712  14.4183331  44.8224144  38.2376785  14.9993658
  44.9706306  39.7439919  15.0055847  17.7379303  53.2947311  48.3471489
  16.7853317  53.2937050  48.4408836  17.9054279  53.8818321  47.6099319
  20.4210567  39.3341179  57.3259964  19.6493378  39.0301476  57.8037872
  20.6625233  38.5959206  56.7665367  48.5167542  35.4632339  25.0829163
  48.9666862  36.3052063  25.1527748  49.1063194  34.8405952  25.5083160
  57.8532829  23.3892994  17.7063580  58.5873985  23.3595123  17.0928307
  57.8110046  24.3040562  17.9850388  38.4477806   5.9326067   8.4935694
  37.6840515   6.0222239   7.9235544  38.8727074   6.7897062   8.4611883
  79.6347580  24.3134117  76.1729279  79.2543259  23.9932842  76.9908676
  79.6631699  25.2643967  76.2780533  40.4972305   0.4217747  38.8496628
  41.1195259  -0.0708707  38.3146133  40.9426231   1.2485318  39.0349350
  51.0657196  66.2142792  45.4583282  50.3108597  65.9727631  45.9950676
  51.2162666  65.4516678  44.8997688  38.6984062  40.3549042   9.7741165
  38.3467979  39.4850273   9.5845938  37.9609451  40.8342781  10.1517172
  81.7047348  17.8430595  21.0399361  81.0905151  17.1205750  20.9096317
  82.1465378  17.6362438  21.8635063   5.0219784  61.1028328   3.3761458
   5.8787208  61.4502487   3.1281011   4.3943586  61.6995583   2.9684167
  74.0550003  61.1160774  21.7923813  74.1776428  61.4868698  20.9184799
  74.7575607  61.5006905  22.3165112  56.6333694  52.8775558   0.1277156
  56.8341637  52.1317368  -0.4376757  56.2094498  52.4902458   0.8935600
  11.9925833  19.7080822  50.2245369  11.3541603  19.7738113  50.9347000
  12.8145466  19.4848270  50.6613045  38.0731010  48.7268257  78.9153214
  38.4242706  48.1544266  78.2332153  37.2810822  48.2819405  79.2170105
  38.1968689  12.8770514  70.8619385  38.0757828  12.3770962  70.0547104
  37.4585686  13.4860144  70.8795395  22.6174164  38.4761467  12.8305750
  22.5868282  37.9594383  12.0253983  23.4097595  38.1774406  13.2768946
  82.3781204  69.4924469  27.8978558  81.9925842  70.3603287  28.0177402
  82.4100342  69.1206970  28.7793407   9.3310671  71.0273590  76.5959473
   8.5537052  70.4828033  76.4718246  10.0564251  70.4824753  76.2906723
  42.9260254  48.6295967  21.4884529  42.1907158  48.0420647  21.3142147
  43.1953278  48.4177132  22.3822174  72.8685684  43.9172516  66.9896622
  71.9509811  43.8607635  67.2562561  72.8343811  44.0960464  66.0499268
  26.9802227  20.5695267  88.8189011  26.2079239  20.4459496  88.2670746
  27.1577301  21.5091228  88.7755127  67.7512741  19.9322681   7.3698869
  67.0108643  19.5809994   7.8644896  68.3218231  20.3181877   8.0345459
  17.0268116  13.7085981  65.7841797  16.8155670  14.2790613  66.5232239
  17.9831982  13.6697464  65.7773285  71.7932434  56.3438873   1.5099412
  72.2383804  56.6242676   2.3096099  71.6733322  55.4007072   1.6206915
  53.6674194  42.0497093  21.6254997  54.4910278  41.9291496  22.0981178
  53.5092506  42.9932327  21.6567364  18.9306431  60.7301598  85.1526337
  19.7147579  60.9772263  85.6428909  18.9857025  59.7775421  85.0770035
  14.6524267   8.3015518  28.7400398  13.8143969   7.8563571  28.6145878
  14.5217638   8.8431463  29.5183926  56.0952873  58.6199265  56.2794991
  55.4017982  59.2567024  56.4521828  56.9065323  59.1215591  56.3600044
  32.3848495  58.1943436  71.4699478  33.0271835  58.8793488  71.2844391
  31.7146282  58.6305923  71.9959946  34.4892235  64.6307144  48.4255295
  34.0868301  63.7945976  48.1905365  33.8692474  65.0321579  49.0343895
  37.4450531  34.5566597  81.6025162  37.5598869  35.5067940  81.5853424
  38.2530403  34.2108536  81.2232971  49.5146179  19.8903122  76.6919556
  49.2602882  19.6654892  77.5869446  50.1057510  19.1857033  76.4267731
  73.5529022  47.5774078   1.6855714  73.2014084  48.4331894   1.9311746
  74.3699265  47.7763329   1.2282645  75.9132996  18.5497189  82.4036102
  75.3614426  19.2683201  82.7123032  76.2182007  18.1212559  83.2034149
  71.3740158  69.3793945  52.6707115  70.9432373  70.2070541  52.8843689
  71.4760284  69.4011154  51.7192116  63.0577469  17.0793076  11.0046444
  63.0172501  16.2549286  11.4894018  62.1490173  17.3770199  10.9620800
  80.4020309  23.7724342  72.0309677  79.9404602  24.2272911  71.3264923
  79.7186432  23.5589275  72.6662903  11.6883049  26.7984123  34.9556007
  12.0352221  26.2989178  34.2164192  11.6179008  26.1592331  35.6646309
   8.2841597  51.8727303  25.1053772   7.6578045  52.5622025  25.3256893
   8.1153965  51.1821022  25.7463017   2.8656812  66.1010284  45.6917000
   3.3510265  65.4529648  45.1811256   3.1690283  65.9737778  46.5905991
  60.9347267   6.8522172  32.2860756  60.1801987   6.8932981  32.8736458
  61.3573875   7.7060094  32.3789558  59.5632706  49.9822159  82.5002289
  59.7538757  49.4014359  83.2368393  60.3749466  50.0002594  81.9931870
  46.5852165  55.1337471  81.4640503  46.3315964  54.7701225  82.3123932
  45.7619209  55.4261627  81.0730133  58.3228416  37.6079445  70.6304855
  58.5129356  37.5958977  71.5685425  58.0652771  38.5119781  70.4498901
  46.6923943  54.1298370  34.0561409  45.8937111  54.4614868  33.6458397
  46.7972031  54.6645660  34.8431015   6.1386752  47.2272873  42.1714134
   6.9852123  47.0917244  41.7457047   6.2677288  46.9135628  43.0664864
  23.8715382  16.4385548  71.2569504  24.5038567  16.7993984  70.6355057
  23.5725498  15.6255951  70.8496017  72.8444748  51.8670006  55.3089180
  73.2495499  52.1993790  56.1099663  71.9231491  52.1149750  55.3857269
  69.6756516  37.1513367  40.9793777  70.4544678  36.9585953  41.5014229
  69.6319885  38.1073074  40.9583130  59.6123276  31.4650612  30.5979309
  59.8617592  32.3830986  30.7038631  59.5090561  31.3524246  29.6530075
  50.2962189  64.2829895  56.3614998  49.6569252  64.1032867  57.0508766
  49.8204575  64.8197708  55.7276611  19.8614445  43.4394341  86.5765762
  20.5704746  43.7853661  86.0345001  19.0993118  43.9680176  86.3399658
  27.2492390   8.6784782  77.3206406  28.1429787   8.5559301  77.6407089
  26.7003498   8.2345190  77.9670486  70.8659210   1.4068817  52.3992386
  70.9937210   2.3364866  52.5882721  71.1022415   1.3154681  51.4761887
  12.1682091  35.3188896  10.6800756  12.6769428  36.0549774  11.0200701
  11.3631058  35.7168350  10.3488941  33.2580605  70.8408813  64.2935181
  33.9832230  71.3434753  63.9223442  32.7796173  70.5127716  63.5321579
  41.8816643  38.3822899  26.6871281  42.4517403  37.8346176  27.2268505
  41.5026817  37.7776756  26.0491276  69.1453476  53.9980087  37.9212456
  69.8812103  53.9097290  38.5269966  68.5498886  53.2885437  38.1627388
  68.6589966  48.5438843  67.7652435  68.6254578  48.2352486  68.6707001
  69.0195694  49.4284248  67.8269043   1.8476478  55.1181145  22.4222412
   2.8046427  55.0999680  22.4301853   1.6236906  55.5898705  21.6200428
   5.7303853  48.1704712  28.1315536   5.1300278  47.4330711  28.2412777
   5.2782903  48.9099083  28.5378532  76.7727814  37.7817001  80.5252991
  76.9877090  37.3873825  81.3706131  76.6758118  38.7150650  80.7141342
  62.2272072  54.1028748  83.8096390  61.2841759  54.1321907  83.6481857
  62.3735237  54.7563019  84.4936371  85.6289139   9.6204853  85.5622025
  85.3924713  10.5356550  85.7131653  86.5854645   9.6228848  85.5271835
  26.6222248  33.9633217  18.3345852  25.9947453  33.8361053  17.6230259
  26.5395679  34.8888931  18.5641899  76.5646210  32.4935303  12.3084764
  76.1100540  32.6980934  11.4913130  77.2087784  33.1947708  12.4062462
  84.4127350  39.0232430   1.4966881  83.8662567  39.2633247   2.2449892
  84.8010406  39.8494301   1.2088207  32.0585060  23.7694969   1.4795936
  32.5627594  23.3357086   2.1679192  31.1522255  23.7290649   1.7849628
  11.8996038  22.5291691  59.0358620  11.3909988  21.8457775  59.4723587
  11.5322819  22.5741768  58.1530914  64.2578964  39.0678635  56.7369766
  63.3185120  38.9507484  56.5952797  64.6622314  38.7666283  55.9233437
  73.3426285   0.2115783  13.0054541  73.1878815   0.9020183  12.3607998
  72.5823975  -0.3646496  12.9264183  60.3350906  19.3652458  24.5350399
  60.8581696  20.1107407  24.8297615  59.6239014  19.7571011  24.0281944
  83.9766388  64.2063751   4.5371351  83.3186798  63.8999290   3.9131074
  83.6094742  65.0148392   4.8946366  29.8786221  20.0563698  32.0489616
  28.9976845  19.6963787  31.9460583  30.4590206  19.3621387  31.7368507
  41.8834572  51.3801346  10.5605974  41.9551735  52.1764412  11.0868912
  42.6345520  50.8493195  10.8257837  69.8674164  24.7360935  66.2910233
  70.2266541  25.6005802  66.4906311  69.9327164  24.6636257  65.3388062
  52.2648010  50.5999260  54.0196724  52.3641052  50.6743660  54.9687920
  51.5097733  50.0233879  53.9023361  58.4024200  19.9796104  51.1269112
  58.8390884  20.7352123  51.5201302  58.1473465  19.4357700  51.8721657
   3.3418002   5.1340499  45.5254936   3.3466835   4.2527614  45.1519470
   2.4706054   5.4751143  45.3231926  71.4186935  64.8495483  61.3167953
  70.4642563  64.9089203  61.3586769  71.5998306  64.5211716  60.4361191
   7.3127065  17.1972008  29.5211964   8.0573559  17.1004353  30.1147995
   7.1113005  16.3040409  29.2420330  52.9076157  18.4207764  70.0691223
  53.1606560  17.9520416  69.2738266  51.9826393  18.2060242  70.1896667
  76.7302094   2.0374620  17.2209167  76.1683197   2.4680624  16.5766373
  76.1952667   1.9927832  18.0134277  29.7620029  56.3488922  43.1757774
  30.2965469  55.5550842  43.1947670  29.0771999  56.1921158  43.8259277
  84.9245453  21.0481930   9.8846712  84.6487732  20.8693352  10.7836657
  84.1204681  20.9812927   9.3696852  82.0294418  69.9651566  31.0581150
  81.9704590  69.0268784  30.8781528  82.0023041  70.0280838  32.0128593
   0.1663304   9.6205130  47.0697479   1.0123774   9.2090530  47.2462044
   0.1302561   9.6945457  46.1160965  30.7113285  18.9692535  19.5161686
  30.6332531  18.8348217  18.5716782  31.6383915  19.1631718  19.6546669
  35.3322754  68.2850189  80.8249207  35.7852898  69.1161804  80.6828384
  35.9820404  67.7284164  81.2541351  13.6536551   0.8145316   6.7985311
  13.1876602   1.1417178   7.5679655  14.3710365   0.2920834   7.1572018
  61.7020378  31.7962265  20.8395786  62.2213058  31.3193588  21.4870281
  62.0656662  32.6816444  20.8459854  72.4056091  62.8036079  41.5035477
  73.0522003  62.2433586  41.0742798  71.9867325  63.2790833  40.7861214
  44.3621292   8.6115913  36.5581055  44.3216591   9.3572083  35.9592323
  44.0283051   7.8748589  36.0462265  72.2729874  46.5177307  50.0113220
  73.1196823  46.7233925  50.4076118  71.6829758  46.3980751  50.7555008
  50.5239830  59.5500183  75.7243423  50.7295647  59.9979858  74.9038010
  50.8609619  58.6622772  75.6035233  29.4367218  21.4511623  34.3472252
  29.5367966  20.8180428  35.0581207  29.5356960  20.9324703  33.5488548
  49.7229691  43.0203590  77.3306503  49.3977051  42.1201668  77.3214569
  49.0166016  43.5342674  76.9392700  82.3036652  31.5527725  46.9209290
  82.0618210  30.8347893  46.3359108  82.4900665  32.2865448  46.3352089
  55.9888344  38.1435852   2.0391891  55.1862488  38.4623566   1.6263037
  56.0367050  38.6191139   2.8685355  50.1795425   1.9174551  10.4724588
  51.1278725   1.8266333  10.3794127  50.0388489   2.8575697  10.5848036
   7.9301667  17.8058853  17.4057522   7.6222882  18.1009369  18.2627163
   8.2181730  16.9048214  17.5519333  41.2990341  70.0654907  82.2213898
  40.3750877  69.8159943  82.2040863  41.5061493  70.2804642  81.3119278
  36.9090958  39.3349648  85.7252808  37.5094795  40.0627518  85.5637436
  36.0905571  39.7541428  85.9908295  38.0305557  66.3937149  57.2932854
  37.6071243  66.9184647  57.9726715  38.5424805  65.7448196  57.7760925
  33.3270988  12.9337692  85.8394165  33.9769783  12.9125586  85.1369629
  33.6866074  12.3596659  86.5157242  69.6187973  45.1578217  51.2137489
  69.9888382  45.0030746  50.3446388  68.8305740  45.6755562  51.0497513
  43.1336632  15.7357569  38.6020737  42.4476242  16.3319893  38.9022293
  43.9359398  16.2566662  38.6372147  48.4777374  61.1923485  63.6807175
  48.4190063  60.7489014  64.5269699  47.5720558  61.2475967  63.3759003
  71.4016876   1.0636466  87.3039246  71.3010101   1.5076789  88.1459045
  70.7536392   0.3595126  87.3254852  65.7798080  45.8942833  67.8004990
  65.2478638  45.9458351  67.0063858  65.8916092  44.9560089  67.9533997
  45.8998871  40.3276711  16.9848785  46.8495979  40.2616501  16.8852749
  45.7630386  41.1660614  17.4260235  74.3849869  60.8433609  46.4776993
  73.5457764  60.8375397  46.9380569  74.1661911  60.6014786  45.5777817
  55.6487427  64.8742752  25.0801277  54.7295837  65.0152512  25.3070774
  56.0225601  65.7544174  25.0372105  60.2677345  54.4834557  34.1402092
  60.2890320  54.0275154  33.2988434  60.1213531  55.4013519  33.9115791
  34.1087189  54.9120369  34.4954109  34.5411148  55.0902557  35.3305817
  33.6330070  54.0943947  34.6416740  82.7618256  51.9029083   5.0203910
  82.6457138  52.7291832   5.4894557  82.4604034  51.2340584   5.6352220
  85.0364456  39.0769043  33.4642830  85.9216766  38.9534073  33.1217194
  84.8566895  40.0079193  33.3333893  53.8007774  60.7788811   7.2694783
  53.0742874  60.1578331   7.2170744  54.4113235  60.4910965   6.5907693
  51.0987778  12.3794794  40.4921837  50.7463036  13.2214355  40.7804604
  50.3711090  11.9596252  40.0334320  62.8577118  48.9055405  74.3298569
  63.8121033  48.9026108  74.4030914  62.6002007  49.7897949  74.5906448
  16.8113747  64.2120819  23.0447044  16.1939049  63.9979858  22.3453274
  16.7103729  63.5023232  23.6789551  40.7874756  12.0967999  71.1359100
  39.9932098  12.6183901  71.0205078  40.4816170  11.1898136  71.1282578
  74.8251572  47.4040642  65.1336136  74.0890503  47.2651634  65.7295074
  74.6671906  48.2690620  64.7553787  22.2825775   8.6857233  18.0081577
  21.9621353   9.5409489  17.7215595  22.6276245   8.8415508  18.8873005
  31.3428688   3.9189153  65.7258453  31.3958111   3.8704801  64.7713394
  30.6012363   3.3581538  65.9533539   5.6001983  11.3655472  12.7929602
   5.2528744  12.2149944  12.5208607   4.8596287  10.7652454  12.7067909
  70.5372696  37.3627510  87.6621475  70.8162079  37.4959908  88.5680618
  70.4749222  36.4122238  87.5680771  60.7122765  23.2096176  12.3647747
  60.2310524  24.0353508  12.4178820  60.5180702  22.8751068  11.4892063
  66.3756943  65.4469986   5.0676994  65.9903183  64.5848465   4.9114752
  66.2376480  65.9230042   4.2488031   1.9155487  53.6286736  33.7244797
   1.3617289  54.2727661  34.1656876   1.3532299  53.2534142  33.0468292
  49.5183525  62.3121338  12.1271152  50.3971596  62.6476173  11.9499731
  49.1137581  62.2324867  11.2632904  70.9393082  45.0544739  34.7626953
  71.2903595  44.3463440  35.3026505  71.4333878  44.9994431  33.9447174
  86.3523102   8.5696459  12.7971334  86.3132858   9.4482193  12.4192209
  85.6134949   8.5372982  13.4048691  84.4032288  42.6809082  87.1647568
  84.7774811  41.8064919  87.2722931  84.1386337  42.7168083  86.2455597
  60.0508461  52.1978455  37.6679039  59.4283981  51.5523682  38.0027924
  59.8752174  52.9877014  38.1792831  46.9718971  19.1749859  18.1799927
  47.7636414  18.8448601  18.6047134  47.1131744  19.0091286  17.2479172
  63.7804070   3.7078450  52.3132820  63.3034515   2.9415023  51.9947472
  64.5894775   3.7160468  51.8018417   1.8842987   9.1666851  10.1920795
   0.9814060   9.2152147  10.5061836   1.8325732   8.6392126   9.3950043
  11.4610767  52.6019058  62.0673599  12.1079512  52.1768112  62.6304588
  11.9682798  53.2270050  61.5494576  15.9767942  39.1995049  86.1146851
  15.9788198  38.2471924  86.2112579  15.3075523  39.3716545  85.4523315
  19.3276863  10.3316212   9.8130970  18.5818138   9.7852259   9.5653925
  19.5135574  10.8518534   9.0314054  42.0705528  23.9608421  50.9603424
  41.4894981  23.8651905  50.2057190  42.7747307  23.3322144  50.8016205
  33.8188095   5.7800198  62.8879776  33.8818665   6.7155833  63.0802689
  33.0364723   5.6998534  62.3423080  44.6830826  48.7200241  32.4217529
  45.6280022  48.8097076  32.5455132  44.4198914  49.5326996  31.9898739
  25.3138332  54.6063347  15.2726011  24.6549282  55.2886086  15.1438503
  25.4315834  54.5631027  16.2215462  45.0575829  20.5886955  26.1837215
  45.7956963  20.5626411  25.5748367  45.1038780  19.7551670  26.6520348
  26.8844128   6.3158903  19.6935101  27.1052666   5.4726315  19.2980728
  25.9900932   6.4908967  19.4005985  38.4457550  46.8304520  34.4545975
  39.2600327  46.7878189  33.9532356  38.6608963  46.4271088  35.2955856
  63.5988541  44.1830368  21.9861088  63.6094818  45.1356087  21.8927155
  63.3295860  43.8610229  21.1258564  81.7202225  18.8338318  81.3506927
  81.5468597  19.2323627  82.2035446  81.9338379  17.9225559  81.5511322
  81.5655518  66.0171432  18.3160534  80.8317490  66.2294922  17.7392693
  81.4035568  66.5294342  19.1082344  61.9372368   3.5632555  82.9181900
  61.8258209   4.3156934  82.3371048  61.1613083   3.5764070  83.4785385
  54.2851181  24.0489311  29.4925957  54.1860237  23.3020477  28.9021893
  53.8110962  24.7598362  29.0611439  69.0673370  33.1006165   9.5549841
  68.9626160  32.1773872   9.7850113  68.1813507  33.4602890   9.5985527
  73.2705917  47.2314262  77.6820679  72.3421249  47.0190773  77.5867767
  73.6755600  46.9000816  76.8805466  83.5065308  57.8523788  26.5046005
  83.9873734  58.3530846  25.8455791  82.6728821  57.6416054  26.0840797
  72.5678635  38.8384705  70.7354202  72.6804199  38.6396561  69.8058853
  73.4067307  38.6057777  71.1334076  16.0595894  46.9528465   7.3437963
  15.3078642  47.5439606   7.3022690  16.5854607  47.1798820   6.5768876
  47.8794632  23.4028835  65.8456879  48.2902336  22.5471363  65.7224274
  47.2004814  23.2502098  66.5028839  82.3130569  62.8176270  50.5281258
  81.8557892  62.6756516  49.6992798  82.5725632  63.7386589  50.5037956
   7.4466515  11.5433264  26.9764214   7.3116536  12.2200232  26.3130302
   8.3757486  11.6068382  27.1977272  85.6296921  33.8191490  72.1790619
  86.3698120  34.2594223  72.5969315  84.8660583  34.3333473  72.4411774
  62.0853539   6.7728157  61.0550613  61.7935638   6.1854806  60.3578339
  61.9890900   7.6503124  60.6849747  68.2757797  61.0142632  64.2921295
  69.1859818  60.7277412  64.3674927  67.7828217  60.3877869  64.8219910
  50.0869675  26.7641544   2.7513537  49.9375038  26.0310879   3.3484328
  49.2942009  27.2959328   2.8218267  57.2049942  52.6062050  64.7141190
  56.8647194  52.2328682  65.5271759  57.6976585  51.8917694  64.3102722
  68.0493469  43.1943398  56.7935333  68.9934540  43.3436890  56.7425728
  67.9478760  42.5349579  57.4799385  30.5650330  70.5531921  68.9965820
  31.1173229  69.8593369  69.3568344  31.0650597  70.8973541  68.2564774
  47.3417435  32.5314941  65.7073593  47.3588982  32.0123940  64.9033279
  46.4123116  32.6086349  65.9228668  66.7274704  63.2126961  29.8148022
  67.0696869  64.0481491  30.1328278  67.2748871  63.0019913  29.0583820
  45.6736908  68.8571167  67.6547928  45.1865616  68.0744781  67.9124908
  45.0190887  69.4224930  67.2448196  26.5296097  17.0587540  84.2237549
  27.3192368  16.6214352  83.9052048  25.9187870  17.0160084  83.4880219
  20.0256214  51.3903732  70.0958252  19.6759148  51.1453056  70.9524918
  19.4814568  52.1267204  69.8167114  10.1846666  49.3118248  26.5447197
  10.0203581  48.3854675  26.7210503   9.3360891  49.7348099  26.6759853
   7.6053710  57.0891495  64.6399307   6.8598099  56.4943657  64.7211990
   8.3698206  56.5402451  64.8147354  86.3967590  26.4867058  59.2504005
  87.0501480  26.9063473  59.8100471  85.8120956  27.1983585  58.9897270
  68.3348618  14.3524466  15.5989943  68.7707825  13.9912128  16.3708210
  69.0501709  14.6558189  15.0399456  42.1055908  41.1802788  20.6594353
  41.4206009  41.7849236  20.9447880  42.0356407  40.4383545  21.2601738
  38.1464729  56.5599251  -0.1203416  38.2376709  57.0760345   0.6806235
  38.4353485  55.6814079   0.1266174  63.5279541  16.4365578  84.1888199
  63.1050797  17.1173038  83.6653748  63.5927238  16.8144188  85.0658951
  16.1152763  44.1895599  80.5681076  16.0317574  43.3202591  80.1762238
  16.8208675  44.0969124  81.2082596  84.2504349  39.1713181  47.0977135
  83.9686050  39.9427795  46.6061363  83.7035675  39.1749382  47.8833084
  61.6571503  17.2065868  29.8685989  61.7476768  16.6655884  29.0841522
  61.7943649  16.5992050  30.5955734  69.6164932   6.0928717  19.5791416
  68.7051086   5.9443750  19.3270206  69.8477097   5.3265247  20.1040039
  53.7935219  70.1324158  60.2478714  53.6211967  70.8004379  60.9114151
  53.6672897  70.5850143  59.4139328  36.0228500  51.3273506  25.9279709
  36.1441803  50.6829071  25.2306881  36.4910545  50.9600372  26.6777058
  41.4449196  12.7103157  88.6686859  41.6063690  12.8495808  87.7355347
  42.2249680  12.2517471  88.9808884  64.2693634  16.3167191  70.5114441
  64.4345398  16.1195889  69.5894394  63.5415688  16.9382744  70.4968262
  82.7661362  55.3619194  30.3224907  83.4014664  55.6952591  29.6888714
  81.9944382  55.9151802  30.2015991  18.1972027   3.4571729  50.1695251
  18.2035446   2.5655344  49.8214264  17.5263424   3.9092731  49.6578789
  18.7712841  61.9924583  25.4411564  19.6249981  62.1903801  25.8261623
  18.9041615  62.0942612  24.4987068   8.8054848  41.8326416   6.1685085
   8.4302406  42.6872749   6.3806996   8.3661785  41.5725288   5.3588276
  32.2856407  28.8019714  24.5372066  31.6400356  28.7275963  23.8344288
  31.7869778  29.1260815  25.2872200  61.1221581  14.4949074  45.9238930
  61.2874031  15.3704767  46.2736130  60.7878304  14.6490774  45.0403290
  84.6352005  27.0004978   3.0080082  85.0949554  27.8289299   2.8717723
  83.8841934  27.2305145   3.5551000  20.1078835  42.5707588   6.5101829
  19.3543854  43.0817032   6.2145300  19.7271767  41.7724915   6.8763318
   2.4369736   3.2622273  58.8447456   1.5314083   3.3184817  58.5397568
   2.6404564   4.1445866  59.1550179   9.7191725  28.9090881  67.3064423
  10.0286865  29.8145103  67.3318253   9.5334158  28.6937618  68.2204285
  28.7240982  66.6843643  46.4165955  29.6690865  66.8270950  46.4700432
  28.5849552  66.3279266  45.5391998  77.1274490  27.6959820  67.3575974
  77.7013626  28.3063889  67.8204803  77.0208054  28.0804577  66.4875183
  11.8438435   3.6213181  82.8463593  10.9316101   3.6478388  83.1350784
  11.9348812   2.7701035  82.4181290  73.4517670   2.0713546  22.4021854
  73.3608627   2.2531953  23.3375473  74.0890656   1.3585458  22.3575935
  39.2243080  60.8421974  19.0948830  38.7331047  60.1448021  18.6606140
  38.5808983  61.5369301  19.2348919  42.0396652  43.5345383  18.8664703
  41.4194641  43.0963974  19.4492359  42.0761108  44.4350624  19.1888943
  44.8898544  68.4910812  44.2640419  45.5439720  69.0556488  43.8521919
  44.8316040  68.8095932  45.1648102  81.7653732  18.7354889   9.8897533
  81.3108826  17.8999348   9.9970913  81.8332291  19.0869999  10.7774849
  30.8363323  30.5134296   4.5354166  31.7758808  30.5431080   4.7159662
  30.4248581  30.5675259   5.3979678  59.1309853  37.9825554  32.3298836
  59.9550972  38.1096802  31.8598728  58.7694626  37.1747246  31.9652748
   2.6737120  58.4901772  51.7311096   3.3894854  58.8621788  52.2463913
   2.9191236  57.5733070  51.6072121  42.0750237  44.7768555  16.4989319
  42.4394989  44.1681976  17.1415234  41.4999924  45.3474770  17.0088005
  82.2308502  32.6319580  55.9641800  81.4316101  32.8662453  55.4924316
  82.7685089  33.4232483  55.9322357  40.2268791  37.7953758  40.0342979
  39.4069366  37.9265671  39.5581551  40.8803825  38.2709465  39.5214653
   6.2874494  62.5388374  19.1997509   5.4772224  62.9906693  19.4355755
   5.9969649  61.7174034  18.8034000  42.9051590  42.3590012   2.4177463
  42.0015106  42.6319962   2.5762665  43.2538605  43.0204506   1.8201476
  12.9505520  61.9091568  14.4473791  13.5281191  61.4322548  13.8513842
  13.4308338  61.9373970  15.2748842   0.1547501  62.2205238  60.4910011
   0.9812603  62.2881508  60.9690590   0.0595746  63.0679016  60.0561142
  36.6028328  56.0059166  40.4305954  36.7052422  56.6829796  39.7617645
  36.3362617  56.4835777  41.2160988  85.8443604  67.7183685   2.6960909
  86.0443726  66.7823257   2.7033982  85.0364990  67.7946320   3.2038040
  72.7124634  26.9864197  52.6101227  71.9066772  27.4458370  52.3737335
  72.7197952  26.2113018  52.0485458  76.9971848  13.8939180  67.2298965
  77.8429718  13.8892298  66.7817230  76.5488586  14.6671181  66.8872681
  72.8950424  48.7367363  57.3935089  71.9824600  48.6141510  57.1319771
  73.2022171  47.8565865  57.6108017  37.0902405  48.2352524  67.8271713
  37.0454445  48.7040710  68.6604996  38.0209351  48.0453720  67.7089081
  63.2899437  10.8942890  21.6567307  62.4857445  11.3608398  21.4290695
  63.5528603  10.4600935  20.8451996   9.6992397  55.3148308  20.9940872
   8.9757423  54.6928291  20.9173126   9.6331463  55.6499214  21.8882790
  65.2339935   1.9629743  11.5365782  66.0496750   1.4659671  11.4743137
  65.4435501   2.8158681  11.1559353  53.4173813  68.5518951  62.5109024
  53.6206436  69.0022430  61.6910820  52.5438118  68.1857758  62.3728447
  17.1671944  22.9188862  81.9677811  17.8265190  23.5619678  82.2284851
  17.2181358  22.8975639  81.0121765  84.1624146  33.2678795  53.3811150
  84.0352249  32.3685112  53.6830978  83.6397552  33.3282166  52.5814819
  57.1605339   9.2035742  33.6932144  56.3209610   9.5366898  33.3763809
  57.8137283   9.7669201  33.2782326  65.3716507  29.5603027  10.5320597
  66.0712738  29.3009739   9.9324732  65.0404739  28.7345390  10.8851414
  83.5108109  33.7626152  45.6017570  82.7641144  34.2000313  45.1926842
  84.0162354  34.4721832  45.9983482   4.5708604  23.2907600  42.6879463
   3.8898149  22.6231956  42.6056786   5.1898637  23.0891628  41.9862175
  80.7339783  10.2644882  34.6428566  80.1391907   9.6688967  35.0986328
  81.6049576  10.0174265  34.9536247  75.4835129  68.1068954  89.0942078
  75.8838196  67.7407761  88.3055801  75.3983688  67.3609695  89.6879883
  55.3630295  20.7110748   2.4900129  55.1240807  20.1759205   3.2468119
  54.5412598  20.8346024   2.0149662  24.9830246  53.1814651  74.5388184
  25.6948566  53.7900276  74.7367630  25.2571831  52.3548584  74.9360428
  17.2357750  17.8418026  20.6667709  16.9314251  18.6145477  21.1426544
  16.6208515  17.7512207  19.9388294  64.9269409  50.7654648  15.3610382
  64.7263641  51.4108124  14.6831532  64.5358047  49.9525337  15.0410566
  57.8998795  52.7945404  45.9460144  58.7108879  52.3083496  45.7973061
  58.0325050  53.6263733  45.4913750  76.3398666   0.9074246  82.4940033
  76.5476303   0.9427149  83.4277115  76.4982986   1.7975172  82.1795731
  71.1518173  57.6685143  79.2263031  71.5835266  58.2330170  79.8675537
  70.6358109  58.2685966  78.6879044  13.0430861  33.8143234  61.3278122
  12.6635265  34.5072212  60.7873878  12.9044209  33.0133247  60.8224373
  85.8354950  31.8457127  18.4944706  85.2060547  31.3984833  17.9287605
  86.5402985  31.2099552  18.6181374  58.9455643  34.9540291   3.6757579
  59.2239380  34.1010475   3.3423514  59.5546265  35.5767174   3.2788489
  56.2643051  26.5591373  66.4192352  56.5222588  27.4639339  66.2430649
  56.5452957  26.4011269  67.3205185  78.5457153  19.2807541  80.5442963
  77.8629150  19.9222393  80.3480377  78.1366043  18.6777992  81.1650162
  80.8735886  52.0376778  41.6745567  81.6442108  52.5712776  41.4805145
  80.5986862  52.3220177  42.5462265  58.2529411  43.9564514  26.3415203
  58.8911629  43.9013519  27.0527649  58.7290535  43.6532478  25.5684643
   9.3431072  37.4378166  83.7681656   8.7303352  36.7208138  83.6049118
   9.5436745  37.3735542  84.7019043  68.9262390  24.9193954   1.0892329
  68.5337219  25.0309944   1.9550899  69.6507492  24.3102112   1.2314093
  18.6355915  23.5566216  14.1139355  18.5903969  22.6586399  14.4422894
  18.5454464  24.1021671  14.8952723  86.2109528  10.0338249  22.4291000
  86.4609680   9.3842211  23.0861702  85.2804489  10.1908779  22.5895100
   3.3223324  63.4646645   5.2216649   3.2532961  63.3195724   4.2780471
   3.6121128  62.6226997   5.5728850  29.6964931   1.3201109  60.9607391
  30.6437111   1.4349728  60.8844833  29.3521194   1.6012872  60.1130486
  34.6697044  61.7828217   9.2070522  33.8720131  61.6361885   8.6986990
  35.3042526  61.1674042   8.8398418  66.1479721   7.3307195  72.7236710
  65.5868301   7.9999914  72.3319626  66.9738159   7.7823524  72.8975601
  58.9981804  33.2868233  86.5492859  59.3673248  34.1183014  86.8469467
  58.8389397  32.7936821  87.3540726  32.1199150   2.5827971  46.8963966
  31.4304466   3.1549675  47.2332687  32.5962524   3.1258595  46.2683678
  83.0501633  24.2658691  14.6072206  82.1243362  24.5058632  14.6455879
  83.5171280  25.0897160  14.7467012  39.4216042  20.1382961  88.7988281
  39.9346008  19.3979950  89.1229019  38.5135384  19.8391972  88.8455811
  14.5148954  39.3005447  88.6848221  15.1440630  39.0969887  87.9927673
  13.8129702  38.6606598  88.5661697  23.8514023  64.8561325  61.2488136
  24.7358341  64.7291718  60.9054565  23.2764988  64.6511459  60.5114555
   3.3362727  39.4623032  33.5317535   3.0877986  38.5388985  33.5743599
   4.0996728  39.4785309  32.9545288  37.1881332  16.1406403  58.2616615
  36.4843597  16.4035282  57.6685104  37.5599022  16.9659729  58.5728607
  70.7679138   3.9060557  58.7751694  70.9630508   4.7996058  59.0575218
  69.8127289   3.8497896  58.8013992  23.9427338  30.9155426   0.4642765
  23.0695381  30.7492256   0.1091725  23.9170780  30.5450573   1.3464981
  29.5424538  64.2456818  34.8980827  29.3938351  63.7788696  34.0757484
  29.1353703  63.6922646  35.5646019  34.4505501  54.8265190   1.7412845
  35.2444572  54.3007393   1.6438030  34.3437309  54.9258728   2.6873028
  31.4485302  69.9341431  83.0275116  31.8409214  70.3933716  82.2849655
  30.7952271  70.5448761  83.3687363  21.0806141  23.2241440  31.0395813
  20.5744495  22.5926552  30.5284557  20.4220257  23.7963753  31.4333363
  65.4533005  55.4476700  45.1511269  66.1706924  54.8358803  45.3163300
  64.6735458  54.9947510  45.4721756  51.5037193  50.4292259  42.2888985
  50.7855148  50.3961487  41.6569824  51.1036758  50.1727142  43.1198006
  61.9795723  45.1002235  33.1101036  62.1294174  44.2747383  32.6492882
  62.7265358  45.1825790  33.7029762  17.5464401  15.4171467  48.8904419
  18.2478752  14.9177952  49.3086166  16.7430172  15.0785933  49.2855682
  54.2594795  42.9830322  35.9800682  54.7423210  42.9119453  36.8035011
  54.1381989  42.0774803  35.6945877  22.9219341  15.2188387  79.8325806
  23.3104649  16.0450249  80.1201401  22.1121216  15.1463528  80.3377304
  86.9439621  20.0393982  24.3964005  86.6308670  19.3189945  23.8493900
  86.1763077  20.3079929  24.9011688  67.6473541  47.2351532  55.9042854
  67.1680374  46.6008911  56.4373894  67.2510147  48.0788765  56.1217155
  80.6168289   6.4510336  54.7128296  81.2510605   5.9294558  54.2209549
  80.0860672   6.8788586  54.0408974   4.9378715  47.4182091  13.3825579
   5.8394494  47.5389709  13.0845566   4.4336743  48.0646324  12.8884344
  29.9772377  43.9395638  30.8399010  30.1156616  43.0442276  30.5309525
  29.0369930  44.0859985  30.7363243  72.2461700  49.4798317  83.8432922
  72.0341644  50.3651657  83.5475311  73.1874619  49.3955231  83.6913223
  86.7796555  13.2753363  57.9691696  85.8359146  13.1944580  58.1071777
  86.8637314  13.5976849  57.0718079  34.2160950  35.5441437   2.2113736
  34.8671112  36.1954269   2.4725959  34.6606750  35.0125809   1.5510538
  49.9273720  67.3570099   0.7484658  50.1821556  67.7233047   1.5953130
  50.6624641  67.5584946   0.1694343  86.5558701  49.5702782  49.3931580
  85.7665710  49.9990730  49.0624352  86.2921371  49.1998024  50.2354355
  52.0291634  50.7169876  68.0281372  51.8857307  49.8791237  67.5880814
  52.8483963  50.5979767  68.5086899  53.4528847  49.0258713  61.4003525
  52.8561440  48.3358040  61.1106339  53.4864655  48.9294815  62.3520927
   2.7581058  63.0533142  68.8210220   2.2622104  63.8420372  68.6013870
   2.7679784  62.5433006  68.0110703  27.3145599  64.9985886  32.5785255
  26.7704544  64.2392654  32.3696976  26.7224636  65.6009369  33.0289001
  70.6872406  17.6849995  43.2435188  71.0585632  18.5394306  43.4632950
  69.7472916  17.8462524  43.1615410  51.6241913  44.9521294  33.4307327
  52.3545761  45.5671692  33.3636742  51.0598869  45.3234482  34.1089058
  60.6649094  66.2015457  66.8285370  61.4758644  66.5295639  66.4399567
  60.9280701  65.4118347  67.3011169   0.3545613  29.0970249  46.5684242
  -0.2410560  29.2236347  47.3069649   0.0258541  29.6885853  45.8914909
  74.7948914  26.2970600  54.3324013  74.0710831  26.2630444  53.7069626
  75.5788727  26.1675224  53.7987175  59.6596527   8.2581148  73.9412079
  60.3770027   7.9777179  73.3728561  59.4226189   7.4720125  74.4332352
  10.7417030  62.4714165  76.1578217   9.8477621  62.7768211  76.0034561
  10.8322821  62.4675140  77.1107254  24.6177197  68.4189835  36.1545448
  25.0025616  67.7301865  36.6964684  25.2743702  68.5869370  35.4786491
  30.3929768   8.6863317  71.4354019  30.2518463   7.7544703  71.6025772
  30.4626999   8.7509222  70.4829330  78.7263031   4.8891559  44.7641678
  78.2188873   5.6496563  44.4806252  79.3736420   5.2462883  45.3721542
  39.9353943  37.3624153  20.0830841  39.2389450  36.8748589  20.5229454
  40.5453339  36.6892166  19.7814102  53.0646515  35.7482185  31.7702427
  53.5605583  36.4634056  32.1687546  52.9751015  36.0016556  30.8515568
  33.3547096  18.1567783  12.0203800  33.9768867  18.4342594  12.6927891
  33.4317169  18.8199902  11.3344851  38.1173592  44.4764900  21.4658852
  38.4707985  45.3648987  21.4206696  37.1676750  44.5961914  21.4647274
   6.1234608  39.5935631  64.0210266   5.5908422  39.4453392  64.8024216
   7.0260091  39.5749130  64.3392868  85.8894806   7.8471446  80.8099060
  86.0457382   7.9318862  81.7504578  86.0189896   8.7306185  80.4650421
  20.0666790  35.8291473  14.3035612  19.5151443  36.5833740  14.0957441
  20.0971928  35.3236771  13.4912786  57.3630295   0.0855831  41.3185463
  56.5175400  -0.2169869  40.9871407  57.5832863   0.8345160  40.7646332
  61.0855560  25.0665607   4.9758964  61.7016525  24.3849583   5.2443628
  60.2787666  24.5934429   4.7722182  13.9168129  25.2542782  20.8405533
  14.2733469  24.5436077  20.3075771  14.5039558  25.3058071  21.5947666
  19.0595798  57.0744705  10.4174175  18.6136532  57.9037476  10.5897141
  18.6243668  56.4446144  10.9919605  17.9457073   9.6361303  27.7678852
  17.3695221   9.2090931  27.1339436  18.3973122   8.9143467  28.2052784
  80.8313980   5.1961689  68.5875092  81.2788620   6.0219760  68.7720490
  81.5126953   4.5296440  68.6758728  31.9797382  31.3069210  19.9623013
  31.4354172  31.9603500  19.5230103  32.8777122  31.6000137  19.8074837
  45.2372093  24.0968227  13.7302332  44.8821945  24.9478416  13.4733963
  46.1484985  24.2772217  13.9609699  48.2156677   9.4863358  85.8176651
  47.7732658  10.0005169  86.4930344  48.0962448   9.9928989  85.0143204
  80.8559189  31.5259399  38.8220177  80.0309982  31.8126278  39.2138710
  81.5141068  31.7007427  39.4946671  11.1408472  65.5533829  88.1972122
  11.3986921  64.7592773  87.7290802  10.1953754  65.4643707  88.3171768
  70.2879944  10.0759783  30.3960304  70.8625641   9.4774446  30.8733749
  70.1849670   9.6726818  29.5340729  15.8298712  16.5968304  84.4696884
  15.1913033  16.0193577  84.0513763  16.1028423  16.1229248  85.2552719
  16.0961838  57.6433525  51.7802925  16.5566387  58.1395187  52.4570732
  16.3894024  56.7405930  51.9038811  50.2111359  71.6286011  59.3163948
  50.8551025  72.0191956  58.7256508  50.0909653  70.7386475  58.9850616
  12.2567835  19.1669044  10.9641876  11.5938530  19.8107986  10.7148800
  11.9862537  18.8685360  11.8325319  76.1202011  19.0804424  75.7735672
  75.8590317  19.9049988  76.1836090  77.0750046  19.1285477  75.7258682
  21.9752007  11.8870401  84.8819580  21.2159557  12.2200537  84.4035492
  22.6774063  12.5041800  84.6763458  23.6026077  68.1110229  87.9947968
  22.7999382  68.0970154  87.4734955  23.5478458  67.3261719  88.5399933
  61.9315872   1.9519812  51.3587837  61.5174713   1.3859017  52.0101624
  61.3582458   1.8967052  50.5942841  36.8892937  62.8423615  67.5536652
  36.8822556  62.8935699  66.5978622  37.8004227  63.0081863  67.7957001
  59.8421936  60.0391006  39.9822769  60.1032219  59.9981232  39.0622673
  58.9021797  60.2178612  39.9568024  62.0217285   6.4118323  43.1074562
  61.4593506   5.9517951  43.7306137  62.2621803   5.7449698  42.4642525
  24.5711746  58.7745476  38.5385284  24.8277473  59.6356468  38.8685379
  24.6730099  58.1900826  39.2897034  75.8745880  56.6955338  82.9222794
  75.6273270  57.2217102  83.6827011  75.1269913  56.7663269  82.3287125
  51.5499496  34.7720261  39.4762764  50.9687424  35.4700546  39.1743126
  52.3929863  34.9688759  39.0678978  19.4343414  51.4102669  47.5798187
  19.9303284  51.9135246  46.9340935  18.9324093  52.0676346  48.0616531
  38.2906113   6.8698678  62.3961105  38.8920784   7.1870494  63.0698051
  37.5780487   7.5089750  62.3910789  83.2896805  45.4651146  41.2297554
  82.5876236  44.9818611  41.6654282  84.0936966  45.0381432  41.5255394
   2.6924503  55.5457726   3.3728673   2.3199799  55.1167603   4.1432204
   2.2712808  55.1126404   2.6304100  20.5557175   4.5266623  31.5059319
  21.0560741   5.3146386  31.7179871  21.0699997   4.0922751  30.8254528
  78.1376190  14.4151249  11.4619789  77.8882828  13.6664944  10.9201136
  78.2759552  15.1272736  10.8375282  73.1647797  67.8337250  44.8167267
  72.2732315  67.5544662  44.6084213  73.6308289  67.0208588  45.0123749
  19.7800102  28.6669445  31.9173431  18.9629803  28.5280590  32.3963051
  19.8143196  27.9463215  31.2882500  50.5704308  48.4985580  10.6283398
  50.3504944  48.7914276   9.7439823  51.0249786  47.6661758  10.4988785
  34.6139412   7.4193349  59.5389214  35.2510605   6.7673583  59.2469635
  35.0083885   7.8064685  60.3204384  72.0270462  33.7471046  59.2137032
  71.4982224  34.4545670  59.5825882  71.4814301  33.3770599  58.5197258
  85.3039017  56.0086288  10.2890568  85.9003296  56.3704872  10.9444637
  85.2847824  56.6661072   9.5936527  18.6202450  53.9998055  86.1274872
  18.7067413  54.0066338  85.1742325  18.8839397  54.8792381  86.3982162
  16.7926369  16.8002625  13.9855194  17.0116692  17.3214989  13.2131414
  16.2526608  17.3812790  14.5213146  28.2314510  60.6392479  83.7888107
  28.4054394  59.7024689  83.6970901  28.2651329  60.9778290  82.8941269
  23.0619411   7.7721539  35.0789490  22.2437439   7.4049344  34.7443810
  23.1710968   7.3686996  35.9400787  24.7956028   5.3101978   4.1450477
  24.9909458   6.1096506   3.6562240  25.5045795   4.7096009   3.9151173
  61.3245316   4.7908158  59.4756012  61.2122726   4.0084033  60.0154724
  61.7820587   4.4793282  58.6946526  11.6584368  38.2353439  80.6484375
  10.8386440  38.5160408  80.2417679  11.7130814  38.7472801  81.4553909
  11.5636864  27.3441658  77.8538132  10.8543711  27.9731503  77.9860382
  12.3557358  27.8205624  78.1026764  24.6203785  43.6939125  83.6157379
  24.1328678  44.5148010  83.5471344  24.0931396  43.1504478  84.2013092
  74.0712585  33.9159088  44.1019859  74.7126236  34.3876648  44.6333313
  73.9422531  34.4712906  43.3331337  10.7767506   6.2845483  41.0073051
  10.0503693   5.6718583  40.8923569  11.4310179   5.7903919  41.5012436
  61.5819321  20.1444721  76.6832352  61.1669159  20.9880943  76.5035172
  60.9124107  19.4965763  76.4636841   8.6938057  25.0127087  56.6957474
   7.7520776  24.8908215  56.8162575   8.9516029  25.6023865  57.4043045
  60.8064919  48.3380737  24.9312992  60.1153374  48.7187080  25.4731979
  60.3382874  47.8625031  24.2451134   6.3344030  54.4015236  20.8602104
   6.3267021  54.9641571  20.0858593   5.7391725  53.6845856  20.6412792
  29.6928272  12.7921076  28.6765251  28.7673264  12.8090925  28.9202271
  30.1008244  13.4501200  29.2393665  17.4822044  39.5279427  28.7383022
  17.2588806  39.1878357  27.8718815  17.7073746  38.7508926  29.2498951
  55.0433044  21.8266373  87.7027054  54.7356873  21.2770042  88.4234695
  54.2942886  21.8851700  87.1095886   6.1755266   8.2753134  71.5654831
   6.2280931   8.4002953  72.5130310   6.5055079   9.0948601  71.1971207
  12.3946438  71.6437225  50.6026878  12.1220608  70.7374191  50.7460403
  13.3508949  71.6138916  50.6331177  79.3102112  57.8289185  44.3101425
  79.8160019  57.4365959  43.5984612  79.9477997  58.3500671  44.7981224
  10.7785072  49.7753105  18.2711754  10.4704990  49.6231346  17.3777523
  11.7198143  49.6060562  18.2320976  42.8191757   3.1150217  15.9187346
  42.1917534   3.2050385  16.6359997  43.6579285   2.9581816  16.3524761
  65.1163101   9.8579626  71.5972977  65.2510834   9.5647726  70.6961288
  65.7602158  10.5553045  71.7211227  57.2084618  31.3763905  71.3662491
  56.5639381  31.8411732  71.8999176  56.6914749  30.7553425  70.8531647
  44.9431000  10.9525671  31.7829819  44.6754074  10.0761919  32.0596390
  44.7509232  10.9769516  30.8455906  15.0714626  21.4391422   5.5557475
  14.2600708  21.7079563   5.9865785  15.1540022  20.5076904   5.7602329
  25.8890476  64.9998398  82.9152374  25.9560165  64.3510818  82.2146149
  26.7373505  65.4432449  82.9129715   8.2749128  42.8190041  40.9038620
   7.8498311  43.0480347  41.7303505   9.1661425  43.1571198  40.9911537
  44.6288681  70.2147064  18.5674572  44.4694519  70.5142670  19.4624882
  44.3911934  70.9621887  18.0188026  15.1789951  60.0950546  43.3900642
  16.0607052  59.8792839  43.0863190  14.7155428  60.3749657  42.6007042
  65.5503693  70.9248810  84.4526901  66.2181396  71.5927505  84.6084824
  65.4343262  70.4994507  85.3022614  66.9357681  32.4688683  35.8222351
  67.6345596  32.6563950  36.4489403  66.2142258  32.1410751  36.3590355
  82.4281540  62.5531387  36.3948555  82.5077438  62.5239143  35.4414177
  83.1787262  63.0731468  36.6820297  11.0974922  68.7552719  75.8693542
  10.9974184  67.8040543  75.8317490  11.9175177  68.9282990  75.4069138
   6.7738805  18.5658283  56.2867432   6.7801299  17.6137218  56.3851624
   6.5392823  18.7103252  55.3700562  42.5710449   7.6098666  29.2215118
  41.9537811   7.6977534  28.4952259  42.0292740   7.6865411  30.0069008
  35.9495583   4.5795712  67.4274979  35.4903717   3.8023264  67.1092606
  35.3684082   5.3077760  67.2079086   4.7833781  17.6810360  44.3656998
   4.8261833  16.7821674  44.6919441   4.1036854  17.6592312  43.6920738
  44.4420280  53.3846359  75.3817673  44.5646133  53.1013069  74.4757156
  44.9191704  54.2123528  75.4405136  14.9322453   1.4085542  26.3973961
  14.6230469   0.5989010  25.9910851  14.1326818   1.8859807  26.6187420
  60.9577713  38.0925827  53.6216965  60.7883492  37.1552925  53.7166824
  60.0950661  38.4774742  53.4673309   8.3104906   5.4279451  61.5010872
   8.0237703   6.2393026  61.0818977   7.5359902   5.1121783  61.9665680
  72.3355026   7.7057509  36.7789116  71.5462494   7.5882630  36.2502289
  72.0813065   7.4184480  37.6558838  58.1126785   7.1791086  88.7621841
  58.0667419   8.0987988  88.5008621  59.0332794   7.0387168  88.9835815
  26.2051563  10.4697247  85.3194656  26.5435257  11.3545990  85.1825867
  25.8166542  10.2290936  84.4784012  55.8643684  70.8167114  46.9758949
  55.4112511  70.7969208  46.1329727  55.4522781  70.1192627  47.4857750
  13.6570168  20.4864902  62.8758774  12.8604078  20.2172089  63.3331871
  14.1805182  20.9265594  63.5455933  10.3906479  44.7325859  61.6462822
  10.9589615  44.0991516  61.2080879  10.9825220  45.2437096  62.1982498
  84.4137955  18.7284794  73.0562897  83.4865494  18.5007820  72.9883881
  84.7027512  18.8290958  72.1493149  33.3732796  28.5248890  31.2708473
  33.7768593  27.7394753  31.6402836  33.4900970  29.1940365  31.9452572
  21.8495274  13.5379515  57.2161789  22.4471588  14.1938095  57.5752335
  21.8620701  13.6939392  56.2718582  66.4837723  43.7623482  74.6553421
  66.2862244  44.3582764  73.9327850  65.6605225  43.6904030  75.1383743
  44.3689499  68.6829758  85.1038055  44.8482246  68.9969711  84.3370438
  44.7723885  67.8397141  85.3096542  62.9692726   8.4512358  78.1089783
  62.5741920   8.9370117  78.8329773  62.2398148   8.2688103  77.5166626
   1.3507717   4.5818996  10.2132959   1.7543964   5.4421597  10.0980940
   1.8455577   4.1787829  10.9266787  55.9816551  70.1975784  21.2919884
  56.1867027  69.4263458  21.8205547  56.1918259  69.9362793  20.3954506
   6.4666800  26.6994762  47.1332016   5.9845862  27.4226112  47.5343170
   5.8096595  26.0151558  47.0056801  75.4332428  11.2780113  85.8054810
  75.2102737  10.3806458  85.5579910  75.9263000  11.6170349  85.0583572
  82.9053040  61.8154831   8.7567263  82.2615128  61.6461411   9.4445353
  82.7172775  62.7082634   8.4672155  85.9173279  68.9435272  15.5822973
  85.2007675  68.3178482  15.6885576  86.0943222  69.2578278  16.4689331
  81.5773697   5.5006142   5.5652785  81.7036896   6.0757546   6.3199229
  80.7384872   5.7736282   5.1938276  47.1807747  49.1143265  33.5838280
  47.4403191  49.9558449  33.9589539  46.9553680  48.5738754  34.3410187
  59.5277023  71.2408752   7.2203779  60.3372459  71.2352829   6.7096519
  59.1434174  72.1009750   7.0507269  43.8852119  35.1136322  30.0329514
  43.7264633  34.1862755  30.2091274  44.8026085  35.2488937  30.2702732
  63.2422333  36.2804146  67.3250656  63.9619637  36.4168320  67.9411850
  63.0152817  35.3556633  67.4228287  71.7112350  63.5132675  49.3449707
  70.9084854  63.9048157  49.0007133  72.3949966  64.1519165  49.1429024
  32.5824432   5.6726885  40.5643044  31.7036419   5.6233959  40.9404907
  32.4361115   5.7239313  39.6197472  65.9456863  29.4825344  77.2889633
  65.8453674  28.8132496  76.6120377  65.0531082  29.6568909  77.5875320
  15.8654861  46.4802628   1.9379286  15.0285635  46.9228859   2.0789173
  16.4558277  47.1729698   1.6414711  10.2144051  54.6090775   5.6478014
  10.5319157  55.4518623   5.9720459   9.8879042  54.7984772   4.7681670
  30.7938461  60.9749870  46.9828300  29.9823990  60.7833939  47.4530182
  31.1964989  60.1182518  46.8410301  74.5835114  25.3300056  41.7422638
  74.7613449  24.3894825  41.7468414  74.2180176  25.5088749  42.6086693
  59.0870972  11.2226276  32.5596123  59.3879890  12.1302385  32.5155907
  59.8883476  10.7094603  32.6639671  73.7567215  46.4216347  38.4925804
  73.8394928  46.2029724  37.5643730  73.0742722  45.8341293  38.8171158
  68.6688538  36.9763451  53.9451752  68.6909256  36.7766991  53.0092888
  68.8615417  36.1418800  54.3726959  14.9501705  41.4238396  33.5231514
  14.6567574  41.6219254  34.4124794  15.7554083  41.9305954  33.4181557
  77.6270218   3.7645683  83.9397964  78.5425491   4.0434728  83.9240952
  77.5617828   3.2000887  84.7100830  47.5856895   0.9373313  12.4532118
  48.1233177   0.8916482  11.6625786  47.9854317   1.6333147  12.9747915
  60.6954041   7.1265440  82.8030777  60.2921410   7.9885659  82.7004776
  61.5424614   7.3054495  83.2113953  34.9028015  67.4500656  11.9927988
  35.1337471  66.6683731  12.4946432  34.2726898  67.1397095  11.3425140
  82.3746490  70.5902481  41.6785126  82.8476028  70.8011246  42.4835434
  82.3775635  71.4063110  41.1782532  85.0038223  43.9563446  43.5575027
  84.7698669  44.6664658  44.1551895  85.7998734  43.5799103  43.9327736
  47.8093262  56.4195251   3.6069381  47.6822662  57.3671265   3.6531734
  46.9630966  56.0516968   3.8615582  69.2108612  26.3423920  60.2912445
  69.2048569  25.7383614  59.5487213  70.1385193  26.4644718  60.4931870
  82.9095001  30.7053776   3.4953215  82.8706589  31.5907116   3.1335111
  83.8375702  30.5633125   3.6817102  63.5858002  70.7760010  13.2285509
  64.1717987  70.3635483  13.8631516  63.7506714  71.7139816  13.3246746
  55.0205650  41.6267204  40.4158707  55.2736664  40.7294579  40.6328735
  54.4994354  41.9163399  41.1647224  28.1311302  62.4854889  24.4308167
  27.4071026  62.8740578  23.9398670  27.9401016  61.5475655  24.4371758
  72.5985107  16.2115879  44.6908607  72.0781174  16.5604057  43.9671593
  73.4739838  16.5729485  44.5522957  70.1193695  43.7826309  67.5156708
  69.6240311  43.0064735  67.2540436  69.5100174  44.5097733  67.3884583
  27.6615028   4.1457114  60.5336647  27.9476109   3.6535618  61.3031883
  28.3649006   4.0235181  59.8960686  41.5333900  71.0334244  28.5700226
  42.3835411  71.2897263  28.2125473  41.4001541  71.6197052  29.3148403
   6.4320731  26.2653217  74.6410065   6.8175693  25.6530342  75.2676926
   7.1133542  26.3930340  73.9808731  26.0334206  43.3042717  36.9932137
  26.4936352  42.7273903  36.3835907  26.6899147  43.9504509  37.2534065
  52.5445480  36.2905540  24.9063644  52.1942253  35.4521828  24.6052971
  51.9817009  36.9467583  24.4954796  84.6108093  59.5894127  24.8764248
  84.5534134  60.4311447  25.3285561  85.4875870  59.5830994  24.4924164
  25.4548302  68.5653610  81.7575378  25.3706207  69.0808640  82.5596542
  24.7390575  67.9315262  81.8039246  63.6163673  49.8885765  45.6281128
  64.5706329  49.8474350  45.5655823  63.3112221  49.7447548  44.7323265
   7.4633951  67.7004166  41.9210358   8.3287544  67.6992874  41.5119133
   6.9384575  67.1173325  41.3726921  74.5317154  17.9878998  10.9644556
  73.7808838  18.5813026  10.9453888  74.2668991  17.2855740  11.5584650
  60.8160858  63.9246292  68.4249878  60.0891228  63.3340302  68.6223526
  61.2101746  64.1123962  69.2768478  80.4410477  18.4094257  51.1522064
  81.3255310  18.2535210  51.4832764  79.8745422  17.9040508  51.7352180
  67.9246902  17.7261219  43.0715714  67.8078156  17.0368004  43.7253380
  67.7129059  18.5355740  43.5365105  71.6153030   4.5468521  11.2100649
  72.5335541   4.7414284  11.0224705  71.2013779   5.4055638  11.2967205
  34.1845131   8.0271654  47.3514519  33.7976227   8.8246899  47.7127037
  33.9461670   8.0439281  46.4245529  36.1368294  42.8533287  19.1710644
  36.9604759  42.8322487  18.6838284  35.4623756  42.9418983  18.4976406
  12.7859745  -0.0688095  78.7099152  13.0216036   0.2233990  77.8293915
  12.2451525   0.6389233  79.0604248  30.1902809  46.6233482  16.5811501
  29.5949631  47.1428947  17.1214314  29.6368637  46.2747002  15.8822908
  85.9235840  59.0335007  65.8304520  86.3531494  58.4586639  66.4639053
  85.5168381  59.7162704  66.3639450   0.7336120  14.1043224  30.2481728
   1.6903985  14.0762558  30.2462482   0.5206094  14.9917688  30.5367908
  39.1960564  67.9465332  47.9970360  39.8166389  67.6153412  47.3478661
  38.8084183  67.1600113  48.3808937  27.7977505  63.5756111  43.5175819
  27.1223354  63.5840263  42.8393669  27.4666576  62.9667282  44.1777878
  73.3057327  47.1688004  31.8128147  72.5147400  47.6481895  31.5663319
  73.7832184  47.7715187  32.3828773   2.1387300  16.0275345  84.9249268
   1.6955780  15.2695065  85.3060303   3.0683625  15.8688745  85.0887604
  85.9948044  53.0647430  30.4324303  86.5381165  52.4662743  30.9451485
  85.0963287  52.8363686  30.6708050  70.9304962  65.1873474  55.4375153
  71.2521210  65.9002380  55.9893990  70.7260056  65.6055069  54.6011200
  41.8181496  16.5988483  86.0867386  41.5014534  17.4887524  86.2416840
  41.1475830  16.1990089  85.5329361  50.4283943  35.1924706   6.0222254
  50.1275139  34.4477539   5.5015516  50.2480392  35.9563026   5.4742570
  79.2499695  36.8703117  74.2423782  78.9723587  36.5811768  75.1116180
  79.7436905  37.6743202  74.4037476  21.9307346  59.6527252  72.2175446
  21.6929436  59.3242378  73.0846024  22.4794750  60.4170952  72.3932114
  77.2266159  46.0889435   8.4703836  77.5150070  46.9535294   8.7628765
  77.8102417  45.8753891   7.7423701  49.4348068  12.0832968  43.2407341
  50.3645744  11.8713923  43.1579056  49.3211136  12.3051367  44.1649055
  55.2432861  54.1906891  13.6297073  54.6404610  54.0852356  12.8936968
  54.8534851  53.6735191  14.3345623   8.3668213  67.1355820  13.9696398
   7.9436450  66.7571487  14.7403135   7.9022355  66.7491531  13.2273016
  50.5372238  11.7919359  36.2321472  50.7160301  11.1513815  35.5437050
  49.8159790  12.3186531  35.8877563   7.9696774  67.1258926  22.2456284
   7.1633129  66.9136963  21.7755432   8.6241493  66.5313034  21.8790703
  45.2892113  69.1387024  56.0299873  44.7935410  68.5660858  55.4446182
  44.6205559  69.6053848  56.5313148  78.5046844   3.8848042  54.4988670
  78.8555756   4.7700896  54.4020271  78.1417236   3.6755569  53.6382256
  84.0368729  28.9983807  75.4397659  84.2750626  29.4141941  74.6111526
  83.1626053  28.6404743  75.2855377  51.8338661  34.0499763  80.8996887
  51.9304276  33.4215508  80.1841507  51.3443375  33.5749588  81.5712204
  18.7379589  29.8771381  84.0342331  17.9663544  29.3226852  84.1501694
  19.4692707  29.3345928  84.3292923  23.9564667  69.5964355  65.5869751
  24.4554615  68.8186951  65.8366928  24.1674976  70.2428970  66.2606125
  75.3117599  50.2803993  87.5851288  74.4587631  50.1205101  87.1813202
  75.2462082  51.1668091  87.9403839   5.2888556  19.6439285  50.3771210
   4.4809942  19.6528339  50.8904572   5.2404642  20.4351730  49.8406296
  34.7306290  13.8425255  79.2414780  34.9818687  14.2893667  80.0498352
  33.9205704  14.2746668  78.9707565  32.0183754  57.2918205   8.8645668
  32.7526665  57.5956650   8.3309727  32.3625031  56.5329552   9.3356619
  85.2461624  66.8004532  47.2518425  85.1807404  67.3944244  47.9996071
  84.3951645  66.3635559  47.2178307  86.4502029  24.1650734  57.5588608
  86.4546890  25.0476551  57.9293518  86.9000931  23.6289196  58.2118378
   0.9664592  34.9929619  42.3785172   1.5330417  35.6174316  42.8315659
   0.0800592  35.3222961  42.5270653  22.5112381  56.0282402  43.3855667
  22.8812332  55.8882446  44.2571983  23.0926552  55.5453644  42.7981834
  23.4608383  11.9340544   4.7704139  24.2381573  12.1485062   5.2861848
  23.1321754  11.1230955   5.1584315  30.9764729  69.4576492  12.7124224
  30.4991608  70.2416534  12.4408569  31.8575172  69.7719421  12.9154387
  58.6059990  10.3875332  67.6062927  57.8345833  10.5463591  68.1502838
  59.0290337   9.6278753  68.0065384  32.1059227  65.3360825  77.6773834
  32.3223495  64.7344208  78.3897018  32.3676872  66.1971741  78.0033264
  40.0961876  70.3026505  63.4259186  40.5485229  69.4860153  63.6374130
  39.7316132  70.5975647  64.2603912  85.7331619  41.9049835  36.7720680
  86.4818726  42.4259453  37.0623436  85.4133301  42.3589706  35.9924278
  84.9139862  46.5540085  57.8532562  84.6343613  45.7821274  58.3454361
  84.0983124  46.9948158  57.6153450  65.4394455   4.8907795  57.3435593
  66.1284866   5.2892475  56.8118744  65.2138519   4.0850954  56.8785744
  48.3821754  61.0834465  58.8526077  49.0668678  60.4188995  58.7764511
  47.6334953  60.6147842  59.2214775  17.0081844  51.5844688  33.1474686
  16.2914963  50.9670029  33.0014267  17.7505398  51.0347672  33.3983994
   7.5036488  23.8494873   2.8398094   6.6374698  23.5229015   3.0833411
   7.3700428  24.7828598   2.6748936  65.8506012  45.4678802   7.0310831
  65.0971680  45.7771072   6.5281420  65.7908630  45.9356995   7.8640366
  57.7156754  64.7801208  42.3868904  57.7156639  63.8839035  42.7230759
  58.1585770  65.2902908  43.0649757  16.7463894  22.8377743  22.3699741
  16.3952923  23.2881470  23.1381721  17.0808353  23.5403385  21.8124981
  79.7182770  15.1470089  49.3065681  79.0383301  14.6408510  48.8619270
  80.2890625  14.4872150  49.7004089  51.2120628  71.0839462  12.7066002
  51.8581581  70.7940521  12.0625858  51.1997604  72.0372391  12.6211271
  33.9033508  63.1636848  72.6723328  33.5956917  63.5497742  73.4924011
  34.7632065  63.5591431  72.5291672  69.8888550  57.4405746  22.9900455
  70.4325256  57.7762947  22.2773476  70.4259644  56.7643471  23.4029160
  81.4059601  70.2565460  21.4670811  81.6962051  69.6415710  22.1407242
  82.0306168  70.9800339  21.5180893  80.3152924  66.2855759  22.9928417
  80.7840118  67.0813141  23.2444935  79.7196274  66.5678406  22.2987633
  34.4381065  40.1116867  85.7671967  34.0216484  39.2563095  85.6617126
  34.2119713  40.5883064  84.9684982  32.7010002  47.8186913  82.1602173
  33.3914261  48.4053993  81.8514862  32.6554031  47.1316795  81.4952621
  26.9568863  69.4671631  -0.0473045  27.5446758  69.5246735   0.7059733
  26.2843494  68.8410797   0.2209326  76.4437485  59.9206734  11.0341454
  75.7119217  60.2264404  10.4982691  77.1826859  60.4657974  10.7638721
  48.9238396  53.1810455  63.1466904  49.7495728  52.7316513  63.3267975
  48.3931198  52.5313187  62.6857910  83.3692932   8.0229530  59.5795326
  83.7737656   8.1463718  58.7208099  83.6415710   7.1456499  59.8486710
  75.9807587   7.8130617  30.8684959  75.8728180   8.7228994  31.1455822
  75.9350204   7.8466525  29.9129791   8.8550758   0.2722036  17.9976540
   8.8275795   0.5138516  17.0718670   8.3713398   0.9687989  18.4414845
  36.5110397  46.9673576  25.9294701  37.4197960  47.0662727  26.2133865
  36.3184776  47.7768402  25.4563007  38.9279289  31.1246910  16.1646538
  38.3172112  30.3925819  16.0793839  39.2264442  31.0830078  17.0731583
  27.8402233  10.9319258   5.3080659  27.4343719  11.4643316   4.6239157
  27.3013668  11.0873356   6.0837684  83.9009476  70.7203064  13.0944118
  83.1517563  71.2727356  13.3174906  84.6609268  71.2073212  13.4129839
  11.9306622   4.2094712  23.5282307  11.2846556   4.8801589  23.7497807
  11.5204344   3.7044179  22.8261852  45.6771278  46.7209854  25.4611320
  45.0152473  46.0396500  25.5791588  45.8860970  47.0084343  26.3499146
  80.3691254  13.3589344  27.0522728  80.7796402  12.6593800  26.5440102
  79.4556580  13.0867596  27.1401577  73.0894470  22.5712242  79.8743744
  73.8586044  23.0345669  79.5428009  73.0665207  21.7559452  79.3733521
  30.2979736  34.2946281  28.8895206  30.0111256  35.2067642  28.9337902
  29.9978333  33.9089508  29.7125645  84.9309235  59.8064384  16.6311493
  84.6498642  60.7119980  16.7622929  84.3413849  59.2906265  17.1812572
  62.0211372  57.9653664  22.3064861  62.3082123  57.9342117  21.3938808
  61.6645622  57.0932503  22.4753075   6.5402346  59.0144424   6.9175377
   6.7608824  58.9147301   5.9914684   7.2917647  59.4716110   7.2949386
  29.9899044  26.2982903  33.3511009  29.0756741  26.2317390  33.0754433
  30.2912407  27.1288528  32.9828720  32.4328575  40.5140114  79.2918396
  32.8440628  39.6505470  79.2522659  31.4981995  40.3301086  79.3857956
  78.9714355  36.5764847  25.9843884  78.1224823  36.2909164  26.3219681
  79.5801010  36.4244308  26.7073231  73.9983292  15.7337303  88.4614487
  74.2990570  16.6182976  88.6696243  74.7325668  15.3348074  87.9945602
  17.0078983  61.8711815  15.8925505  17.7472572  61.5783691  16.4253159
  16.4671841  61.0890083  15.7827263  66.7665863  33.6618690  68.2906799
  67.1641846  33.8507233  67.4406891  67.5062866  33.4453506  68.8583069
   5.1619925  37.0221672  39.4771957   5.1617584  36.7924576  38.5479698
   4.2454076  36.9471970  39.7426834   2.2884288  46.9684410  32.2689552
   2.7913551  47.0407753  33.0801659   2.3095601  46.0353699  32.0564384
  16.7923622  39.6358986  15.0409832  16.2843990  39.3689194  15.8070955
  16.1388359  39.7663155  14.3538675  65.4353867  49.8952408  86.6669006
  65.5277557  49.8356323  85.7160339  66.3326111  49.9779472  86.9899750
   2.4749815  26.2947636  14.2186556   2.2310379  27.1219540  13.8033495
   2.3944213  25.6438313  13.5214977  79.3703918  32.8437843  32.5073509
  79.4239807  32.2231178  31.7806206  80.2821503  33.0446167  32.7185249
  15.3942947   6.1332750  10.2450733  15.9649096   5.6816235  10.8668785
  15.3754816   5.5610366   9.4779873  27.4889851  44.1528778  83.6694489
  27.8806038  43.2971611  83.4944687  26.7431660  43.9630852  84.2386246
  47.2247276  44.3939552  72.2684555  46.4112740  44.7687302  71.9307098
  47.4843979  43.7510986  71.6084976  48.4753075  62.4966049  18.3116016
  48.6233444  63.3721695  17.9542484  49.2217178  61.9827385  18.0033112
  44.2786293   5.9617949  83.3954773  44.1021500   5.1336327  83.8418350
  44.6485214   5.7046123  82.5509262  78.1420746  37.4689941  53.0387268
  77.4622421  37.5773582  53.7037964  78.6371307  38.2877617  53.0666466
   5.9326429   3.0303748  11.6419067   6.5108647   3.7274935  11.3322029
   5.0655227   3.4345601  11.6730270  69.2200775  32.3277473  68.7777100
  69.9361801  32.9458084  68.6313477  69.6376495  31.5699329  69.1870728
  60.0664825  54.5972481  18.4335155  60.7204933  55.2508202  18.6811905
  59.8097153  54.1899109  19.2607880  14.1873884  67.0373535  58.8686447
  14.7815647  66.8126984  59.5846901  13.3912296  67.3413239  59.3044968
  21.5742435  44.0062675  32.0330429  22.1389103  44.0860901  31.2642689
  20.6862717  44.1035767  31.6891441  17.6520691  40.7229958  75.2008133
  17.8955803  39.8597260  74.8665924  16.7400494  40.8351059  74.9327011
  86.1932907  49.1396179  79.1985016  85.3629990  48.6842346  79.0589600
  86.5457153  48.7546196  80.0008698  67.4887390  70.2329407  21.2954998
  68.0537796  69.4620667  21.3475361  66.9962845  70.1145554  20.4832783
  68.6921463   3.8433108  74.8214111  68.8524551   4.7732739  74.6610947
  67.9134750   3.8269386  75.3778687  44.2177429  69.6241379  34.7533150
  44.7465401  70.4219742  34.7454414  44.8294754  68.9338608  35.0092926
  56.2306404  31.3465328  66.9791870  56.9769287  31.6176052  66.4445801
  56.1110039  32.0619469  67.6037750  50.2970428  59.0540924  59.5500221
  49.9595985  58.2017441  59.8254509  50.7242088  59.4062767  60.3308716
  53.6065140   7.1398950  56.5797615  54.5022163   7.3205338  56.2946014
  53.7028236   6.7937679  57.4669800  29.5149975  44.0199089  11.8507538
  29.7398548  43.9216423  10.9255428  29.2530651  43.1420212  12.1281271
  83.5793610  39.2841682  57.6553192  83.8780670  38.4193954  57.9366989
  82.6780777  39.1435738  57.3652344  45.2385902  25.1332321   9.5216951
  45.2946815  24.9176540   8.5907745  44.2994308  25.1824932   9.6999741
  53.3045158  49.9941063  16.0025673  53.0581055  49.6338348  15.1506767
  54.2312508  50.2151337  15.9101543  80.7067261  43.0874901  35.3249664
  81.5999374  42.7533798  35.2426682  80.7604752  43.7469978  36.0166245
  59.1731300   5.3686256  15.7150917  58.9989433   5.6077857  14.8047667
  58.3054428   5.2632594  16.1052837  56.9952087  71.4578476  75.7650375
  57.4962463  71.0142593  76.4494553  57.5736084  71.4512863  75.0023804
  82.4965591  32.8040161  41.0734673  82.6643143  33.7031326  40.7911987
  83.3662415  32.4353867  41.2283516   8.6407280  57.0933304  58.7796860
   8.6153555  56.1707649  58.5257912   9.0768681  57.0953445  59.6317482
  19.0037804  13.6472950  25.0375175  18.8500652  12.9368401  25.6603012
  18.8154945  14.4446402  25.5325146  60.2385445  52.9969139  31.4779663
  59.6495094  53.7171326  31.2531128  59.8956413  52.2465897  30.9925175
   4.9336133  34.2826080  57.7179871   4.7691050  34.1336708  58.6491089
   4.0948353  34.1002350  57.2944031  16.5694103  65.6444092  27.5362358
  17.0708179  65.5388107  28.3447361  16.0953484  66.4675674  27.6541862
   9.7180758  34.6592903   4.6580625   9.1365900  33.9599304   4.3597255
  10.4644365  34.2015266   5.0448837  18.2482090  25.8395748  84.2356491
  18.2411747  25.8248405  83.2785873  17.6470451  26.5470428  84.4687195
   5.5528755  50.8530884   5.1842017   6.3964238  51.2973328   5.0987344
   4.9874892  51.2877655   4.5457449   5.8832188  51.4319191  42.9424667
   6.0529470  51.1830444  43.8510284   5.3450556  50.7203064  42.5957413
   2.3996108  57.5949249  76.9342575   3.0807903  57.0826149  76.4986420
   2.0581901  57.0119171  77.6123199  40.2910843  32.5704803  42.2048035
  40.3988304  33.3923416  41.7260818  41.1843338  32.2923126  42.4071884
  76.2046051  23.2214489  45.1447983  75.9193573  22.9949894  44.2595940
  76.8782349  23.8891659  45.0158997  48.2599983  39.3790550  69.3967743
  48.1751862  38.5636368  68.9026794  48.5040054  40.0322113  68.7409668
  60.9801102  27.8380642  22.7619991  60.8960991  28.1138172  21.8492374
  60.5429649  26.9872074  22.7963562   4.8098812  20.7905903  60.3129387
   5.5156054  20.8051338  59.6664314   5.2522616  20.6323013  61.1468925
  32.8910637  13.6731997  68.9958420  33.6156311  14.2927351  69.0819321
  33.2650261  12.8301725  69.2521439  65.4373245   5.9848747  28.0080128
  64.6160507   5.6072283  27.6931705  65.4499512   6.8693705  27.6423092
  10.6972837  52.3953400  32.9372368  11.3380232  53.0177345  32.5932770
  11.2088671  51.8075180  33.4930954  45.0612450  64.1252136  34.1343956
  45.1704063  63.6648445  34.9664879  45.6859093  63.7040710  33.5439186
  10.4252310  45.9329872   7.0912328  10.7080822  45.4003448   6.3479171
   9.4757185  45.9999504   6.9903646  41.7087173  13.0243788   2.9111888
  41.4608955  12.3448639   2.2842305  41.4102211  13.8406506   2.5101490
  63.6984825  59.3348999  72.5656204  64.3432617  59.2819977  73.2710953
  62.9748802  59.8375931  72.9396896  74.1637878  42.5211487  88.4460297
  74.8297882  42.0083809  88.9040070  73.7280121  41.8903732  87.8729172
  85.9848785  62.1697464   4.5954218  85.8691101  61.6127663   3.8256130
  85.1651917  62.6595421   4.6621208   7.3430772  65.5493851  82.3478546
   6.8313293  65.4715271  83.1530151   6.6900001  65.6832428  81.6609726
  41.8690033  18.3542118   0.3373595  42.7899704  18.1469746   0.4958092
  41.6822395  17.9741611  -0.5210773  68.4682846   3.4682736  70.7546921
  67.5876236   3.8252256  70.6395874  68.5684280   2.8419070  70.0378494
   8.3549747  52.8725891  21.9086132   8.9478416  52.6158447  21.2023392
   7.5202188  53.0406837  21.4713936  86.1545792  46.7040215   5.9610057
  85.7547913  47.0581131   5.1666369  86.8575134  47.3191795   6.1700511
  62.6538086   7.6338387  54.0809326  63.0030251   8.0951433  54.8434792
  63.0965614   6.7852502  54.0908699  58.7987938  40.0118065  49.7062721
  58.8718491  39.0800972  49.9131813  59.6723824  40.2590256  49.4030228
   3.4206707  37.2028198  68.6617584   4.3314219  37.3615303  68.9099045
   2.9075947  37.6402245  69.3412170   5.7769799  57.9503555  75.6050339
   6.5552511  57.5152473  75.2568893   5.4558206  57.3584862  76.2853165
  58.8101845  30.1347408  17.0393162  57.9446640  30.4537086  16.7836456
  58.9006577  29.2971897  16.5848331  65.0697784  32.2607841  74.8914719
  65.2955170  31.4722252  74.3980637  64.3843002  31.9768848  75.4962463
  20.6308937  56.9876404   5.3442378  19.9497986  56.5938644   5.8894730
  21.0091724  56.2509384   4.8642335  85.2880249  18.7014427  18.4499321
  86.0738754  19.2260418  18.6031456  85.4031525  17.9299412  19.0046959
  59.1652184   9.9333715  48.5369301  59.8124809  10.0047979  49.2384872
  59.6836319   9.9290733  47.7322845  86.0486832  42.4443741   8.3008833
  85.5293732  43.0634460   7.7877560  85.5148087  42.2683716   9.0756321
  51.4145279  10.9487419  82.5057068  51.0214043  10.0801620  82.5908813
  51.8314209  11.1070642  83.3526764   0.1101473  13.1721439  35.2418213
   0.7747890  12.9113598  34.6042671   0.2515799  14.1108017  35.3649101
  71.1586075  54.6718903  86.1154633  71.2333298  53.7981567  86.4991760
  71.3680496  55.2679787  86.8345261  79.1001053  38.7504654  48.1073608
  79.1678085  38.2464447  47.2964287  79.7707901  38.3762512  48.6786575
  15.7653856  69.1773758  46.2728577  16.4155960  69.5563965  46.8642960
  14.9487200  69.1948547  46.7718391  46.1750984  21.5963135  20.3263721
  46.6177559  22.3974266  20.0461884  45.4528542  21.4925365  19.7068367
  13.9234571  29.1829376  67.9477386  13.2288980  29.8383217  68.0132523
  13.5330849  28.4699440  67.4422913  71.7989578  54.9669800  36.2740059
  72.7126541  54.8524017  36.5352783  71.4734955  54.0762367  36.1440887
  59.0808525  29.2882214  89.3068542  58.4483643  29.9752750  89.0967407
  59.5413094  29.1265907  88.4833984  35.1974640  67.1322403  24.4294872
  34.2706299  67.3272400  24.2909546  35.5286369  67.8819122  24.9240036
  22.2629948  26.4798145  21.1093655  22.8662300  25.7560635  20.9404812
  22.0846863  26.8497238  20.2447243  83.7910919   9.5650797  13.6527853
  83.0748444   9.3710976  14.2574272  84.2860413  10.2620220  14.0835171
  49.6678467  32.5748444  22.9723835  49.3012085  32.6996880  22.0970421
  48.9584160  32.1734428  23.4741936  59.7514725  27.3917904  15.6946783
  59.5311394  26.9504108  16.5149651  58.9714165  27.2878819  15.1497507
   4.6698041  32.4111710  49.1926956   5.0716877  33.0688744  49.7602806
   4.5161657  32.8694611  48.3665009   8.2356348  67.3992081  44.6376457
   7.5350304  67.3857422  43.9855690   8.1059952  66.5979919  45.1450653
  13.6527042  57.8621788  69.6791687  13.6957045  57.6695442  70.6157990
  14.4754677  57.5228386  69.3268356  79.3864212  47.8428192  67.5830841
  79.1943588  48.1478043  68.4698334  78.9555206  46.9901047  67.5244904
  25.7229137  22.9560013   2.1063371  26.1806164  23.6246700   2.6158664
  25.6185741  23.3459263   1.2384069  61.6745987  40.5877075   2.8641284
  62.2454376  39.8286819   2.9835086  61.5373077  40.9256897   3.7490871
  21.5156689  16.6579170  85.7326355  21.7843933  17.1850986  84.9802322
  22.1911182  15.9836826  85.8061676  29.6587658  36.7089920  29.8978558
  29.9932480  37.6057968  29.8882179  29.6410847  36.4699059  30.8245468
  34.3144836  56.2167778  74.1731873  34.2103195  56.1599312  73.2233734
  35.1065063  55.7119942  74.3579178  69.8106537  61.6797028   5.3214407
  69.3633957  61.1570244   5.9870248  69.7196350  62.5828857   5.6250954
  33.6423111  17.1581688  76.8118591  32.7165833  17.3603401  76.6762619
  33.9688950  17.8799229  77.3491135  24.0488548  50.1218948  23.6065998
  24.2888546  49.1985741  23.6847534  24.7869282  50.5946083  23.9913368
  64.6856461  36.7274208  48.0494461  64.6644592  37.6116180  48.4154854
  63.7651443  36.5012436  47.9161911  49.7111855  12.6302872  73.7054901
  48.8026886  12.9191313  73.6192780  49.7450066  11.8007593  73.2290726
  68.4174881  30.4972458  10.2638397  68.6948090  30.0144901  11.0424747
  67.6403503  30.9799347  10.5454540  57.4947662  63.6352272   1.0635481
  57.7650871  62.7297668   0.9108889  57.1788940  63.6417847   1.9671047
  82.9076691  64.3527679  27.7242260  83.2211151  65.1913452  27.3854427
  82.8778915  64.4739151  28.6732616  27.1862717  50.7142906  82.8475723
  27.3010216  50.8226128  83.7916794  27.4912796  49.8245850  82.6697540
  57.7570496   9.1080227  71.1887436  57.5406723   8.2771912  71.6119843
  57.3401108   9.0544739  70.3287811  25.7917995  15.1267262  25.4887161
  26.6978550  14.9049530  25.2739773  25.2673988  14.4969597  24.9941158
  62.7369499  21.7699051  31.6208458  62.6247177  21.1988678  30.8608780
  63.6616821  22.0162735  31.6008358  84.9199829  44.1080284  27.4748554
  84.3894043  43.3512573  27.7238731  84.9817047  44.0538940  26.5211830
  61.1643410  11.4153452  41.0446892  60.2503204  11.3966875  40.7610550
  61.6094131  10.8028593  40.4590225  71.7229614  57.9677010   8.8012524
  71.0787506  58.2235374   9.4613829  71.8221359  58.7438660   8.2499266
  51.6184998  52.4213409  65.8384399  51.4630241  53.2821236  66.2271729
  51.7283821  51.8363228  66.5880508  23.6178818  14.4056253  15.8680859
  23.9424648  15.2150421  15.4734697  24.3488350  14.0876160  16.3980007
  75.8254623  23.8141003  50.0938950  76.5974197  24.3798065  50.1107101
  75.2550735  24.2068195  49.4330864  81.4252853  19.9310741  78.8575287
  81.3303757  20.8790474  78.7649612  81.3936920  19.7782841  79.8019257
  29.3906956   2.0922670   1.5144104  29.9398308   1.3082579   1.5108951
  28.5462418   1.7947330   1.1758839  17.1122742  31.1372852  62.5389137
  16.5296268  31.7890739  62.1491394  16.5298462  30.4289188  62.8131905
  35.3516273  52.3727837   5.0430532  35.0040207  52.3572388   5.9347696
  35.2671242  53.2859879   4.7689281  47.4516983  15.6007881  41.9814186
  46.8937416  14.8312712  42.0943947  47.2623367  16.1479244  42.7436638
  31.6570930   6.1414242  30.5063782  31.7219486   6.0366888  31.4556179
  31.3508415   7.0401425  30.3849430  41.3446960  34.0716820   5.3060865
  40.7582855  34.7700424   5.0151424  41.5472031  33.5814781   4.5092664
  68.4240265  57.7454453   3.5239983  67.7752609  58.2026787   4.0590420
  68.0155563  56.9044151   3.3189356  52.8247337  51.8046722  10.3076010
  52.9939995  51.0690613   9.7189960  51.9855537  51.5951614  10.7176170
  73.4236679  41.8932571  30.9406834  74.1105957  41.2342873  31.0413170
  72.7197266  41.5953445  31.5168285  30.2326069  21.8041744  63.4567909
  29.4588337  21.5576057  63.9634552  30.8662872  22.0939579  64.1130753
  26.2481747  54.1121635  29.6597309  27.0868778  53.6517601  29.6887131
  26.4849339  55.0372353  29.5932407  53.7247391  35.6098480  87.4870224
  53.8819389  35.8940964  88.3874207  52.8747711  35.1708260  87.5193939
  24.6106663   3.8771451  52.9009705  23.8917122   3.3053277  53.1699715
  24.6483212   4.5503531  53.5803871   9.5524750   9.0538197  74.2760086
   9.0378799   8.4231014  73.7723999  10.0148191   9.5683575  73.6144028
  41.1100121  14.0340900  80.4739990  40.6718445  13.9658661  79.6257095
  41.9967194  13.7119293  80.3121567  30.6670399  35.4224625  83.8423538
  31.4777393  35.7532463  83.4555969  30.0096798  36.0822678  83.6215210
  44.6654663  62.4974289  36.4204979  44.0685883  62.9518127  37.0150566
  44.1266479  62.2806816  35.6596222  21.5570641  63.6828041  34.9729271
  21.7295628  64.2438583  35.7290344  22.3382168  63.7701836  34.4266663
  60.3410683  54.4372597  42.0372314  60.8612061  55.2235489  42.2028732
  59.9878807  54.5648041  41.1567650   6.0526738  63.7005157  39.5318222
   5.4044161  63.4220161  38.8849564   6.8420477  63.2078743  39.3072662
  22.9879246   6.2737002   8.6995506  22.0934067   6.6124225   8.6629944
  23.3216133   6.5694938   9.5465403  84.8975220  48.9085655  37.5984116
  85.8039246  48.6021004  37.6255608  84.4489136  48.2797623  37.0330849
  41.7925797  44.9963379  28.4324150  41.1832466  45.1006279  29.1632156
  41.3027115  45.2976570  27.6672554   1.5022787  43.8343086  18.7616692
   0.9188434  43.3928719  18.1444454   0.9789394  43.9333000  19.5569973
  76.1346283  23.7561054  64.2564163  75.1939697  23.8691425  64.3928909
  76.5238419  23.9327946  65.1128769  15.2782412  59.8924141  46.1886101
  14.6519690  60.5981560  46.3496666  15.3809128  59.8758202  45.2370796
  58.2795601  56.8843994  48.8957787  59.0197792  56.3676186  48.5775871
  57.5125732  56.3413124  48.7140579  64.8106079   2.6513994  55.9623795
  64.5763092   2.0678277  56.6840324  63.9724998   2.8939016  55.5686836
  56.0304260  63.0906715  10.5307627  56.6814995  63.6984367  10.8814163
  55.9654770  62.4015656  11.1919317  57.8967781  64.1819763  76.8368378
  57.5109253  65.0199203  76.5814972  57.8901558  64.1969681  77.7938919
  72.3625946  34.5425682  83.0522003  71.6994019  33.8540344  83.1005096
  72.0163422  35.1641121  82.4118652   4.1181779  20.4518414   6.8292460
   4.7444520  19.8121910   7.1681542   4.4586663  21.2977924   7.1202211
  65.2482376  57.2995224  49.4846954  65.2551880  56.3469086  49.5779953
  65.4935532  57.6267395  50.3501320  62.5547333  10.4685812  58.7810173
  63.3597031  10.4530020  58.2633209  62.2815590   9.5523262  58.8266792
   9.1367569  21.7826786  47.6070824   8.4459963  21.2377663  47.9841118
   8.9385338  21.8069687  46.6709480  76.8758774  63.1658897  61.8313522
  76.6600342  62.2901077  62.1517334  76.0368500  63.5322533  61.5519943
   8.3669949  47.1777306  77.4509583   8.1283207  46.3367958  77.8409500
   9.0034428  47.5521812  78.0600204  72.0109940  39.7836609  51.3712387
  72.3692245  39.9202538  50.4941711  71.2947617  40.4151077  51.4384308
   6.8064251  16.0922489  61.8005600   6.1729479  15.4378147  62.0949326
   7.4660630  16.1158714  62.4937782  41.1410904  19.1752129  56.8093491
  41.9424896  19.0506096  57.3177452  41.4472656  19.4083767  55.9329185
  83.6861115  43.3206863  80.9972229  84.4561996  43.0188675  81.4789963
  83.2184372  42.5181274  80.7661285  66.6546860  71.2277451  88.1562881
  66.2311172  72.0131683  88.5025940  66.0217361  70.8686905  87.5344467
  41.8245964  45.5469971   3.9671788  41.4770851  44.8178978   3.4534841
  41.0503769  46.0430527   4.2331634   3.5983152  14.7071075  30.3604717
   4.2368155  14.1703644  29.8909435   3.6160772  15.5507126  29.9085350
   9.5782623  28.5803833  35.8129463  10.3783569  28.0989513  35.6024628
   9.6111155  28.6960068  36.7625694  28.6972446  22.8119640   4.7746944
  27.9034824  22.2770138   4.7767563  29.3079739  22.3364964   5.3378754
  70.8239059  15.0642242  20.9265785  71.6801071  15.4084263  21.1808777
  70.9648438  14.6901169  20.0568600  26.7153358  15.1777506  86.7479858
  27.1517982  15.8809204  86.2670670  26.9653225  15.3208618  87.6608200
  79.3518143  66.8269882  16.8032551  79.5393906  66.5307693  15.9125776
  79.0240097  67.7197342  16.6947193  55.1593742  68.5011978   0.5623966
  54.5235634  68.4953842   1.2778982  55.7872429  67.8169403   0.7943516
  66.7337952  32.5315971  51.0601959  66.2748032  32.9778557  51.7718239
  66.2848663  31.6904068  50.9759865  85.3331146  38.3372459  69.8964920
  85.0724106  38.5901031  69.0108643  85.0720367  37.4192886  69.9701233
  50.4174652  13.5536976  14.7129288  51.3014336  13.3771152  15.0348711
  50.4598045  14.4483662  14.3752766  38.7904282   9.2470007  33.6409454
  39.5412750   8.7829638  33.2706375  39.1640091   9.7943296  34.3316727
  15.1616182  61.3326035  73.3766251  14.8049784  61.6866837  72.5619659
  16.1062870  61.2932014  73.2273636  10.8005610   1.4695902  80.1679611
  10.4287291   0.6284203  80.4332962  10.2542810   2.1219320  80.6064301
  37.0063591  29.6772118  24.9110832  36.3131294  29.5241661  24.2690239
  36.8637505  29.0089645  25.5814133  24.7986088  36.0400124  17.0615082
  24.4650688  35.9399452  17.9531193  24.0368252  35.8876534  16.5023060
  70.6556091  68.6044159  73.5989075  70.2867584  67.8917084  73.0771637
  70.1782913  69.3830032  73.3122025   6.6909723  12.8925295   9.7117395
   7.2318993  13.1396513  10.4617796   5.8231931  12.7351189  10.0837784
  84.1979141  53.1296158  11.5038404  84.9491577  53.6359901  11.1949015
  84.2331696  53.2062721  12.4573135  71.2772141   6.6054721  80.8545532
  71.6725845   5.9109778  81.3814163  70.3342972   6.4712124  80.9500275
   6.9267063  21.2351017  58.1187172   6.8504567  22.0235691  57.5813751
   6.8992114  20.5134907  57.4904213   8.2699127   6.8234057  46.7185326
   7.9752555   7.1762400  45.8789406   7.4672980   6.5308342  47.1503220
   4.0076137  58.9913177  69.9393616   4.4631448  58.4403992  70.5759277
   3.7910373  59.7880211  70.4237061  77.1200943   7.3458309  69.3365097
  77.8847885   7.5406494  69.8782883  76.9730606   8.1464920  68.8329697
   8.2039709  10.7186060  55.4715805   8.9192610  10.0826569  55.4843102
   8.5878849  11.5181236  55.8316002  49.5141029   5.8957372  70.6329422
  48.7809067   6.0766740  70.0447922  50.2304802   5.6411648  70.0513687
  60.7778015  52.9165344  10.7023020  61.2390060  52.7427025   9.8817511
  59.9463425  53.3060913  10.4318371  43.9023552  40.5160637   7.7300591
  44.1359253  40.9857903   8.5307055  44.1345863  41.1178970   7.0228820
  67.0853271  32.1812439  44.9569817  67.4069443  32.7977867  45.6147537
  67.1942596  31.3207130  45.3617706  38.4500084  25.3787251  20.6271133
  39.1536140  25.9095058  20.2536964  38.5282440  25.5080471  21.5723038
   6.9757643  31.5643997  60.0725021   7.1728010  30.7099762  60.4563904
   6.9732213  31.4078617  59.1281929  50.5728645  59.9660149  62.5028992
  49.9024048  60.5619278  62.8369713  50.6771431  59.3114662  63.1934967
  76.9584351   7.2442732  44.3296356  77.3569717   7.6211281  43.5451736
  76.2321701   6.7156606  43.9989700   2.9738421  14.6839523  77.2010040
   3.8783965  14.4113865  77.3550186   2.7077136  15.1040316  78.0188904
  68.0024948  48.3188972  77.9242630  68.2833557  47.9183693  78.7470169
  68.7676849  48.8086205  77.6228027  15.1484127  41.4480362  29.5979652
  15.7116451  40.6742249  29.5830994  14.5513573  41.2956581  30.3304539
  45.2861137   7.4120135  77.1890182  44.4502258   7.0232754  76.9313202
  45.0884972   8.3392572  77.3209229  55.2580986  62.6645508  31.3404541
  55.4101105  62.2951126  30.4706039  54.8299370  63.5040436  31.1726475
  51.6907196  55.6262093  23.0373077  50.8864136  55.6716118  23.5542812
  51.4419136  55.1433563  22.2491550  47.5347290  64.7131653  10.4962549
  47.2321663  65.3383408  11.1549177  47.6392097  65.2351456   9.7007341
  15.1967707  26.7506733  32.2290878  15.2323942  26.0388222  32.8680153
  14.6014071  26.4334354  31.5500183  28.7469425  18.9748096  15.7479963
  28.3735294  19.1603413  14.8863859  29.3169212  18.2193432  15.6043825
  19.6214924  52.4477882  88.0681686  18.9365177  51.7857056  87.9749451
  19.4922295  53.0328979  87.3217392  79.6174393  45.4991531  64.7620697
  79.5012207  45.3395462  65.6986847  78.8414612  45.9976349  64.5059433
  49.0485039  69.6699600  76.3971634  49.5631981  69.0119934  76.8645020
  48.8293762  70.3206787  77.0640793  73.9807587   4.6971765  21.7904987
  73.5774536   3.8785648  22.0793819  74.8941727   4.4671440  21.6202431
  44.8614922  62.2848930  65.1690674  43.9969292  61.8793297  65.1036682
  44.8377609  62.7675400  65.9953384  83.8378677   2.9708381  82.5224304
  84.0807114   2.8659823  81.6025009  82.9824219   2.5473869  82.5940933
  85.4101105  21.6886711   2.8461294  86.2525253  21.6002579   2.4003155
  85.1807022  22.6123142   2.7437136  34.6202507   6.2682672  65.7431030
  33.6822510   6.4477954  65.8075409  34.7561760   6.0306745  64.8258743
  47.4750710  42.1986389  29.2002716  48.3845825  41.9086418  29.1301079
  47.4176445  42.9514503  28.6118736  72.5352859   7.1250601  69.0752487
  73.3202896   7.2749109  69.6020813  71.8346710   7.5615172  69.5598907
  16.4602718  57.8210030  63.0101280  16.4615555  56.8696785  62.9042511
  15.5332031  58.0579338  63.0353661  17.5454750   9.1820879  84.5894547
  18.4975662   9.1305380  84.5052109  17.2466965   8.2784939  84.4870758
  84.1726761  57.4321594  47.0737572  84.3681030  56.7138824  47.6755142
  83.4894867  57.9360008  47.5160522  72.7289200  68.4879990  88.3777161
  73.3860626  67.9375229  88.8035889  73.2303391  69.0359650  87.7739487
  80.8923798  59.5971260  63.7453308  81.3281021  58.7793694  63.9854393
  80.6979523  59.5001640  62.8131142  27.5316963   2.6996384  22.7980156
  28.3969345   3.0783355  22.9535313  27.0515232   3.3832312  22.3307190
  15.2622700  11.7055531  68.5768433  16.0940132  11.4467821  68.1800156
  15.2384186  11.2361307  69.4106903  63.8608246  29.5413227  36.6464462
  64.4364777  30.2164955  37.0056076  64.3622589  28.7301865  36.7292671
  47.1880264   6.7608824  33.4659348  47.1706772   6.6530952  32.5149803
  47.3347893   5.8776512  33.8044510  55.1550751  25.2704506  21.0383587
  54.7563820  24.4135742  21.1901398  54.5271530  25.8946133  21.4021759
  47.5545235  51.3717155  25.8550491  48.0400391  50.5664978  26.0343056
  46.7295532  51.0737000  25.4718475  18.1560268  18.3572884   1.6278813
  18.7001534  17.7709370   2.1535723  18.0648174  19.1446972   2.1644433
  48.9141235  66.5649261  81.7508087  47.9790993  66.7248230  81.8788452
  49.2717133  67.4183502  81.5058060  49.0352669  61.8247681  52.9600258
  49.6676369  61.1186028  53.0929604  48.4338379  61.7503242  53.7009544
  71.3362961  70.4931946  59.5817032  71.2898178  71.3915176  59.9089584
  72.2556534  70.3720169  59.3443718  50.9404564   3.0006499  56.4305000
  50.0573959   2.6606636  56.2861290  51.4164925   2.2705321  56.8261681
  41.6775970   4.1585336  30.2740955  40.8710670   3.9205124  30.7313557
  41.4418030   4.1389170  29.3466015  76.0439606   9.3198709  49.5047798
  75.1177979   9.1051159  49.6157990  76.0438919  10.1037436  48.9554405
  25.5014420   5.6292601  75.5735626  24.9407845   6.2023063  76.0965500
  26.3095093   6.1283636  75.4545898  26.1724358  12.1708746  23.3754139
  25.4051914  12.7371788  23.4582977  26.5849476  12.4448118  22.5562534
  54.8421745  26.1036758  41.6229935  55.3852158  26.7675228  41.1979675
  55.3607788  25.8148613  42.3739014  26.6484604  27.8969803  28.5714283
  26.7957573  27.0269470  28.9423389  25.7111187  28.0516758  28.6884270
   4.3785090  27.6437473  15.6976299   4.5193849  28.3347797  15.0504370
   3.7275412  27.0683899  15.2958384  52.4832878  71.4248734  72.1173935
  52.2216835  70.5670624  71.7827988  51.8827553  72.0396652  71.6959457
  31.2892265  58.4220276  31.8589134  31.8918591  57.9703369  32.4497108
  31.0978222  57.7800064  31.1752415  10.6652546  58.5000343   1.3673753
   9.8220930  58.0501404   1.3134555  11.2851067  57.8971367   0.9568523
  66.4868851  38.3415680   7.9013605  65.9786835  39.1475639   7.9926481
  65.8687210  37.7087555   7.5357819  74.6303787  51.2530251  18.8678284
  75.2884521  50.5580978  18.8835659  73.9319305  50.9344711  19.4395943
  85.2808456   2.1134048  73.6945801  85.6663513   2.9277437  74.0177917
  85.7190475   1.9563918  72.8581848  38.3397102  28.4351082   6.7567010
  38.2100410  27.6896534   7.3429718  39.0066185  28.1393127   6.1370454
  39.2378731  43.9928627  45.3434601  38.3309631  43.8528748  45.6157646
  39.4798355  43.1843758  44.8917542  80.4677582  25.6232033  57.2204628
  81.2075348  25.0208530  57.2988167  80.8373871  26.4041977  56.8085747
  75.9832764   0.1816999   4.6952591  76.7224045   0.4920427   5.2183294
  76.3818893  -0.3645383   4.0177884  27.5149517  69.2274704  67.6771317
  28.1833153  69.0311813  68.3336334  27.7097855  68.6337433  66.9520416
  81.7358475  45.3691254  83.2567978  81.3253479  46.2203445  83.4089584
  82.1151962  45.4393234  82.3807831   8.3838091  13.0159521  83.3396301
   8.9680777  12.3458166  82.9849777   8.2203264  12.7384825  84.2410278
  35.1682854  36.1138306  40.5515099  35.5501595  36.6628952  41.2362976
  34.7747154  36.7346649  39.9384041  74.2554855  14.4064322  18.7980194
  74.2004318  15.0896492  19.4661617  74.1449661  13.5882692  19.2824020
   0.4504377  46.5605927  76.6694107   1.2737409  46.7584038  77.1158142
  -0.0245130  45.9980049  77.2810898  14.9570055  43.1142387  15.0240345
  14.7927971  43.7890015  15.6827898  14.1307573  42.6351242  14.9608097
  41.4414482  60.1421432  17.4149456  40.7078896  60.4970055  17.9171410
  42.2143555  60.3518791  17.9392147  84.2112427  50.1615601  39.8914413
  84.5938721  49.4496727  39.3785591  83.2845078  50.1580849  39.6519012
  12.2496090  47.1483459  36.1809540  12.7947779  46.7863731  36.8795242
  12.8220625  47.1636467  35.4139519  42.0489235  54.3818054  68.0053940
  41.3601952  54.0715408  67.4174957  41.9949226  55.3361511  67.9549637
   3.8411841   5.5305176  65.6845016   4.1201110   4.7281942  65.2432404
   4.6563392   5.9408102  65.9733124  82.2232361  69.8224716  50.0230026
  82.7215042  69.1504059  50.4880714  82.7178268  70.6293869  50.1661987
  51.3088112  63.4681778  34.5734749  50.7850037  62.8882446  35.1262283
  52.0042381  63.7848434  35.1499634  38.9012184   4.7315764  76.3493958
  38.1658058   4.2909489  75.9236603  39.5113716   4.0260158  76.5641708
  66.0214005  49.6066818  18.4147511  66.3230972  49.8038559  19.3015041
  65.1997910  50.0901108  18.3282547  73.6935501  28.8261147  62.1973495
  73.8469543  27.8898468  62.0704575  73.3490067  29.1284161  61.3570328
  32.4085541  69.4348068  18.1234741  32.5507469  68.6800385  17.5522175
  31.8993702  69.0881195  18.8561192  24.3786316  18.2815685  16.0841656
  24.9819717  18.3258553  16.8259563  24.6613312  17.5113411  15.5911512
  27.1159172  49.3064728  77.2385712  26.4547672  49.0589905  77.8849945
  27.0589466  48.6279106  76.5658646  37.7771683  31.8731556   0.7134081
  37.5735855  32.7954521   0.5579840  37.0134964  31.4002666   0.3826289
  54.7154388  55.3547516  30.7521515  53.8093033  55.2834358  30.4520416
  54.6980820  56.0578995  31.4013920  10.2573996  22.3093281  21.6681709
  10.2440453  22.5863895  22.5842991   9.3705311  22.4827518  21.3525448
  58.4193382   5.6537223  13.0941944  58.4112930   5.4575386  12.1573486
  58.1007309   6.5544219  13.1530313  80.2622070  39.8396416  12.0365124
  80.8255692  39.6014595  12.7728043  80.8548355  40.2429085  11.4021587
  58.1178894  57.7734222  89.0765610  58.1462784  56.9080391  88.6684723
  59.0367432  58.0261726  89.1663055  11.1167488  62.4774857  33.4482880
  11.9851360  62.8088417  33.2195091  10.8301363  61.9994469  32.6701050
  54.8809547  68.3149338  13.1776543  54.1853867  67.9053802  12.6631813
  54.8213081  67.8969116  14.0366859   2.2752514  14.6610651   1.7098310
   2.2075787  13.7734566   1.3579726   1.9201409  14.5950356   2.5962670
  70.7042694  49.2381516  12.1003571  71.4100037  49.7631111  11.7227507
  71.1179962  48.4034958  12.3203802  68.9984512  55.2800903  60.9766922
  68.6752014  54.3866081  61.0925980  69.9395065  55.1777992  60.8346634
  21.1129398  69.1075745  12.1232386  21.9824829  69.2125549  11.7370949
  21.2181911  69.3917084  13.0312157  73.5104446  65.9960251  41.9745636
  72.6271667  66.2292480  42.2603378  73.7262650  65.2118988  42.4793396
  59.6831055  54.2743225  28.1698303  58.9740105  54.2158508  28.8101425
  59.6717033  55.1873207  27.8825340  76.9571915  52.5564384  42.7292557
  76.9059982  51.8873787  42.0466347  77.2550201  52.0834846  43.5063286
  81.3069305  45.3778381  28.9467487  82.0681686  44.9796028  28.5246639
  80.5630646  44.8628120  28.6342621  22.8446865  59.2532539  34.6474152
  22.6005669  58.6667290  33.9314346  23.6449337  58.8711777  35.0077629
  13.1735249  19.9332256   7.1200576  12.4517603  19.6471004   6.5602188
  12.8041401  20.6458111   7.6416025  44.5349083  51.0307732  20.9638710
  44.2390976  51.1478310  21.8666592  43.9857788  50.3254852  20.6214428
  48.4290199   7.1384254  14.7376432  49.3820801   7.1735091  14.8193836
  48.1134262   7.8346505  15.3137541   8.9459925  34.9854126  61.6978073
   9.4220572  34.2129440  61.3930359   9.6121483  35.5245018  62.1242485
  83.5348434  43.2868156  84.5904465  83.1516571  44.1556549  84.4699478
  83.9400330  43.0846901  83.7471237   2.0517788  10.5970116  41.1900749
   1.3611493   9.9762821  40.9577866   1.7455453  11.4359579  40.8456573
  62.1943893   3.4326789  67.4856796  62.6207657   4.2582622  67.2557983
  61.5319290   3.6770654  68.1319427   2.4459655  20.3474293  25.8454285
   1.6137694  20.1837463  25.4017067   2.2536047  20.2111568  26.7731457
   6.5910616  62.4406281  54.1485100   6.0020814  61.6951256  54.2649651
   6.9134994  62.3532867  53.2514915  16.0024090   7.1335692  82.8531418
  15.3384495   6.4482198  82.9285507  16.1770020   7.1956139  81.9140472
  83.2082596  67.2592392  69.1754456  82.9926834  66.8299255  68.3475342
  82.4616394  67.0713425  69.7442017  42.4947357  69.6953278  32.8675919
  42.7287178  69.0008240  32.2518387  43.1918068  69.6788635  33.5233727
  48.8007851  28.5493355  30.8442688  48.1538849  28.9113426  30.2387104
  48.8099594  29.1622334  31.5794582   1.8410643  33.5916977  75.8188248
   2.5807712  33.9239426  75.3102188   2.0259769  32.6590462  75.9292755
  60.6653938  56.9745789  82.5738525  61.2078094  57.5347061  83.1290817
  59.8518181  57.4658890  82.4600983  76.9000015  50.7655411  25.8560867
  77.2565079  49.9852104  26.2806053  77.0803375  50.6352577  24.9251022
  69.5368347  27.9928608  39.4260788  69.3442535  28.7956600  38.9416656
  68.6790466  27.6023712  39.5932426  24.0372410  65.8185730  45.8410149
  23.3757782  66.2149582  45.2739372  24.6061058  66.5467606  46.0907555
  52.4326096   7.8780847  29.8862343  52.7480316   8.0238028  30.7781467
  53.0193710   7.2105746  29.5307407  11.4399462  33.0909653  23.3404198
  11.3132696  33.0508804  24.2883530  10.8368053  32.4353523  22.9902420
  76.0925903   4.2620907  68.1490784  75.3033218   4.2063613  67.6103897
  76.7372742   4.6902633  67.5858002  57.5459251  63.0532608  29.4719486
  57.9944115  63.8541031  29.2003822  57.4221878  62.5610733  28.6603622
  18.0049191  15.4027109  27.1074390  17.3153572  14.7806339  27.3392944
  18.7831192  15.0772686  27.5599041   1.2139587  12.9383545  60.4253387
   2.0979815  13.3037252  60.3901253   0.8483857  13.1117907  59.5578651
  22.2200470  66.6938553  35.4475555  22.9241180  67.3317795  35.5640259
  21.8110161  66.9375229  34.6171608  46.4324837   4.4895015  74.6196899
  47.3846893   4.5805554  74.5844116  46.2332191   3.8070929  73.9787140
  19.1238689  56.5289383  86.9703369  18.2329903  56.8697128  87.0505829
  19.6832333  57.2512169  87.2560959   9.8465862  13.5050220  66.8692474
   9.7542028  14.4165869  67.1462784  10.6202126  13.1898890  67.3366013
  39.1943016  65.1703644   9.4231558  38.4497719  64.7313156   9.0118923
  39.4460793  65.8506241   8.7985859  17.5444565  58.1905518   0.6090737
  16.8094616  58.6335983   0.1851321  17.8865662  58.8342476   1.2294356
  79.7021866  17.5113239  78.7780609  79.5447998  17.8424320  77.8938522
  79.4194260  18.2218609  79.3537445  80.1122360  22.7140045  59.6960297
  79.6695938  22.5066071  58.8730583  80.8751602  22.1360817  59.7099037
  73.2471466   2.4382153  25.1658554  72.2972870   2.5564775  25.1688976
  73.4476242   2.0874782  26.0336266  52.6662216  44.8598175  20.4931183
  51.9689217  45.4004593  20.1220264  53.4754372  45.2697105  20.1875267
   8.0053101  52.0853882   5.0935459   8.8268232  51.6922836   5.3881912
   8.2482233  52.9690132   4.8170748  17.2922935   1.4325403  48.6798935
  17.5364914   1.9375738  47.9043007  17.2735405   0.5243247  48.3781891
  71.8815613  31.4097462  85.3702545  72.5666351  31.7963867  85.9156113
  72.1151733  31.6626377  84.4771118  64.3479996   1.2805802  50.2336807
  63.7703934   0.8990760  50.8947868  63.7693825   1.8149806  49.6897545
  41.4166336  48.6779327  80.0099335  41.5385208  49.1163712  80.8520432
  41.2700844  49.3905411  79.3878860   6.0607853   5.1743731  62.7224121
   5.6225591   4.6606512  63.4008522   5.4964495   5.9374027  62.5977402
  56.0503616  26.5646763  83.4222412  55.6938171  25.7401905  83.7528992
  55.4411583  26.8298492  82.7332001  70.3812103  34.9271774   8.1255817
  70.2936707  35.6054802   8.7952662  69.9265671  34.1687241   8.4920244
  76.1910858  60.2609978   0.4279050  75.5426559  60.9585686   0.3321925
  75.9871368  59.6460762  -0.2767290  84.2586975  47.5668488  33.6641235
  83.4796066  47.6985703  33.1238480  83.9152985  47.3414421  34.5287056
  26.0141602  16.6924095  78.4467773  26.2067623  17.0773201  77.5918045
  26.7805901  16.1544838  78.6454086  65.6661987  27.1288223  33.5799561
  65.2520447  27.9915295  33.5589066  64.9358673  26.5114574  33.5386848
  77.1027985   6.8891573  11.0178652  77.5283051   6.3160200  11.6555872
  76.1854782   6.9113646  11.2903852  66.5673599  14.1714144  34.4671021
  66.5382004  14.9437389  33.9023933  67.4954224  14.0606117  34.6736145
  40.3920364  64.8154068  60.9190636  40.4866180  64.5454330  60.0056076
  40.2526894  63.9979744  61.3972092  44.0286102  45.3686905  84.8010864
  44.9610596  45.2127724  84.9509354  43.7126465  44.5607376  84.3965988
  38.1412582  66.6557007  68.2063141  37.8980751  67.0998917  67.3940430
  38.1594505  65.7269821  67.9752426  19.2700977   8.3704023  13.9504852
  18.8908215   8.0604868  13.1280899  18.5469494   8.8110619  14.3967018
  45.9159012  19.3624287  34.5264740  46.1348648  18.4465523  34.6981049
  44.9684601  19.4101658  34.6541710   5.3559570  23.8349209  11.7045488
   5.6928797  23.7670345  10.8111811   5.6207747  24.7077923  11.9947186
   5.5466666  17.2609940  80.1782379   5.5244746  18.1657944  79.8666611
   6.2489114  17.2487812  80.8285675   7.3226237  38.6649208  30.2281742
   7.9212255  38.6084251  29.4833813   6.7646122  37.8915329  30.1461735
  65.1148758  17.3581123   7.3039837  65.2511902  17.4169350   8.2496004
  65.6002274  16.5763893   7.0402040  74.3066788  29.2448158  53.0693932
  75.1113892  28.9837379  52.6216049  73.6809921  28.5508709  52.8615685
  64.4152374  56.8385315   3.5476751  63.8985405  56.8993568   4.3511405
  65.2986832  56.6233521   3.8467569  51.4915237  64.8755341  18.1178265
  50.7693939  64.2600403  17.9916553  51.0653687  65.7257156  18.2265339
  52.9614563  15.3508272  19.8168354  52.5841713  14.5617352  19.4279652
  53.7499046  15.0438175  20.2644138  32.3559608  14.6086311  78.6011353
  31.8001976  15.1997814  78.0932999  31.7526531  13.9511232  78.9474564
  73.2542648  41.4475746   7.9609470  72.3440628  41.1918755   7.8113556
  73.3484192  41.4517365   8.9134951   8.7839737  54.6428413  33.2074509
   8.7984867  55.4568253  33.7108917   9.4282370  54.0822906  33.6398163
  69.0403748  67.3684464   4.0065107  69.2372818  67.7622299   3.1565719
  68.7517166  66.4800034   3.7977560  86.7248611   8.9887714  89.0875320
  85.9586945   9.4295082  89.4549255  86.4027786   8.5771790  88.2856064
  57.4498291  45.9593277  22.9116173  58.3227615  45.6347733  23.1327267
  57.2027588  46.5082207  23.6558647  71.3777924  20.8456345  87.1645203
  70.7689590  20.1095505  87.2256546  70.8182449  21.6073189  87.0129395
  30.4448452  44.0143089  34.4171677  30.2345295  43.0999870  34.6069489
  30.8353977  43.9938774  33.5435066  43.2738953  23.5029030   0.6319964
  42.3998222  23.8794308   0.7342675  43.8279037  24.0216751   1.2152473
  57.3022423  17.8192520  25.0819225  56.4036255  17.6471863  24.8006477
  57.5659523  17.0223598  25.5419788  76.7067184   9.7619524  68.3400497
  76.5900726  10.4265842  69.0189438  76.7372971  10.2579937  67.5219803
  11.3712406  12.3375826  14.3394899  11.2815933  13.0902309  13.7549257
  10.4902792  11.9665232  14.3890305  50.0376167  49.5678902  15.6010523
  49.1399574  49.2626801  15.7325335  50.1763306  49.5040054  14.6561136
  23.8151226  46.9594116  63.8240509  23.6242981  47.5058060  64.5864639
  24.2565060  47.5481796  63.2118683  65.5793762  38.7824821  28.2183495
  66.4341812  39.1671295  28.0244579  65.2838974  38.4217300  27.3824196
  86.2650070  30.4904289   8.1114569  85.7225647  30.9992409   8.7140322
  85.6638107  29.8506870   7.7299814  63.5726242  16.7997932  55.4174461
  62.6524277  16.7268829  55.1641617  63.6927071  16.1211243  56.0816879
  46.0898361   2.3264084  73.1211548  45.5167007   1.5753970  73.2751923
  46.9038200   2.1030784  73.5725784  85.0088501  55.4707298  78.0843887
  84.5549393  56.0449219  78.7012329  84.5882950  55.6438293  77.2421265
  42.5073586   7.3328238   2.1220407  43.3375511   7.2150407   2.5837128
  42.6946945   7.0688481   1.2212335  29.6121674  10.8899784  19.3201790
  28.7475414  10.6793871  19.6727486  30.2192802  10.3737860  19.8504524
  25.5168266   6.3987184  86.4105148  26.4291630   6.3834891  86.6997223
  25.0106754   6.2324286  87.2057419  62.1053314  70.0590363  17.5713634
  62.2055244  70.6059113  16.7921829  62.3121834  70.6423264  18.3015804
   4.9689746  49.5495644  38.8638344   4.9666538  50.4304962  38.4894180
   4.6347227  49.6664085  39.7531357  75.1713409  10.4108124  31.7128410
  74.3560638  10.7693872  32.0635147  75.4520493  11.0500679  31.0580196
  27.4077721  19.3259163  10.3905630  26.7385445  18.7165051  10.0791407
  27.4407253  19.1825867  11.3363972  15.3767853  59.8973732  11.0637054
  14.6519356  59.2824059  10.9512777  15.4153891  60.3760490  10.2356892
  72.2147827  69.7517624  78.4998550  72.0841827  70.6662827  78.7505035
  72.0591660  69.7376709  77.5554886  71.8333969  57.5583115  86.8802414
  70.8989105  57.5719872  87.0870590  71.8668289  57.4469795  85.9301300
  37.5529823  70.9026031  56.2700424  36.6609650  70.9338531  56.6158180
  37.4682083  70.4537354  55.4288750   6.9062066  18.4897308  26.7435665
   7.2903452  18.5531445  27.6180077   6.7254629  17.5568275  26.6284409
  48.1219139  29.7663307  88.8526001  48.1390915  30.6496487  88.4842453
  48.9810791  29.4015865  88.6403961  67.9923935  46.2979927  22.9626713
  68.6868744  46.7090263  22.4479084  68.3225403  45.4197464  23.1521835
  52.6140175  31.5109425  83.0369415  52.1952972  32.3129272  83.3495483
  53.0385094  31.1443577  83.8126068  69.4955215   8.9817867  16.0694962
  70.2378235   9.4115038  15.6445789  68.8370514   8.9031649  15.3792238
  81.2217178   9.1348019   5.2507606  81.0507965   8.8482351   4.3535995
  80.8085098   8.4671793   5.7982712  79.8666992  60.1932526  60.5909576
  80.0007782  60.2151947  59.6434479  79.7392502  61.1097107  60.8361053
  71.9466782  64.0162125   6.7395606  71.5239868  63.8194656   7.5755348
  71.2210922  64.1754303   6.1359067  79.1336823  66.1048050  25.6816673
  79.3591919  65.3109894  26.1666756  79.6915817  66.0771790  24.9043522
  58.2215996  24.1836224  46.2651482  57.5172234  23.6665173  45.8743973
  58.5722809  23.6250706  46.9588890   3.7895994  32.9750023  84.5669327
   4.4471436  32.4793320  84.0788956   2.9853444  32.8713875  84.0583344
  79.5860596  57.2293892  38.4220772  79.6506653  58.1828918  38.4758492
  79.8096771  57.0250015  37.5140839  75.5473328  58.2416534  75.5567017
  76.3069077  58.3973923  76.1179657  75.5321960  58.9906502  74.9608765
  37.8783798  27.2799911  33.9443665  38.0108795  27.6551895  33.0737915
  38.3397789  27.8757076  34.5346756   3.3699934  33.7400742  68.6335068
   3.0570679  34.0636597  67.7887573   2.6763239  33.9723587  69.2508392
  50.4009361   2.9821088  50.3095055  50.9406013   2.5171998  49.6700897
  49.8718758   3.5828786  49.7847176  70.2926254   0.9122415  75.5831833
  70.2804108   1.5561155  74.8750076  70.2919998   1.4367943  76.3838577
  68.3154678  13.4123859  79.8943253  67.6455612  13.8184347  80.4444046
  67.8498993  12.7249079  79.4180374  76.8363190  33.7970810  75.0595932
  75.9668198  33.6612473  75.4360886  77.2801285  32.9565163  75.1723557
  66.8036194  27.4588757  38.7048836  66.7402267  27.6682491  37.7730179
  65.8964462  27.4475861  39.0100861  32.0728912  60.7224350  80.5517273
  31.7051506  61.0374947  81.3774033  31.4094715  60.9380989  79.8962936
   3.8383315  55.5969467  79.1680756   4.5914669  55.0077705  79.2115173
   3.0838785  55.0149460  79.0769424  69.7245712  20.7900925   9.8853951
  69.4719467  21.4716530  10.5082035  69.9423065  20.0350132  10.4319115
  78.9473343  46.4012337  26.9747791  78.6755676  45.8631401  27.7183056
  78.1744537  46.4390907  26.4113426  47.1849785  61.9611320  33.7694244
  46.6116409  61.1947784  33.7839813  48.0068550  61.6383972  33.3998337
  36.8428955   3.8731546  51.9890251  37.1289635   4.1086478  52.8716011
  36.5858994   4.7047224  51.5906792  79.6729813  29.3475647  76.2058563
  80.2452240  30.0264759  76.5634155  79.5241699  28.7495537  76.9382935
  26.1380215  45.5709419   1.6189777  26.1319904  45.0420609   2.4167755
  25.7119427  46.3900642   1.8714086  27.9672794  63.4470901  61.7484093
  28.4984169  64.2336578  61.8726578  27.4387836  63.6350136  60.9727745
   1.4386015  39.0085983  88.6639938   1.5690402  38.4759941  89.4485626
   0.8078863  38.5139084  88.1408157   1.9972337  10.2155876  80.3827438
   1.7984301  11.0963612  80.0650253   1.5706882  10.1676416  81.2383118
  47.3847160  55.5208244  17.2117081  46.4981728  55.8806229  17.1830292
  47.9189987  56.1628380  16.7441692  62.0794220  22.1359653  68.3657684
  61.3148460  22.5400238  68.7761307  62.6806412  22.8643379  68.2100754
   5.7388744  17.3047428  76.2920761   4.8150196  17.0588074  76.3394089
   6.1987662  16.5959206  76.7418594  58.6411438  23.1116142  49.0203705
  58.2845421  23.8924999  49.4437943  59.3872719  22.8629131  49.5659676
  35.2878304  30.3356094  15.7562618  35.6128540  30.7391949  14.9514589
  34.3350067  30.3582554  15.6676788  17.8705311  71.2103806   1.5884057
  17.2179794  70.5450058   1.8067704  18.2530842  70.9092865   0.7642537
   1.0507886  44.3055878  11.5044985   1.9482511  44.6195450  11.6150551
   1.0908996  43.3782997  11.7385063   1.6381735  17.1570568  53.3445091
   1.8184417  16.6448364  54.1327782   2.3873379  16.9887447  52.7729721
  68.5538483  29.3053398  84.2002792  68.3707047  30.0071373  84.8249130
  69.0281067  29.7356491  83.4888382  65.0567169  28.1720905  70.3804779
  65.0168381  27.2470245  70.6231689  64.8378067  28.1849213  69.4487381
  38.5182724  60.0805130  78.3587723  39.1154175  60.6319656  78.8642960
  37.8006439  59.8885078  78.9624100   2.8543184  64.7612000  26.4786110
   3.1687191  65.0873413  27.3218288   2.4080200  65.5101318  26.0834541
  49.5732574  50.5714836  55.5830231  50.0247307  49.8565178  55.1344414
  49.4467278  50.2517662  56.4763336  69.2362442  11.9064112  72.3936081
  68.7736588  11.6385965  71.5995636  70.0844727  11.4665327  72.3365479
  11.0608320   8.7968502   2.8873336  11.4264793   8.0355244   2.4368711
  11.2769680   8.6563568   3.8091679  52.7479935  29.5464725  39.3356819
  52.0775795  29.2262630  39.9392090  53.1259766  30.3061218  39.7787285
  62.9584122  49.4729424   8.5784159  62.1895943  48.9147453   8.6948881
  63.4882965  49.0173492   7.9242821  22.0667305  33.6144218  18.5620594
  21.3374310  33.2165413  18.0866165  21.9830341  34.5519485  18.3880615
  27.3961124   0.9313971  26.7100487  27.2484627   0.9117683  25.7645073
  27.9715576   0.1851817  26.8781471  50.4572906  53.3987694  42.3450851
  50.3790016  52.8082924  41.5957909  50.9191666  52.8850327  43.0076408
  73.1609116  36.2793961  31.4164028  73.8612823  35.8836899  31.9351826
  72.3923264  36.2450562  31.9859028  27.6703968  63.7575951  66.2735367
  27.0128956  63.3179703  66.8126602  27.9469013  64.5089417  66.7981873
  62.1718864  67.1470718  30.1503410  62.2108459  66.8956680  29.2275677
  62.7917519  66.5610657  30.5846138  22.8656425  56.3713799   0.8113573
  22.9369621  55.8316536   1.5986574  22.5119476  55.7801247   0.1468682
  75.8109589   4.3426127  82.0766983  75.0970001   3.9481678  82.5776062
  76.5666199   4.3002462  82.6627197  11.3980436  32.9493446   5.9412508
  12.0498295  32.5494041   5.3655281  11.9101238  33.3299866   6.6547761
  26.8548965  11.7904606  15.8569298  27.3917484  11.1275597  16.2911949
  25.9537640  11.5040684  16.0058346  11.7256098   9.5337315  42.3077927
  11.2905054   9.8549051  41.5180054  11.6182604  10.2403078  42.9445457
   9.7831535  52.4207764   8.6741619   9.0027523  52.9053726   8.4051390
  10.4799004  53.0769806   8.6872158  72.8183823  37.3869553  13.8855028
  72.0202255  37.0452881  14.2885466  72.8236160  37.0085716  13.0062819
  53.3629646  35.6411667  78.3902817  52.4348564  35.5311470  78.5970154
  53.7898903  34.8868980  78.7965317   7.8777900  36.2268791  13.1668501
   8.3092165  37.0240784  12.8593121   7.7206774  36.3835297  14.0979824
  85.4010620  63.7980499  10.3183584  85.1314163  64.0772781   9.4433985
  85.7140579  62.9015388  10.1978188  61.9886551  34.8765373  53.2693710
  61.6659012  34.0453606  53.6175232  61.2045097  35.3231659  52.9502029
  34.7980919  48.7311287   6.2991853  34.3804626  48.0178337   5.8164539
  34.7280159  49.4876251   5.7169185  72.2771683  50.0820923  29.5871620
  71.7560806  50.2764664  28.8081131  72.0998917  49.1593513  29.7697964
  13.8286963  39.2742844  67.9970093  14.6699829  39.6856613  68.1950912
  14.0585032  38.4760475  67.5213623   0.0084123  46.4467812  52.3189163
  -0.6089222  45.8944130  51.8393135   0.8273763  45.9513054  52.3134384
  84.6890259   3.3057990   6.1435819  85.5550766   2.9276030   6.2957854
  84.5112076   3.1327379   5.2191038  24.2318211  11.3620386  58.1034355
  23.7638855  12.1812391  58.2652359  24.2061691  11.2553349  57.1525497
  69.8275833  11.8126211  40.9780540  69.5919952  11.6367340  41.8889809
  69.7218628  12.7590809  40.8817787  41.7562943   0.3676858  74.5124969
  41.5081444   0.8384031  73.7168350  41.8329887   1.0494125  75.1800308
   2.2208157  36.9898872  29.7516804   2.6271734  36.1440544  29.5628033
   1.6696078  37.1663666  28.9892788  32.3869705  12.3859787   8.9234238
  31.5406094  12.3993626   8.4765167  33.0311928  12.3653650   8.2157612
   2.5385337  55.4123230  27.3534184   2.3296242  55.9557495  26.5936317
   1.8135306  55.5605965  27.9605579   8.3262644  43.4314651  19.9522476
   7.7890096  42.9307556  20.5661526   7.9778452  44.3217201  19.9999886
  49.1900787  47.0987625  74.6511383  49.3739395  47.4916801  73.7978821
  49.3808441  46.1683006  74.5324631  47.2111320  12.0693245  46.4480057
  48.0441246  12.4476404  46.1665306  46.8892899  11.5995255  45.6786308
  25.1618195  21.1416035  32.8645782  24.9772625  21.0229263  33.7962914
  24.4482384  20.6849899  32.4190025  78.4299774  65.4222183  54.2205734
  78.5600204  65.6236115  53.2938766  79.3138199  65.2888565  54.5630112
  15.0370045  23.6923599  70.9219131  14.9687395  24.4112968  71.5501633
  14.3426208  23.8635025  70.2856979  75.8834991   3.7192473  61.5213661
  76.7103424   3.5945342  61.0555305  75.7936096   2.9356830  62.0637474
  83.3363876   3.2186205  53.7748375  82.7865524   2.8703609  53.0729599
  83.6804810   2.4425292  54.2170105  65.0859833  12.6585207  67.7827835
  65.0199280  13.4769211  67.2907562  64.6492996  12.8430777  68.6143341
  27.6993160   2.2902021  83.6560669  27.8878136   2.7364562  84.4816284
  27.6251736   2.9960244  83.0137634  10.0908575  58.7555771  85.0474167
  10.6816893  58.1859741  84.5547714   9.6312056  59.2610931  84.3770370
  13.5668783  39.6440811   2.1326301  14.4434671  39.3672371   2.3994300
  13.6662455  39.9042816   1.2168497  15.3695583  56.5581207  23.7163601
  16.1380882  56.3873978  24.2608280  15.5054007  57.4444809  23.3814735
  36.1184082  60.3871384  69.0239334  36.9304085  59.8867569  68.9432526
  36.1632004  61.0318413  68.3178329  58.9314575  25.6603565  74.0604858
  58.5502472  26.3798084  73.5571976  58.8348007  25.9295063  74.9739685
  32.6607132   7.1398325  23.7345161  32.0090714   6.8528709  23.0947914
  33.4097137   7.4156928  23.2061882  83.9397125  53.3381615  21.5071754
  83.6579666  52.4376869  21.6684055  84.8759079  53.2665138  21.3210564
  72.1635208  64.4012680  25.7658539  71.2245331  64.3275757  25.9364529
  72.4606094  63.4967728  25.6665382   9.7206678  41.5617943  43.4201202
   9.1507769  42.3308334  43.4140930   9.1673822  40.8511314  43.0959854
  80.4800339  41.5507698  32.5620804  79.5864334  41.2514267  32.3944397
  80.4476471  41.9187851  33.4451141  84.1609268  43.6676216  58.6793404
  83.8650055  43.6490631  57.7692223  84.6530151  42.8537979  58.7878380
  64.8905640  22.9483624  78.2937851  64.9061127  23.1291294  77.3539429
  65.4676666  22.1923790  78.4018631  31.7652779  64.7422256  28.0214462
  31.5066185  64.8388672  27.1049366  32.6856766  64.4819794  27.9843922
  83.1015167  21.2400513  30.5035629  83.4396515  22.1329784  30.5712128
  82.2320862  21.3418751  30.1163235   7.4859285  29.0723457  52.1225014
   7.8446374  29.8057423  52.6221924   7.6529193  28.3050919  52.6699181
  83.7450180  11.4891825  61.5685844  83.0087891  12.0295992  61.8551979
  83.6253815  10.6581612  62.0282822  17.9579086  64.7952728  40.2710152
  17.5018883  64.4494858  41.0382843  17.5088100  65.6177750  40.0759811
  25.3304329  12.5134716   9.8035221  24.6800079  12.9746017  10.3331795
  25.8093758  13.2091713   9.3531342  44.4121552  58.6923141  39.2209702
  44.4996109  59.2599945  38.4552536  43.7006989  58.0931740  38.9949341
  72.8091049  44.7037201  19.1824207  72.1634369  45.3223000  18.8408012
  73.6546707  45.1056557  18.9831848  69.9845352  67.6900864  87.1756897
  69.7039871  67.6822128  86.2605591  70.8006592  68.1902466  87.1717072
  42.3490601  54.5900154  60.5743599  42.3008652  55.3685837  61.1291046
  43.1304779  54.1278152  60.8776627  77.2976074  13.0614719  19.2700882
  78.2330399  12.9833422  19.4574337  76.8670959  12.7090120  20.0489712
  85.8177490   6.4626365  76.3378448  86.6792374   6.8145375  76.5619812
  85.4140472   6.2616730  77.1821594  58.9615173  53.7927666  49.4436874
  58.1968117  54.2228394  49.0609436  58.8492851  53.9006538  50.3881454
  28.6878529  51.5244217  13.1178827  27.9554672  50.9345665  12.9392366
  29.4652653  50.9714508  13.0398836  68.1288147  46.0355759  12.9244680
  68.8947906  45.9402313  12.3584070  68.0007935  46.9814034  12.9969311
  18.7816944   0.0276636  60.7982674  19.0135517   0.9559782  60.8248253
  18.5834579  -0.1958066  61.7076607  29.1806774  59.7336464  36.6825104
  29.6913643  59.3298111  37.3841858  29.7038231  59.5920296  35.8935242
  44.0569077  10.7792692  34.7835045  44.2883606  11.0400467  33.8920708
  43.1729164  10.4203682  34.7061768   8.8297606   9.8939123   1.3647857
   8.1016865   9.2733192   1.3330866   9.4388695   9.5163221   1.9993279
  44.8834877   7.0656605  46.2985458  44.3263702   6.3114915  46.4911079
  44.6745872   7.2926035  45.3924065   5.8959160  66.4010925  40.0627098
   5.8435650  65.4453964  40.0511093   5.9568429  66.6488495  39.1401367
  84.8418655  28.0540180  44.2544212  84.9442520  28.9056072  44.6793327
  84.4774780  27.4887581  44.9355469  54.3430672  53.5559196  66.6678848
  54.8981323  52.8114929  66.9001923  53.9117355  53.7980118  67.4873810
   9.6408167  34.5470276  67.2822723   8.7101479  34.5731964  67.5045471
   9.6612329  34.6180801  66.3279343  55.8380547  37.0846329  77.4652710
  55.2962036  37.3439293  76.7200241  56.3306847  37.8741341  77.6894150
  13.9942875  14.5576363  28.4053288  14.5664587  14.5287132  29.1721497
  13.2871628  13.9461298  28.6109161  56.7930489  66.9684753  74.1318893
  56.9934883  67.8602219  73.8475571  57.1171646  66.4125900  73.4232483
  11.5702810  66.8119278  27.8861561  11.3772974  67.2643280  28.7073250
  11.3020449  67.4280548  27.2044888  54.5678864  39.8620148  11.7794933
  53.9228477  39.1763878  11.9529161  54.1361351  40.6715851  12.0522928
  76.8090363   5.5241289  58.1474190  76.1734924   6.2262235  58.0082207
  76.2866135   4.7221689  58.1347504  47.9358101  14.7858591  70.0520248
  48.6287231  14.1557169  70.2495575  48.3913536  15.6231327  69.9643707
  32.0959244   5.2779918   5.6107607  32.3688698   4.3608246   5.6339135
  31.5656986   5.3900814   6.3997655  37.4818840  65.7786484  17.5775166
  37.9790115  66.5689545  17.7884865  37.7223930  65.5787735  16.6728420
  15.2515059  67.1944427  24.5282211  14.6916037  67.2414627  25.3031616
  16.1310616  67.0489197  24.8766975  48.4315109  11.8777885  27.1702557
  48.0104561  11.2699862  26.5623741  49.1587830  12.2500010  26.6714878
  33.5003662  59.6520615  62.4621773  33.5961037  58.9105225  61.8645287
  32.5982971  59.5914001  62.7765465  29.5889988  48.5305176   4.2419558
  30.1175480  48.0804138   4.9009519  28.6861248  48.2997932   4.4606261
  79.3687973  13.3609247   1.5654906  79.7005692  14.2532587   1.6649756
  79.4211884  13.1893473   0.6252523  57.1717377  17.9653034  40.9354744
  58.0543289  18.2806778  40.7410393  57.0063972  18.2543316  41.8328896
  25.9151936  62.6296196  44.9352455  25.5288563  61.9762154  45.5183754
  25.1640415  63.0811882  44.5504189  56.8350372  13.8003864  63.1483727
  56.1502609  13.1344624  63.2105141  56.4342461  14.5099344  62.6462326
  26.9027958  54.1150475  38.9792099  27.0562706  53.3470078  38.4289474
  27.1443596  53.8303566  39.8605881  45.4926758  64.9236298  18.5855255
  44.7689896  64.2986603  18.6294155  46.1419029  64.4992981  18.0245686
  45.1158066  17.0738258   7.9785771  45.0997925  17.1463375   8.9328918
  45.8634529  17.6079445   7.7103019  77.9328613  31.1256886  75.0412445
  78.3439255  31.2130299  74.1812286  78.6177673  30.7546024  75.5975113
  76.8960800  51.9741707  37.4263039  76.5618668  51.2532272  37.9599495
  76.7875671  52.7498131  37.9766121  40.0710449   6.6237392  40.1165009
  39.8727455   5.7002959  39.9610634  40.6737289   6.8612051  39.4117928
  69.8330307   3.0583279  18.3254070  69.4391479   2.7640915  19.1466942
  70.6428375   3.4942210  18.5908070  31.9584618  19.7942848  51.8736992
  31.0957260  19.9528904  51.4906006  31.7769566  19.3168335  52.6832199
  15.0574980  48.0528755  72.4921570  14.2613640  47.5585136  72.2971878
  14.8773623  48.9349556  72.1670151  78.9018784  43.5057220  53.6892700
  78.2352905  43.5207138  53.0024948  78.7166824  42.7083893  54.1854515
  76.2101669  33.8236618  85.8356476  75.2571182  33.9102974  85.8562469
  76.3642044  32.9662094  85.4390564  73.9672699  17.0269012  48.1687546
  74.7481232  17.1991844  47.6426163  74.2110748  17.2959270  49.0544281
  31.3846664   9.9071636  68.8083801  32.1166954  10.2604790  69.3138809
  31.5825157   8.9748154  68.7199860   4.6342411   4.6604824   1.0477635
   5.1862130   4.3891411   1.7812024   4.6805634   5.6165404   1.0540196
  83.0009613  43.3395691  61.4217339  82.2055206  43.3994598  61.9508057
  83.1308441  42.4004173  61.2899933   7.8544426  29.0970650  60.6825562
   7.5190988  28.7968636  61.5273361   8.3643408  28.3579674  60.3509369
  74.0617676  28.8062096  66.5310974  74.7003860  29.5159817  66.4631805
  73.4482040  28.9666519  65.8141403   7.7707620  23.1874199   0.0607934
   6.9648852  23.6957531  -0.0308212   8.0745373  23.3779507   0.9482900
  35.1414680  13.4638968  83.7816238  35.8231163  12.8782682  83.4520416
  35.0805283  14.1553679  83.1225433  47.5692558  13.9167538  60.7255745
  47.2861938  13.9383163  59.8114395  48.5222893  13.9952335  60.6831169
  57.0102081  10.8978682  78.5308075  56.8704453  10.0022774  78.8383942
  56.6154556  10.9160318  77.6589813  69.5162964   9.6609507  45.0199013
  69.7308960  10.5905561  45.0974350  69.9248428   9.3885450  44.1982460
  30.7803249   7.9555278  25.4222031  31.0274715   7.8671708  26.3427162
  31.5290165   7.6064596  24.9386272  72.7787018  52.7296715  58.1161652
  73.0262527  52.8739243  59.0294762  71.9380569  53.1777000  58.0222359
  76.0987320  66.8672333  45.5364075  76.4202118  67.3361206  44.7663231
  76.2347870  65.9429245  45.3281174  52.6471138  34.1003876  21.6148300
  51.8034439  34.0860405  21.1628895  52.4252357  33.9928207  22.5397243
   9.4753685  51.7121964  19.6846943  10.0562305  51.2588730  19.0736885
   8.5945358  51.4500542  19.4170284  66.5989151  12.5685549  85.9959106
  67.3338470  12.5311909  86.6080475  66.6628571  11.7554092  85.4949799
  33.3037300  21.1679249  33.7102127  32.8914528  20.5095596  34.2695122
  34.0975227  20.7430229  33.3852730  64.5969849  65.7713623  30.9522705
  65.4223480  66.1982346  30.7225075  64.4809799  65.0978622  30.2820740
  35.2671242  43.5222549  22.4868679  34.7748146  44.2656136  22.8351212
  35.5607948  43.0448265  23.2627869  60.7082291  37.3404808  30.2215252
  60.0212746  37.0694695  29.6125278  61.4296150  37.6221046  29.6589241
  51.2735176  52.9187355  75.7288208  51.5958519  53.2666130  76.5602722
  50.5409088  53.4899521  75.4981079  66.3862076  63.1108742  80.5920639
  65.6125870  63.1993904  81.1487656  66.0618744  63.2657852  79.7049103
  50.9203186  40.6518250  79.4900208  51.7155647  40.9098549  79.0239334
  50.2954407  40.4378014  78.7972336  52.1085472  36.6758690  81.1702118
  51.6152458  37.0982018  80.4669952  51.9003792  35.7456055  81.0835724
  63.8564377  54.6947937  65.3327713  63.1273460  54.4688797  64.7551651
  63.5372429  54.4917107  66.2120285  34.0164146  11.4266148  78.3301468
  34.0023384  12.3220091  78.6682358  34.7369881  11.4197931  77.7001038
  10.2880239  12.0773668  46.5449982  11.0046463  11.4923105  46.7907486
   9.5022840  11.5347738  46.6116142   3.5959699  41.8844528  45.4060478
   3.2623742  42.7409325  45.6732254   3.3605556  41.3002396  46.1268158
  75.8857269  30.6276951  43.1327820  76.1779022  30.9883671  42.2956581
  76.6379395  30.7341805  43.7150726  24.7049656  22.6230049  15.4062929
  25.5797653  22.3774948  15.7074242  24.1721439  21.8420544  15.5561295
  43.1818008  70.9215622  44.3864555  43.5992165  70.7504349  43.5422363
  43.6428642  70.3512497  45.0015945  45.8182945  69.5103912  82.9660797
  46.5789185  70.0886078  83.0239410  45.6821060  69.3870544  82.0266724
  27.2162781  13.0138941  59.2752686  26.5061817  13.0032759  59.9170494
  27.5084019  13.9252319  59.2563400  52.2515297  11.7014551  43.8776779
  51.7507324  10.9154263  44.0958405  52.2881470  12.1968822  44.6958733
  29.5959320  64.4487000  87.8365021  29.2135944  63.8693695  87.1773911
  28.8424034  64.8162613  88.2983704  12.0254211  47.5044746  70.0233459
  12.6466999  47.8379860  69.3760300  11.3127308  47.1340866  69.5026550
   4.2456818  17.7240238  47.7798004   3.3230548  17.5425606  47.9588585
   4.2380137  18.5512257  47.2982330  27.5755272  25.0327587  32.5391579
  27.3957958  24.2877445  33.1126404  28.0857010  24.6628075  31.8186779
   7.9228244  11.3089733  52.4691010   8.8436232  11.1153307  52.2934227
   7.7524219  10.9089699  53.3218575  32.7373581  56.2617149  25.1764431
  32.4204254  55.3794670  25.3698864  32.0024261  56.8339500  25.3970242
  13.4079819  49.6492271  19.3575096  13.0216494  50.5065002  19.5365620
  14.0248098  49.5096970  20.0760403  58.0872154  60.2869301  56.0163498
  58.9867859  59.9729500  55.9245605  58.1783066  61.1849937  56.3348045
  67.7665787  57.7226791  73.6613693  67.4064102  58.5559196  73.9650421
  67.0070877  57.1441040  73.5931473  78.4692154   2.5645311  32.2079582
  77.6287994   2.5043139  31.7537441  78.2451859   2.4971695  33.1361313
  10.2816143   6.6653900  12.2582302  11.1743364   6.6484261  11.9132786
  10.3358707   7.2207623  13.0359507  46.5321541  35.5604172  30.0828381
  46.9869614  35.2188644  30.8527222  46.9328651  35.1013374  29.3446617
  60.1956978   3.4425993   5.2306194  61.0765495   3.7053573   5.4976139
  60.1058388   3.7777846   4.3385386  10.6197672  67.5121765  70.5468445
   9.7623692  67.0951920  70.6318512  10.4222841  68.4297791  70.3591461
  85.6877823  57.8924255   1.3186132  85.2321777  58.1996727   0.5348724
  86.5750427  57.6955948   1.0181819  77.0467453  25.3215256  53.0970917
  77.6251678  25.8131218  52.5140076  77.4443665  25.4142056  53.9628563
  81.1431961  68.4791336   7.5197506  80.5374832  68.0464859   8.1215477
  81.5899200  69.1324615   8.0581141  78.4868622  50.4821587  41.0397911
  78.2417526  49.9721222  41.8118095  79.3025436  50.9167252  41.2888985
  74.4746170   8.4509754  85.8815918  74.1105499   7.7067170  85.4022522
  74.5264130   8.1495190  86.7886047  26.7558727   5.3093557  36.1970863
  26.3322754   4.8393860  35.4788055  26.1406898   6.0071974  36.4224701
  63.3668327  68.1380692  48.6572304  63.4879646  67.2458420  48.3324318
  62.8936310  68.0304337  49.4822884  31.8969936  37.1538773  88.6998291
  31.6979122  36.2190018  88.7508392  31.0411034  37.5821953  88.7149506
  50.6157837  28.7677326  88.6162567  50.9195251  27.9931068  88.1430435
  51.3538055  29.0118923  89.1747742  29.1367226   6.6705480  62.8286591
  28.9234314   7.1071434  63.6533546  29.4810619   5.8170080  63.0915871
  63.5670967  24.5675144  47.6126862  62.8301811  25.1669235  47.4947968
  63.1608658  23.7089367  47.7312393  63.3371696  52.3213844   9.3375206
  63.9346695  52.4396439  10.0759239  63.6691017  51.5474930   8.8823891
   3.8537672  11.7635803  78.6863861   4.2910652  12.2818966  79.3619232
   2.9623015  12.1109838  78.6575394  15.2227964  43.3217583  35.5229301
  15.6610613  43.3771172  36.3721008  15.1075668  44.2328568  35.2530212
  23.9849930  53.5846024  87.4697723  24.5121155  53.9696770  88.1698380
  23.0848675  53.8277473  87.6863022  82.8616257  47.9289627  52.4836807
  83.2514191  47.6285973  51.6626587  81.9341125  47.7062340  52.4040565
  40.0811119  70.8791122  60.8503990  40.9777145  71.0842285  60.5853195
  40.1589279  70.6004105  61.7628174  59.1628838  23.3304138  58.1732368
  59.7617683  23.3128967  57.4267387  59.7269859  23.4938908  58.9290733
  28.7047825  52.9459763  30.1520538  29.0692863  53.8101883  29.9609776
  29.1140232  52.6909027  30.9789104  62.2152290  56.8200150   5.8585930
  62.5318222  56.2473030   6.5571637  61.7176437  56.2409859   5.2812099
  17.9498234  52.4058456  44.0302086  18.6896610  53.0075111  43.9473190
  17.7663898  52.1267776  43.1331558   0.1325635  30.7722530  24.0731716
   0.7188488  30.0936089  23.7385921  -0.6682500  30.6719799  23.5585117
  29.7354240  45.9498520  83.8905716  29.0562649  45.5323410  84.4203415
  29.6742458  45.5175934  83.0387268  62.1569519  32.7012215  12.0365686
  62.4891090  32.0739746  12.6788025  62.9360466  33.1647758  11.7293949
  54.4696732  24.2386456  17.8582592  54.0088539  24.1345730  17.0257664
  55.0442162  24.9919167  17.7214489  52.2141151  41.5428123  -0.2588691
  51.3582001  41.6067162   0.1648725  52.7813225  41.1505623   0.4049461
   2.0776455   7.7595377  47.5273018   2.5215318   6.9992757  47.9030685
   1.3904656   7.3868580  46.9749222  78.8214035  20.8880444  42.2068939
  78.0591583  20.4774399  42.6150742  79.5517502  20.3100414  42.4276657
  55.8308449  60.1482697  61.4035034  55.8233109  60.6401176  60.5823708
  56.6482735  59.6509209  61.3773003  46.4757004  37.3948441  24.5598984
  46.8553352  38.0726967  24.0007706  47.1742668  36.7481918  24.6602764
   9.3681326  12.2542295  23.1779709   9.8754711  12.5441475  22.4198227
   9.5282393  12.9234066  23.8434029  61.2848625  16.5361633  34.5468216
  62.2255325  16.5320301  34.7239075  61.0546417  17.4639149  34.4967690
  47.7321587   1.8760320  41.6251297  48.5249443   2.3450806  41.8853645
  47.0356369   2.5295768  41.6880989   2.4423559  36.6844597  39.8418503
   2.1802266  35.7718849  39.9631844   1.9775997  37.1606674  40.5299339
  37.5483589  64.7431335  40.4132767  37.7623863  65.6524506  40.2045555
  38.2980499  64.4308395  40.9199066  40.4138794  10.0568237  38.2206421
  39.9260178  10.7415962  38.6781425  40.8412514   9.5602589  38.9185028
  73.0640793  37.3153610  52.2000160  72.4306030  37.0010262  52.8451004
  72.7263718  38.1690102  51.9289589  16.4462795  41.8035431  51.1218758
  16.7108517  41.3789520  51.9379387  16.0273991  42.6178932  51.4004440
  69.4988327  40.9701958  72.7718124  69.2064819  41.3419952  73.6039963
  69.5472107  41.7197342  72.1784439  64.2192001  32.0777740  54.8991699
  64.8148346  31.3893452  55.1949959  64.3034134  32.0739365  53.9456863
  27.4595909  19.8606968   2.7518847  26.8176003  20.0720882   2.0741003
  27.1165733  20.2742977   3.5440359  69.1028290  42.5262222  33.3675117
  69.0205231  43.0874977  34.1385002  68.2646713  42.6174088  32.9142914
  29.3964233  49.4581413  10.1192923  28.5153217  49.8316689  10.1001196
  29.5117359  49.0718193   9.2511396   1.3026928  14.4559259  10.4992113
   1.2195315  14.9409113  11.3202515   2.0947535  14.8073978  10.0925922
  30.0228615   6.0045338  72.3105621  30.3082314   5.2011447  71.8754044
  29.7903862   5.7273164  73.1967545  38.4387817  56.6274033  28.5336475
  38.8227577  55.9294968  29.0644245  38.6757317  57.4341507  28.9910793
  28.6274719  59.5096054  27.7404156  28.5034695  59.1994286  26.8433952
  29.3169785  60.1700439  27.6723080  63.4565048  16.1176853  40.5701485
  63.8726959  15.5638323  39.9096489  63.9383736  15.9324522  41.3762054
   3.6366303  36.2791748   8.8208084   4.3773851  36.2264290   9.4247389
   3.8492317  35.6560516   8.1260052   9.0881681  23.5743065  10.4312401
   9.3776741  23.8551311  11.2993164   8.3074226  24.1000977  10.2574244
  18.2274609  49.5970688  19.6695480  18.3203697  48.6663170  19.8727837
  17.8887825  49.9856911  20.4760838  46.4789810  22.4927807  11.6021805
  45.9933281  21.8466759  11.0894241  45.8101807  23.1016960  11.9154797
  24.0884819   6.9766340  16.7849445  23.4924107   7.7252283  16.7618008
  23.7708168   6.4398842  17.5110435  11.8676376  44.2285004  34.2254181
  11.3967619  43.6735344  33.6037064  11.8704605  45.0949478  33.8186073
  45.0362854   6.7117529  29.9543324  44.7060890   5.9639425  30.4523087
  44.3185463   6.9425087  29.3645573  75.3380508  22.9134064  16.3193111
  75.4655151  22.1480179  15.7588072  76.2139587  23.2866211  16.4179001
  67.8866043  55.1606178  63.7958527  68.3807068  55.1743011  62.9761543
  67.2881088  55.9044724  63.7271957   4.6959081  51.3365936  65.0434723
   4.0204020  51.4637756  64.3773270   5.0990038  50.4979935  64.8187637
  57.1644402   7.9169436  57.7134552  58.0150604   7.5914402  58.0079460
  56.5665627   7.1819072  57.8494568  60.7048187  47.9524155   8.9496870
  59.9511719  48.4166603   9.3140039  60.3286018  47.3552475   8.3030939
  79.2848282  22.7624149  44.3076324  79.5265350  23.5739117  43.8612213
  78.8130188  22.2564945  43.6460648  79.5337906  50.5112915   7.1308694
  79.4205475  51.1100960   7.8690014  78.8648529  50.7787933   6.5006328
  80.0080185  43.2411766  15.3090267  79.7882385  42.4275131  15.7627649
  79.3369904  43.3265228  14.6317749  56.6091728  55.0952950  20.1259403
  57.2230110  55.8123779  20.2847576  56.0587158  55.4059868  19.4071217
   5.0729628  68.6590729  20.2653122   5.9574981  68.8871384  20.5513439
   4.8799314  69.2816391  19.5643234  50.0857010  50.3103905  84.4408035
  50.5135345  50.5017548  85.2754059  50.7567062  50.4874573  83.7815399
  55.4252625   1.6389816  10.1789637  55.9421234   2.2222226  10.7347651
  56.0733795   1.1839455   9.6412668  55.7460861  38.4085388   7.3555012
  56.4347534  38.0295601   7.9017096  56.1153946  39.2345963   7.0432892
   7.6360416  41.6907349  22.0643826   7.7044058  40.7831345  21.7680416
   7.8667421  41.6575813  22.9927731  15.7064123  18.4664268  69.1424255
  15.3054905  18.9226437  69.8822632  16.5879307  18.2480812  69.4448853
  55.6843796  57.7100716  18.7255783  56.1143799  58.2080574  19.4208050
  56.3334770  57.6697350  18.0232391   5.1219893  60.1815948  25.7130089
   6.0681214  60.2188568  25.8532829   4.7760653  60.9188576  26.2160130
  40.6892471  62.6140060  12.0187969  40.7322807  62.1387825  11.1890116
  41.2858467  62.1395416  12.5977526   3.7193615  36.0770302  88.1677399
   2.9481633  35.9102325  88.7096481   3.4786394  35.7492676  87.3012161
  69.3165588  15.2715664  32.9275894  69.3487244  14.3986015  32.5362701
  69.1876297  15.1104498  33.8622818  30.0602627  65.0616989  62.1001244
  30.7165661  65.7151260  61.8581963  30.4397850  64.6083679  62.8529091
  82.1218033  27.2031460  20.2771435  81.2455063  27.5208931  20.4948139
  82.1858063  27.3084164  19.3279057  22.7612190  21.3141041  82.2492905
  22.9903202  21.0040646  83.1254272  21.8951359  20.9422073  82.0824890
  35.0365372  61.0109558  50.7297554  34.2305107  61.5235786  50.6683502
  35.4311523  61.2834358  51.5581665  78.2676239  36.8590240  70.6180649
  78.0630341  36.4312630  71.4495621  79.2157974  36.7646408  70.5270767
  29.3632240  26.2139645  29.1809959  28.8018322  26.7966976  29.6923599
  29.0536900  26.3124657  28.2805977   1.6205652  22.5780430  68.3905182
   1.0513545  23.2787838  68.7086258   1.7171214  21.9894524  69.1391602
  13.3761034  17.3727055  38.9955063  13.8744917  17.6156693  39.7757683
  13.0172529  16.5091534  39.1997948  65.3266373  41.9304619   0.7967551
  65.3286591  41.0594826   0.3997357  64.8991394  42.4887390   0.1472920
  47.3626862  31.9928608  24.2709026  47.3514900  32.4146767  25.1300735
  46.5955429  32.3462830  23.8205490  28.5063381  40.0773964  82.9956284
  29.2788353  40.6247330  82.8545609  28.0688515  40.0566177  82.1445084
  76.6042023  52.2980919  65.4405289  76.2435760  51.5541916  65.9230194
  75.9138184  52.9604378  65.4705658   9.6393127  65.2824860   8.6986628
  10.0577545  66.1323853   8.8358488   9.3662329  65.2952576   7.7813315
  53.6092567  25.3946514  39.2281570  53.8579330  25.5310955  40.1423645
  54.1140404  26.0471439  38.7426910  16.3063068  27.1896553  78.5537643
  17.1010952  26.8829460  78.1173325  16.0842514  26.4890671  79.1670303
  24.0002403  23.2180252  12.1451931  23.6024227  22.6562843  11.4800463
  23.6444950  24.0886841  11.9673347  66.3155899  43.2387085  32.3221550
  66.2359314  42.3096123  32.1061401  66.2754135  43.6855049  31.4765854
  67.7331924  71.1631546  27.1734962  67.0006714  71.3605347  27.7571793
  67.4104156  70.4561844  26.6147060  66.4839020  18.3260956  63.6021500
  66.4978409  17.5380020  63.0590630  66.8369293  19.0129604  63.0366249
  65.1765060  32.9298515  87.1383972  65.2617874  33.7393112  87.6421127
  65.8690414  32.3626823  87.4774323  14.3997803  43.1544647  85.6969147
  14.6793804  43.2667503  86.6054611  15.2160616  43.0801735  85.2025528
  32.3194389  47.7654419  15.3018894  31.4147072  47.5743523  15.5492258
  32.2450333  48.4259186  14.6130753   0.3529791   6.0473623  38.2893715
  -0.0400551   5.6289291  39.0553169   0.0220500   5.5442004  37.5453644
  60.7495766  54.5755692  67.6423416  61.5232468  54.1163101  67.3156281
  60.4268494  54.0240860  68.3550415  18.8133774  27.4393253   2.5885608
  18.1301842  27.5186157   1.9228345  19.3836994  28.1930637   2.4374273
   2.4392331  56.4296417  47.3235626   2.7899387  56.4178352  46.4330025
   3.0852463  56.9231758  47.8288574  63.9066582  13.2017517  55.1628151
  63.9326515  13.4443092  54.2372246  63.1747208  12.5884924  55.2292442
  13.8674183  43.0258446  61.4458809  13.8929548  42.6165237  60.5809898
  13.4856443  43.8898087  61.2908020  55.9335403  30.1898346   1.4625982
  55.9173813  30.3935394   2.3977318  56.5804558  29.4890366   1.3812716
  68.6126633  29.1207943  26.5890503  69.0270081  28.2905998  26.3538322
  68.2297897  29.4376411  25.7709751  71.0383377  13.6006756   2.6951699
  70.3578873  14.2711420   2.6343937  70.6247101  12.8079729   2.3534579
  21.5128479  65.5103836  37.7077637  21.8459702  66.0544662  36.9941597
  22.2608643  64.9730835  37.9685631  16.8255768  17.4616489  54.3151665
  15.9368505  17.5048504  53.9622765  17.1197205  16.5729713  54.1152611
  63.5546494  25.9718704  63.0881500  64.4623032  26.2281685  62.9247169
  63.4421272  25.1602840  62.5932808   6.2238860  14.7723551  83.0985413
   6.7796650  13.9939728  83.0602951   6.7754183  15.4773569  82.7593994
  51.7803535  14.9032049  63.4383965  52.3202705  15.6845961  63.3194504
  51.1026459  15.1724634  64.0584335  11.3675776   2.2261932  31.3769608
  10.4901581   2.5334127  31.1489620  11.6010656   2.7268975  32.1586304
  21.5301266  37.5254593  88.4269562  21.5338783  37.0797539  89.2740479
  21.5004196  38.4566879  88.6464157   5.7023096   1.8936006  45.8464546
   6.0605884   2.2411487  46.6632042   4.8343029   2.2911210  45.7773666
   5.4107990   8.9245729  67.7008057   4.5601559   8.6165733  68.0134888
   5.8548474   8.1332293  67.3961258   7.3775539  26.2257061  35.9033279
   7.7030444  27.0749493  36.2017822   6.4374690  26.3587627  35.7818069
  56.7372131  59.5106049  74.2537613  55.8009644  59.6775093  74.3624649
  57.0590744  60.2644463  73.7594299  38.4132309  23.4858913  41.1956863
  37.8920250  24.2167263  40.8633385  38.4106369  22.8464394  40.4834137
  76.6113968  18.6922016  61.0651665  75.9448395  18.6161633  61.7479134
  76.9729691  19.5709820  61.1802406  70.1645050  17.7894630  11.3288412
  69.7499847  18.0539742  12.1500816  69.7984848  16.9246521  11.1434717
  13.6952400  27.3060551  59.9441299  14.0208988  27.1425629  60.8292580
  13.1117439  26.5690365  59.7636642   9.6377850  49.0595055  79.0055084
   9.1243858  49.7559738  78.5961380  10.5474796  49.3362503  78.8955078
  45.1113167  67.5464783  32.5801277  45.7327080  66.8448868  32.7747498
  44.2608757  67.1920090  32.8396072  18.5338783  43.7597466  34.4337463
  18.4785824  43.0839882  35.1094131  19.4660416  43.9709930  34.3820000
  40.3053436  43.7123871   2.0020859  40.1137428  42.8803062   1.5694605
  39.9224014  44.3750076   1.4271744  59.0255699  31.5045624  42.4289055
  59.8261681  31.1879921  42.8473053  59.3269043  32.1618271  41.8016624
  70.3766937   8.2532892  61.6068382  70.3489151   7.3646221  61.9614258
  69.4644928   8.5432091  61.6154327  46.8753471  16.5606346  23.3153477
  47.3425217  15.7574587  23.5453300  46.5105095  16.3854847  22.4479103
  81.6447678  17.0992470  68.9717255  81.8166809  16.1803322  68.7661285
  80.7736893  17.2663021  68.6118011  66.1691208  24.0294323  85.5920258
  66.8373795  24.5322132  86.0577240  66.6614456  23.5007572  84.9640503
  75.9892883  44.8016472  69.8689423  75.1791306  44.4736786  70.2592239
  75.7839508  44.9017792  68.9394073  37.3105659  60.6791992  33.7202339
  38.0503235  61.2828445  33.7880745  37.3991165  60.1053619  34.4812241
  27.9562721   6.0535817  49.1101875  27.8154278   5.6290073  48.2639427
  27.9503899   5.3350549  49.7425804   5.3518405  68.5039368  51.0634346
   6.2435226  68.5523376  51.4080963   4.9281306  67.8258743  51.5896797
  27.1138153  61.0349121   1.4516523  26.8840866  61.8129539   1.9596964
  26.4915714  61.0314636   0.7243061  16.6673088  13.9659472  37.9468079
  17.0308590  13.2225218  37.4657860  16.3882923  14.5783310  37.2660980
  65.5417404  68.4318695  28.4686794  65.6141205  67.4979172  28.6654758
  65.9431458  68.5264359  27.6048737  30.5813942  57.5029030   5.2268133
  30.4723625  58.2216339   5.8495245  30.1974621  57.8303909   4.4134383
  56.9853058  67.4407272   7.5493531  56.2418251  67.6824951   8.1016340
  57.3768806  66.6872864   7.9912071  23.0889206  41.3106613  25.6570110
  22.2827473  40.8175926  25.5047035  23.7284813  40.6487541  25.9198341
  58.0189095  71.2406464  85.4689331  57.8530006  71.7014771  84.6465302
  57.4067345  70.5048599  85.4589005  25.1147442  32.3723679  57.2982216
  24.1801453  32.5247841  57.4379501  25.3210659  31.6221790  57.8557854
  70.8886490   2.7583516  33.1662712  71.3407822   3.0075586  33.9723129
  71.5267715   2.2294393  32.6874313  75.4370422   4.6111927  24.5712833
  74.9484940   3.8102870  24.3812733  75.5520096   4.6018782  25.5215092
  41.9838295  29.8917236  15.4109755  41.6254578  29.6731472  16.2712231
  42.2127609  30.8189068  15.4754229  24.3112278  58.7048607  83.5529633
  24.4435043  58.0424080  84.2311172  24.4837208  59.5367622  83.9938965
  70.5424271   2.7225640  77.5463486  69.7485123   3.1393168  77.8813934
  71.2567444   3.1633124  78.0064850   4.6434703  32.2955055  39.3836479
   5.1994109  31.5848484  39.7032280   4.8110385  33.0201492  39.9861794
  33.9323082  18.3901176  31.7677002  33.7738762  18.4277668  30.8244534
  34.5756416  19.0799980  31.9302349  51.0151863  65.7943268  49.6253128
  51.1475143  64.8932266  49.3307991  50.1850395  65.7712708  50.1012955
  56.1771545  50.2361984  16.4472542  56.7250290  50.9963188  16.6429062
  55.9090805  49.9069862  17.3051529  22.8536911   5.2690253  78.8943024
  22.6942329   4.3252072  78.8978577  23.5637150   5.3943439  79.5239029
  47.3349457   8.7490549  28.9528923  47.2221794   8.9053602  29.8904877
  46.4699516   8.9126606  28.5770645  63.3840065  35.9253120  70.9089508
  63.3078156  36.8764534  70.8330688  64.0835876  35.6916428  70.2988586
  85.9944077  45.8215714  39.9038086  85.9267578  46.6949615  40.2896118
  85.4139404  45.8500900  39.1432266   3.5263276  17.7346516  66.8332214
   2.6222742  17.4669991  66.9983902   3.8404593  18.0525303  67.6796875
  70.9183578  34.4370308  69.0240402  71.4164505  34.3998184  68.2074890
  71.4883804  34.0220680  69.6714249  61.8088264  26.3892326  74.0133972
  60.9925957  25.8927956  74.0729828  62.4399490  25.7694626  73.6476135
  29.3981991   3.4983344  56.0736275  30.2479305   3.6573851  55.6626663
  28.7881241   4.0493736  55.5833206  62.5259209  66.8164215  63.0335045
  62.6469421  67.6769638  63.4348221  61.8150902  66.9430389  62.4050789
  66.5143890  22.2826862  43.7541656  66.0748596  22.4713516  42.9250412
  66.3155518  23.0377254  44.3078880  49.1260986  55.8947372  24.6814270
  48.7985039  55.0402679  24.9621315  48.5996933  56.5260086  25.1719608
  60.3246346   1.6232568   1.7259650  59.8162842   1.2083734   2.4228733
  59.9464226   2.4985688   1.6422043  21.8954830  64.9664001  85.7839127
  21.2447090  65.4883728  86.2532349  22.4791241  65.6124573  85.3861694
  50.4104576  13.6575298  60.6294441  51.1180763  14.1345539  61.0629845
  50.6258278  13.7040310  59.6979485   5.5449595  69.6116028  13.0255566
   5.3255601  68.7816772  13.4490175   4.7543883  70.1434631  13.1169357
  81.4177628  31.9530735  35.4056053  81.6067200  31.5535717  34.5565300
  81.7376022  31.3174591  36.0458603  59.3051109   8.9171963  35.9838600
  58.5232849   8.9843674  35.4357147  59.6228027   9.8169861  36.0592422
  45.5130997  68.8788605  80.3200302  44.8588905  68.2011719  80.4902496
  46.1648788  68.4488983  79.7663651  76.1934662  49.0164642  51.8878250
  77.1296387  49.0843277  51.7001877  76.1255646  49.1771545  52.8289948
  19.4693871  30.5955391  64.1043854  19.8530827  31.4527664  64.2892456
  18.6549950  30.7924309  63.6415367  24.1360416  68.0035324  49.9695473
  23.6828556  67.3088303  50.4472923  24.6376190  68.4673996  50.6399803
  53.9243088  58.9736862  86.6755524  53.6530876  58.1020355  86.9634705
  54.3130150  58.8307076  85.8125992  64.8937302  62.6558838  61.2582626
  63.9611511  62.8343658  61.3794136  65.2716751  62.7528610  62.1323280
  62.5415192  34.8663635  75.4529724  62.0100708  34.5782204  74.7108383
  63.2146492  34.1916542  75.5418243  59.3245850  61.0113869  53.4917793
  60.1341820  60.5095406  53.5862999  58.6765366  60.5173492  53.9939690
  39.4286728  25.9472313  27.1804943  38.5797119  25.6081066  26.8967800
  40.0072060  25.1847420  27.1688156   3.0085256   0.6651397   7.7670932
   3.7702155   0.3040503   7.3135791   3.1187763   0.3896417   8.6771355
  28.4425163  58.9548378  79.1620483  28.8723488  58.8001976  78.3208847
  28.5286865  58.1249542  79.6311951  53.8897667  51.6917000  44.8964996
  54.1662979  50.8433952  45.2431068  52.9334259  51.6610565  44.9230614
  58.0998764   1.5892644  68.3767014  58.8002014   1.1914672  68.8939362
  57.4355545   0.9037920  68.3057556  66.4330673  71.1950760  56.3728447
  65.8484573  71.2610855  57.1278992  67.3126221  71.1921387  56.7504730
  52.1144676   7.4966111  88.7577362  52.6722336   6.9578028  89.3188171
  52.6892471   7.7743888  88.0445023   9.1268721  20.8879433  28.3767891
   8.2298002  21.2149963  28.4440899   9.3160763  20.8989964  27.4385395
  59.1176262   9.0154810  20.1214123  59.3333588   8.4406033  19.3871059
  58.8973198   8.4183741  20.8363686  71.2458191  15.6579628  87.8206100
  72.1621857  15.4163151  87.9551544  71.2179489  16.0044708  86.9287643
  17.5210800  59.9456863   2.6577802  16.7575092  60.3692474   3.0499337
  18.2614613  60.2570496   3.1784699  18.2425537   8.8203745   5.7861981
  18.9555645   9.4552765   5.8551054  18.6050377   8.1095943   5.2573977
  84.2625732  27.7304783  34.8109589  84.8891678  27.9926033  35.4854240
  84.7943726  27.6081142  34.0245438  74.6476364   4.5974364  18.0904083
  75.1521454   4.2360210  17.3616543  74.6132812   5.5377750  17.9148674
  24.3458729  54.9770317   6.2118468  24.4493923  54.7324677   7.1314678
  24.9880314  54.4401588   5.7474847  19.6447678  25.1745243  23.0154133
  19.5030842  25.3292599  23.9493370  20.0289307  25.9898663  22.6931248
  42.5447807   0.1174644   7.7418962  41.8501778   0.7756574   7.7187185
  42.7130318  -0.0856959   6.8217607  47.0951462  68.0352707  38.6316528
  46.7238121  68.3920975  39.4385071  48.0352325  67.9819183  38.8037567
  41.7031975   3.0467141  62.6482048  42.5727501   3.3808773  62.8683052
  41.6319427   3.1695483  61.7015991  70.8268890  55.5625038  67.3542938
  71.4785538  56.0121841  66.8163834  70.0837173  56.1650391  67.3838654
   7.4929051  42.2691078   0.4651567   7.9961357  42.6728439  -0.2419415
   6.5901709  42.5432510   0.3034517  85.4081192  63.2609482  88.5786362
  84.5630646  62.8114014  88.5742264  85.1848907  64.1900024  88.6356659
  85.4553909  41.1867638  57.4468842  84.7720337  40.5308914  57.5850334
  86.1150818  40.7376480  56.9183617  35.6444130  66.3203506  54.8632088
  36.5755653  66.1383209  54.7365189  35.5612564  66.5030594  55.7991219
  33.6582909  61.7222099  11.6448784  34.2252541  62.3227959  12.1287012
  33.9909935  61.7491112  10.7477617  13.8416080  51.5966988  86.4742203
  14.0993004  52.4671745  86.7776947  12.9207010  51.5190468  86.7234802
  48.3764381  46.2373428  31.8873539  47.4449425  46.0198517  31.9226189
  48.7755241  45.6921501  32.5653877  84.9196167  22.3826294  73.1367188
  85.0596313  22.2712440  72.1963882  84.5210190  23.2490330  73.2185440
  69.6053543  33.8506737  12.5876408  68.8417587  33.2778664  12.5165806
  69.8772659  34.0007553  11.6822290  64.1635284  46.3170242   4.2697148
  63.2503319  46.5236778   4.4686904  64.1417465  45.4126930   3.9567642
  51.0894775  18.5667877  26.6911049  50.6314240  18.4543781  25.8581696
  51.3127403  19.4971981  26.7180042  78.1379242   6.0027223  31.0209827
  77.8658981   5.6240559  31.8569527  77.3726501   6.4922967  30.7194805
   6.7682471  46.3900146  48.8876762   6.3184052  46.0999641  49.6812401
   6.1380086  46.2337265  48.1843948   7.2020717  30.4076347  74.9814453
   6.9523349  31.2981262  75.2282104   7.4596820  30.4771576  74.0621872
  11.2690802  57.0568657  80.6815414  11.3085499  57.7224007  79.9947128
  10.3780403  57.1201515  81.0254517  61.3608322  69.0008926  53.8137741
  61.6932030  69.2657928  52.9561081  61.8139763  68.1792374  54.0029068
  63.4510994   9.5048819  18.2017860  63.0994263  10.3295126  17.8663101
  62.8309441   9.2385225  18.8805313  70.6131821  17.1850471  85.3473511
  70.5979004  18.1329155  85.2148972  70.6324921  16.8198814  84.4627533
  50.1590729  14.6437740  41.7474709  50.3165627  13.9650955  42.4038429
  49.2698212  14.9490137  41.9271660  75.0480042   8.8648405  65.4882431
  74.8759842   9.4403906  66.2334824  75.7916794   8.3297644  65.7655106
  68.0903168  43.8256683  84.9944687  67.7419891  44.2405815  84.2053299
  67.3253250  43.6977959  85.5554276  26.8357391   6.4070711  31.8891468
  27.2606983   5.7746711  31.3097401  26.2612133   5.8772087  32.4417763
  53.3464928   7.2581620  75.4324188  52.7587662   6.8086472  76.0396576
  54.2242050   6.9968605  75.7109451  12.6829071  13.2225380  81.7306671
  13.1217976  14.0680513  81.8240204  12.9414625  12.7310915  82.5103226
   9.9916115  37.2633629  86.1932983  10.8846855  37.5346107  86.4056091
   9.6060600  37.0272102  87.0369873  29.1134243  40.6837234   9.6971989
  28.7220478  41.4710350   9.3187885  28.7406750  39.9631042   9.1892653
  45.1732254  56.3023453  68.3532639  44.8706856  55.4118500  68.5313568
  44.9279289  56.4608345  67.4417038  24.2409267  50.0097542  29.2831097
  24.6836853  49.1831894  29.0907898  23.4403439  49.7519493  29.7400932
  13.6346731  47.7452850   1.9709423  12.9605188  47.2674141   1.4878393
  13.1470432  48.3684921   2.5095160  31.8044033   1.6733415  20.7033730
  32.4022598   1.1342071  20.1855564  30.9947186   1.1642247  20.7413540
   0.7909293   3.8866110  26.1702595   0.2581290   4.6751165  26.0672283
   0.1874620   3.1649730  25.9933472  25.0282288  41.2569656  17.6672363
  24.4555149  42.0219612  17.7221203  24.5398922  40.6299591  17.1337376
  76.6324921  30.3798695  28.0892868  76.9310760  31.2748165  27.9275742
  75.6816101  30.4553471  28.1690063  70.3728561  56.2000923  50.4162560
  69.8172455  56.7716103  50.9462509  71.1889954  56.6892128  50.3118362
  11.3388433  15.9332857  80.5591431  11.3184757  15.1679163  79.9846649
  10.9748659  16.6413689  80.0277634  64.9602203  10.2391462  77.4281998
  65.1482544   9.8375397  76.5799179  64.1300049   9.8477049  77.6997604
  63.7810173  62.8451576  78.2345505  63.0413246  62.5279922  77.7163925
  63.3870583  63.4314690  78.8805161   7.3417721  31.2003937   4.4305701
   7.5969758  31.9054317   3.8355713   7.6277719  30.4000683   3.9902127
  72.0700989  13.6654568  11.0957413  71.4461441  13.7291498  10.3726559
  72.8843765  14.0229540  10.7416449  29.8234482  44.8054543  81.3270416
  29.2244606  44.8027306  80.5804291  30.6233101  45.2097816  80.9909286
  26.2475204  70.9988556  20.6951580  25.8796959  71.6872177  20.1410007
  25.5223408  70.3895569  20.8333473  12.1697912  17.4362698  59.2173653
  12.7222881  18.1053524  59.6214752  11.6179562  17.9203358  58.6030426
  12.3957911  51.3636627  53.4314499  11.6547804  51.5529099  52.8558464
  12.7891665  50.5725250  53.0632210  62.1751175  16.9526291  46.5632973
  62.8978844  17.2457390  46.0083885  62.5641861  16.8568249  47.4325981
  64.3822708  56.4830055  23.6930408  63.9323959  56.3348045  24.5248337
  64.5957947  57.4160652  23.6991425  71.8598328  31.9449940  35.3984604
  72.2776718  32.4566460  34.7057457  72.0314178  31.0339832  35.1600266
  16.8398914  70.7296371  22.5363026  17.3472366  71.1207733  23.2475319
  16.1046524  71.3291321  22.4087486  47.6576653  44.1953773  75.7871475
  48.2981262  43.8582802  75.1607208  47.0368042  44.6899529  75.2522125
  62.3542404  65.8117905  87.1753616  61.7354774  65.4794159  87.8256607
  62.9271698  65.0682526  86.9879303  84.1000595  58.0840569  73.3804932
  84.6195374  57.2897720  73.2560501  83.5398788  57.8886375  74.1316528
  70.2135010  54.7256470  78.8968430  70.6232071  55.5873528  78.8204498
  69.8669891  54.5468407  78.0226593  48.2101021  55.8013268  29.4557800
  48.9415436  56.4180222  29.4860020  48.3231773  55.2572594  30.2351627
  31.0337429  66.7464600  72.2197647  31.5277691  66.4898224  71.4411087
  30.2696095  66.1699753  72.2193909   9.8696146  44.2600670  37.6550941
   9.5381784  43.8615570  38.4598122  10.7264585  43.8545837  37.5223045
  36.0099335  40.2736282   2.8098121  36.7446289  40.5729485   2.2742202
  35.9560623  40.9121971   3.5208371  81.1832275  24.4066410  26.7582436
  80.6479416  23.7244301  27.1635666  80.6852646  25.2130508  26.8922749
  24.6600971  41.0358582  22.7815990  25.3181019  40.8802795  22.1040611
  24.8593731  40.3920555  23.4613342  28.7670670  15.4448957  83.8473740
  28.5899963  14.7658262  83.1964188  29.6198387  15.2096624  84.2129974
  10.0242519  67.2175217  57.1752396   9.3627949  66.8401260  56.5953445
  10.4746923  67.8663483  56.6345406  43.6967812  43.0119591  11.8634510
  43.6116028  43.5593567  11.0828524  42.7974091  42.8823357  12.1643877
  77.7573471  65.7847748  73.7626495  78.0315933  66.0176697  74.6496582
  77.4125061  64.8955917  73.8442688  61.0703316  58.6750259  27.9787712
  60.7359047  57.8245392  28.2634850  61.8449097  58.8217545  28.5216656
   6.0992093  21.5266209  70.5044632   5.9738393  22.4753609  70.4842377
   5.7618475  21.2586174  71.3592148  65.8738403  58.8022270  55.3585854
  66.0208435  59.6923599  55.0387535  66.6874924  58.3388786  55.1598206
  17.7879009  43.4775963  76.0390091  17.7444363  42.5626335  75.7611847
  16.9261665  43.6545448  76.4162827  36.9877243  58.0209770  15.7413273
  37.0223808  58.8897858  16.1415825  37.4493713  57.4540558  16.3591557
   4.5428576  42.1526566  78.2929306   4.2308397  41.5041389  77.6618271
   4.1189647  42.9687080  78.0272141  25.6874752  56.1021614  66.1211395
  26.1721096  55.9002266  65.3207779  25.2389851  56.9255066  65.9282837
  70.2656021  18.8368835  17.6544037  70.4450378  17.9200802  17.4458256
  71.1073074  19.2778969  17.5392056  68.3180923  63.7546043  86.4678726
  68.6205521  64.5679703  86.0639038  68.8754730  63.0761642  86.0867310
  50.9158516  47.0935707  79.0492706  50.4951630  47.7067719  78.4465790
  51.5215492  47.6338997  79.5566254  29.5674801   9.0398178  57.4233894
  28.7100010   9.2247477  57.8064842  30.1932335   9.4014139  58.0510139
   2.4908929  57.0526009  36.4203300   2.3089590  56.7744980  37.3179893
   2.0036705  56.4350891  35.8748741  71.0900650  58.3229179   4.7971511
  70.2966309  58.1948547   4.2772479  71.6585236  58.8542747   4.2397056
   3.4038057  20.3627415  12.1930037   2.8046508  19.6648846  11.9279690
   2.9481361  20.8121662  12.9047718  67.0217972  20.6934681  88.4992065
  67.4799957  20.7246017  87.6593704  67.6892319  20.4143295  89.1259842
  50.6128616  30.0703297  21.5577698  50.7044678  30.8681793  22.0786114
  51.5120087  29.8118992  21.3553352  58.3835373   2.0127335   9.9399157
  58.5627708   2.4546766   9.1099806  58.9525871   1.2431248   9.9292297
  54.5358696  44.5767288  78.3606567  54.9106865  43.7056885  78.4911652
  53.6295090  44.4110451  78.1012421   5.1707134  58.4740372  39.6301422
   5.0396633  58.6309090  40.5652618   5.3629560  57.5383453  39.5688858
  62.3466187  58.7334595  36.5576134  62.9054756  58.9408112  37.3065529
  62.9023476  58.8886108  35.7938576  34.6342087  51.2554741  32.1640663
  34.0529137  50.8306923  32.7948494  35.4389305  51.4225578  32.6547165
  38.9210510  18.9354401  58.4113808  38.3343048  19.5492744  57.9696007
  39.6722031  18.8567257  57.8233299  13.4065742  69.2433777  74.3946457
  12.8813944  68.7568359  73.7592773  14.1360893  68.6587372  74.6001740
  25.5077782  39.0063934  24.3675137  25.6838531  38.8172188  25.2891655
  26.2297497  38.5912819  23.8956318  10.4646692  63.6488571   5.2364135
   9.8658943  64.3784256   5.3958888  11.2263050  64.0510025   4.8187747
  49.7909851  59.3066254  34.0635872  49.5293083  58.8769913  34.8779411
  49.6592636  58.6409149  33.3885231  82.3488007  19.2624760  12.5671759
  82.7316742  20.0424976  12.9686766  81.8714828  18.8363972  13.2791147
   8.3701401  39.9076385  18.8292141   7.6999598  40.5877380  18.8966789
   8.2172518  39.3446083  19.5880661  80.3904419  11.8648434  31.8276711
  80.4769669  11.2856894  32.5848541  80.2579803  11.2728634  31.0872345
  13.8969603  14.7727957  45.9483833  13.0658340  14.9070930  46.4038239
  13.6452427  14.5230818  45.0592766  50.0767975  56.0753975  52.0289040
  50.3397827  55.1598244  51.9351044  50.6599846  56.5536919  51.4395294
  83.2775345  12.8002405  82.9780960  82.9019699  12.7971048  82.0976562
  84.1885529  12.5355034  82.8508224   1.6807321  67.1481628  17.9250469
   2.0584130  67.4914474  17.1152687   2.4347601  66.8481598  18.4326611
  68.7258606  67.6805649  27.7570419  68.1518097  68.0090408  27.0650826
  69.4026337  68.3516693  27.8454895  48.8082504   4.3258090  48.5806236
  48.5126534   5.0134711  49.1772614  48.2068405   4.3783836  47.8378105
  32.1221962  37.7001495   8.8131962  32.6280174  37.7235107   9.6254969
  31.8062305  38.5968170   8.7019215  24.2802753   1.9310498  21.7077694
  25.2095509   2.1151769  21.8447952  23.9123459   1.8860713  22.5902882
  74.3323975  30.1655579  82.6276779  74.0255890  30.7515831  83.3195343
  74.4665375  30.7371197  81.8716660   5.3081717   8.8254986  42.4396515
   5.3046308   9.4287786  41.6965027   4.7728500   8.0864468  42.1507492
  68.2040253  63.7525558  64.6944504  68.0675735  62.8082123  64.6181564
  69.1037140  63.8893089  64.3976440  53.0860519  29.3027115  25.8350906
  53.5390472  30.1436996  25.7737217  53.7875175  28.6599121  25.9399223
  53.7721786  31.1201458  85.6687775  53.0685234  31.0878582  86.3168869
  54.0989838  30.2215233  85.6250839  34.9201698  65.0633774  45.0539055
  34.0456390  64.7551270  44.8164024  35.2551994  65.4716949  44.2556190
  53.6156273  17.6411667  85.5197601  53.1470184  17.8593960  86.3253784
  54.5321007  17.5716381  85.7871094  59.9642944  17.8053112  27.1938457
  60.8984413  17.9346142  27.3578148  59.7541466  18.4303360  26.5000057
  52.3297729  68.6874924  43.5728836  51.5658989  68.7509155  44.1462135
  52.3478928  69.5222473  43.1048126   4.6394534  60.8910179  63.2567635
   5.0566611  61.6562729  63.6524277   4.6589537  60.2253189  63.9442940
  68.9268875  71.3375015  83.1923828  68.9123306  71.3324509  82.2353134
  68.0056915  71.2810745  83.4462357   2.8999445  25.4029942  50.1314392
   3.8495007  25.3066616  50.2042084   2.7410541  26.3340416  50.2867889
  40.7636681  19.8263378  40.7984314  40.0670090  19.2294273  41.0715523
  40.7156677  20.5514812  41.4214058  15.7683668  70.1096649   9.3721590
  15.5652781  69.3079681   8.8902044  15.3244019  70.0023956  10.2133598
  72.1207504   5.6776352  66.9109573  71.6327591   6.1576920  66.2419052
  72.2886200   6.3250599  67.5957184  57.4455986  60.0212059  69.2304001
  57.5064621  59.1199951  68.9136276  56.6189270  60.3453979  68.8729935
   3.0437782  40.3497009  13.7024260   2.8066123  40.5519905  14.6074467
   3.9990580  40.2899895  13.7127876  52.2654266  70.8880768  74.9659424
  52.3657913  70.7341690  74.0265427  51.4115906  70.5122757  75.1803436
  81.8343353  46.1976891  48.2171097  82.0770721  45.3113441  47.9493408
  82.0487366  46.7435989  47.4606400  58.3952751  57.1351318  20.8934669
  57.6561165  57.6483421  21.2197952  58.9322014  57.7663498  20.4143925
  74.6083755  69.9691925  36.1309547  74.1863708  69.3763275  35.5091400
  73.8874512  70.3221054  36.6524429  62.0390358   7.9112391   9.8052473
  61.1543312   8.0385170   9.4627199  62.5737762   8.5468798   9.3295937
  33.1943207   7.9087019  88.6106110  32.9627190   7.9846606  87.6849670
  32.5180473   8.4079628  89.0684586  30.6131554  14.5479336  70.1853638
  29.9489708  13.8840504  70.0000229  31.4187870  14.1918821  69.8106384
  65.3472137  37.0611000   1.0841731  65.3719788  36.9721031   2.0369053
  64.4855423  36.7271385   0.8347347  16.8461742  68.8878479  69.5735550
  16.2139015  68.1844559  69.7208862  16.3502388  69.5623932  69.1095886
  53.0021553  46.0095406  63.7721100  53.7486763  45.4329224  63.9347534
  53.3744774  46.8913307  63.7798080  80.8036194  45.4532280  10.2480755
  80.6109314  45.8977509   9.4225445  80.1778717  44.7296906  10.2822409
  81.0769806  64.2890701  74.3168793  81.8127899  64.5585403  74.8666077
  80.3005905  64.5680695  74.8022690   1.2072527  69.2560806  56.8298340
   0.7239003  69.5540543  57.6004295   0.9011503  69.8223038  56.1213722
  68.5752716  41.3566666  67.6779022  67.9475403  40.9443741  67.0844421
  69.4057541  40.9196396  67.4893799   5.6195602  10.9722500  54.8854561
   5.6272693  11.8505850  54.5050621   6.5131302  10.8406496  55.2023888
  25.2496624  56.1791344  23.8395271  24.4274483  56.5204048  23.4877758
  25.4575367  56.7613792  24.5702896  59.3468208  22.1795979  66.3336945
  59.1191521  21.8968945  67.2193985  58.8430557  21.6014423  65.7608185
  56.8666916  64.1931458  61.3753433  56.7770576  64.4941254  60.4711266
  57.7704620  63.8837738  61.4363213  14.0216026  17.7155685   9.4060068
  13.6354427  17.4959507   8.5581379  13.3257523  18.1773987   9.8737011
  24.0612125  17.3297539  25.1249523  24.3736324  16.4658489  25.3938293
  24.6553402  17.5910206  24.4214020  48.6542244  40.1735878  34.1139374
  47.7324791  40.2372551  34.3640709  49.0680504  40.9298897  34.5298500
  81.2308426  41.8719025  85.5934753  80.7405090  42.1345329  84.8144760
  82.0232239  42.4083862  85.5698853  64.5193329  62.6581268  35.2850380
  64.0065231  63.2816429  35.7993164  64.8498611  63.1707420  34.5473328
  23.8576031  57.3943329   8.8296461  22.9578648  57.2002792   9.0924149
  24.3470459  56.6010170   9.0471888  40.5430984  24.9906101  87.1101761
  40.5569382  24.7691517  88.0413055  40.8235931  25.9052010  87.0773163
  75.1385345  63.6488800  51.8022308  75.2607727  64.0447464  50.9393425
  75.0647049  62.7107430  51.6270714  10.8735638  62.2027321  10.4972601
  11.0521383  61.8929596  11.3851700  11.2130127  63.0976067  10.4829903
  47.8413315  13.9376860   7.8946009  47.1269112  14.2336826   8.4587097
  47.9310150  13.0051699   8.0910759  75.8980560  42.3481331   1.6216972
  75.8839188  41.9082031   2.4716930  75.6548386  43.2532196   1.8163769
  52.2750320  10.0167503   3.8877339  53.1400032  10.1624546   3.5045545
  51.7523270   9.6590099   3.1700783  37.8308830  56.1096001  32.9379272
  37.7405472  57.0351868  33.1645508  36.9905815  55.8765411  32.5432053
  80.2862854  68.6796570  80.0084076  79.6474075  68.3177032  80.6224594
  81.0039978  68.9863281  80.5625534  81.2212677  45.4092369   3.5760863
  81.0768280  44.9947395   4.4267101  80.7557373  46.2435951   3.6340933
  66.1300888  64.7799072  59.3388786  67.0793152  64.6586227  59.3167229
  65.8145676  64.0934143  59.9265900  18.1277199  45.0886574   0.7944512
  17.4854755  45.7480316   1.0570925  17.9198322  44.9032440  -0.1213194
  70.3920975  50.4134445  39.8203278  69.4943390  50.7330666  39.9103584
  70.6636124  50.7040443  38.9496574  32.9932518  60.9943275   6.3054457
  32.6001015  61.3593063   7.0981960  32.3701096  61.2051926   5.6101313
  49.5651817  18.4517784  34.3808441  50.4535980  18.3051720  34.7055817
  49.5954781  18.1723843  33.4658318  12.8442392  24.9937477  64.2349014
  12.4504919  24.1338749  64.0872116  13.6758747  24.9607582  63.7621193
  21.2007713   3.1179743   8.2763338  20.8810825   4.0109286   8.1472521
  21.6303768   3.1386490   9.1314621  48.5532188  42.9841156  70.3685379
  49.3192558  43.5514069  70.4557037  48.8446655  42.1352882  70.7013702
  26.8302841  46.1768494  28.0522270  27.2989864  45.4806213  28.5124626
  27.4976292  46.8407936  27.8788548  33.6552620  66.1593933  36.6642685
  34.5414658  66.1205521  36.3045921  33.1416588  65.5829391  36.0984612
  68.8091354  10.2463646  23.6215153  69.6583710   9.9053535  23.3409119
  68.9425964  11.1914454  23.6939163  61.9226913   0.2397140  41.0243835
  61.4780846   0.5781131  41.8015862  62.8274460   0.5381541  41.1170311
  31.4898434  31.2366924  82.7931213  32.2789078  31.7025452  82.5163803
  31.0807114  31.8182373  83.4339371  11.1460505   9.5455103  86.1083832
  10.4718761   9.9868660  86.6250305  11.0499353   8.6193829  86.3303757
  29.4634991  67.1248932  80.0235443  29.0929527  67.0654602  80.9041138
  29.2975254  66.2658234  79.6353683  61.7146492  29.6561832  38.7796135
  61.7612762  30.6049595  38.6617889  62.6283264  29.3769169  38.8381920
  58.7683220  26.0708580  84.9028778  58.4217644  26.9622650  84.8638535
  59.0810928  25.9746513  85.8024063  77.5372772  64.9052200  18.2291641
  77.8912125  64.0159454  18.2416191  78.2034988  65.4218292  17.7758465
   0.0966935  62.5553780  26.7135735   0.2431066  63.3501778  27.2264938
   0.3258092  61.8410454  27.3081017  80.1226044   0.3522435  25.0071678
  81.0378418   0.4118397  25.2810612  80.0808945   0.8625990  24.1984482
  28.6755562  42.1910324  25.2943344  28.6002102  41.9687080  24.3663654
  28.9679565  43.1024628  25.2992897  64.5183563  53.5786133   5.0446095
  64.4962540  52.8020172   5.6037531  64.2576599  53.2592583   4.1807332
  32.0040321  68.1869354  48.5982513  31.9929619  67.8997803  47.6852036
  32.8459435  68.6309662  48.6994896  82.5189514   5.1197233  80.0473251
  83.0343857   4.3655109  79.7614517  82.7438278   5.2270832  80.9715195
  59.3535233  69.0374069  71.0754471  59.4921112  68.0904999  71.0557480
  58.4757957  69.1434326  71.4422989  79.0241470  34.0464592  42.2935982
  79.5786743  33.3559837  42.6568756  79.2286835  34.0507889  41.3585167
  68.4250107  44.2344017  35.3273811  69.2259445  44.7578087  35.3552322
  67.7332611  44.8408585  35.5918045  41.0765839   2.9635963  76.2107086
  41.9294472   2.9192371  76.6430206  41.2578468   3.3733349  75.3648453
  81.3573227  55.3566437  22.4143143  81.0247650  54.4700089  22.2746181
  82.2288895  55.2292747  22.7889843  83.8373489  34.7426987  55.6822281
  84.1041260  34.1965752  54.9427605  84.6295242  35.2227669  55.9235077
  72.4312973   6.2793403  28.4720631  72.3983765   5.3229003  28.4527988
  73.3575668   6.4846067  28.5990257  51.6886406  60.4720917  12.2057476
  52.2154846  59.6765556  12.1296787  51.1040878  60.4455872  11.4482327
  82.5065689  27.0137577  85.9532394  82.4765244  27.9615421  85.8227310
  82.2042923  26.8861046  86.8524399  11.8315649  64.6545410  47.7735672
  12.7739449  64.5404968  47.8966370  11.6709547  64.3675613  46.8746338
  78.9219894  53.4872017  31.0559368  78.8261032  53.0967789  30.1872540
  79.3550949  52.8104630  31.5762043  80.6539841  24.3005409  83.4495544
  80.7442093  24.0682945  84.3737564  79.7257614  24.1661129  83.2583237
  20.2035389  29.5181961  21.1730900  20.9030380  29.8021717  21.7615547
  19.4208927  29.4975414  21.7237892  29.7689514  23.2045879  78.4587021
  29.2992878  23.9655857  78.8000717  29.5871487  22.5080967  79.0896378
   5.4473696  27.2675667  26.4326611   5.8003688  26.4173126  26.6947479
   5.5602417  27.2911644  25.4824333  54.7208939  67.1317978  16.1583633
  53.8492088  66.8243713  15.9096088  55.1488533  66.3615570  16.5322704
  69.3348083  31.9455395   5.9932013  68.3792114  31.9557743   5.9387541
  69.6274109  32.1800156   5.1125002  64.9686661  11.5098982  57.3088760
  65.6238785  12.0655661  57.7309723  64.6081619  12.0541582  56.6088409
  74.0099945   2.7010338  38.7759399  73.1165771   2.8638716  39.0784607
  73.9087524   2.4361463  37.8617096  39.2427330   0.1187571  67.1290359
  39.8460693   0.8357826  67.3242111  38.6384392   0.1054632  67.8712540
  28.1446953  61.0722427  40.0923347  27.2224369  61.2532463  39.9109230
  28.2010574  60.1170082  40.1164703  77.6325378  41.3173714  72.5664978
  77.6489258  42.2729530  72.6196518  77.4723511  41.1316681  71.6412506
  80.6454773  59.4856567  54.8374214  79.9693222  58.8396606  55.0417137
  80.1587219  60.2686844  54.5801926  73.5789642  46.2495155  35.4908409
  74.3043060  45.6898842  35.2134972  72.8205719  45.9126320  35.0137978
  82.9858322  31.8117199  29.5940475  82.6762314  31.1269703  30.1869202
  82.2572556  32.4302826  29.5413055  36.1707840  14.8249826  71.0059128
  35.8798714  15.1423817  70.1510086  35.6715622  15.3438663  71.6366043
  52.9782486   9.6652927  62.6101341  52.6872444   9.8231421  63.5082626
  52.2950020  10.0553694  62.0649338  44.5658607  29.9335613  23.9471416
  44.2634239  30.6821175  23.4329128  44.9361229  30.3215427  24.7399883
  73.5980682  48.6526909  27.2898922  72.8602982  48.1625061  27.6527214
  73.3500366  49.5712433  27.3946552  32.5102463  32.5374336  23.7366180
  31.6868076  32.0515289  23.6910343  32.3980827  33.1295738  24.4802723
  34.6073341  16.7536182  25.2275658  34.4736099  16.5840130  26.1600800
  34.4302139  17.6888332  25.1264114  74.5039902  11.2692842  48.0600624
  73.5476379  11.2434072  48.0909195  74.7282867  12.1601076  48.3290520
  48.5840263   6.3767710  59.6236763  49.2838936   5.9398179  59.1384048
  48.4245682   7.1858311  59.1376457  80.1489792  30.1553974  26.8875504
  80.0686264  31.0449696  27.2316952  79.3841476  30.0472851  26.3222466
   4.6411748  66.8034592  36.8826027   5.5807929  66.7661819  36.7038307
   4.3756523  65.8871307  36.9605217  45.4073563  47.5174255   3.0772438
  44.7949524  47.2856789   3.7754450  45.0927200  48.3612862   2.7530024
  46.8397942  13.4545937  19.9293690  47.7446785  13.5510254  20.2262173
  46.4832344  14.3425198  19.9555130  14.4814129   0.6101100  38.0810776
  15.1842871   1.0419410  37.5955658  14.9345760   0.0401763  38.7024078
  49.1258926   0.9924772  55.8413277  49.3867760   0.3081852  56.4576988
  48.9292755   0.5225760  55.0309143  17.5045776  39.9725227  89.1553726
  17.8785000  39.6493187  88.3356400  16.8251686  40.5889282  88.8820953
  45.1033974  38.1077080   7.4127469  44.7375946  38.9910774   7.4583330
  44.6821480  37.7131462   6.6491385  26.0895233  45.9953575  16.1625328
  26.4875183  45.8152275  17.0142288  25.8509350  46.9215584  16.2007313
  64.3902206  11.1848354  87.6696548  64.9013672  10.4413157  87.9892578
  65.0177307  11.7119913  87.1751099   9.6446180  52.1105690  75.7003098
   9.0057497  51.8436584  75.0393753  10.2573605  52.6737671  75.2274628
  24.7309189  20.0545177  35.5156746  24.2864704  19.4514771  36.1115265
  25.6316853  19.7329845  35.4773903  62.3984833  70.7007217  56.0075531
  63.0432167  71.1819992  55.4889755  62.2996674  69.8650970  55.5512657
  12.7049923  27.6582241  84.6612625  11.7964668  27.3568707  84.6617126
  13.2089825  26.8991127  84.3680420  11.1347618  56.0255394  60.5271034
  10.3622684  55.4682693  60.6216202  11.7846365  55.4643364  60.1040878
  63.7175674  52.3387260  72.5326080  64.6658783  52.4166183  72.6369171
  63.4478874  51.7428169  73.2314606  15.3069820  49.5687981   3.8919005
  14.9886255  49.2519684   3.0466201  14.6472673  49.2768669   4.5210147
  69.4555740  22.7209930  86.2693253  69.0378723  22.5308590  85.4293213
  69.0696564  23.5520935  86.5460358  48.6068726  38.2231102  80.2280731
  49.2180176  38.5520210  80.8872757  49.1541672  37.7235641  79.6221390
  49.2660789  12.9246626  84.6794128  48.6411819  12.3101654  84.2945404
  50.0690994  12.7975588  84.1742096  77.8364716  28.9072361  59.6916924
  77.6939926  28.3421268  60.4510231  77.4618912  28.4206982  58.9573898
  44.6243782  43.4053993  23.0408096  44.3372726  44.1029510  22.4515495
  43.9199104  43.3305588  23.6845150  70.5951385  52.6500053  41.8472939
  70.6197052  52.0324593  41.1163559  70.4624481  52.1011505  42.6201973
  39.2275925  10.3215151  78.3225174  38.7468605  10.7462568  79.0329514
  38.6520958  10.4025469  77.5619431  23.9485664  54.0377045  69.5969696
  24.0655594  54.1343536  70.5420609  23.4986916  54.8386993  69.3281708
  13.9807415  37.1262550  79.2049332  14.5853252  36.7603836  79.8505783
  13.3151445  37.5742340  79.7269821  85.4575424  44.8590240  66.8614960
  85.7316208  44.3262444  66.1149979  84.6669693  45.3060989  66.5592728
   4.8908162  43.1800308  12.2164669   4.4075050  44.0062523  12.2178183
   5.1505246  43.0559654  11.3035641  71.7322235  29.2112026  19.4800930
  72.3759537  29.8553944  19.7748108  71.1444702  29.7044563  18.9078369
  79.9850540  54.6858788  27.3703194  79.6208801  53.8540802  27.6731644
  80.4817581  54.4579239  26.5844746  57.7804871  18.6977711  84.2392044
  57.2518959  19.1422024  84.9020081  58.6601715  18.6672821  84.6153107
  44.4413338   7.1911535  43.5520172  45.3074875   7.0572777  43.1671982
  43.8354721   7.0965190  42.8170242  83.7004929   3.6847126  68.8000793
  83.2729187   2.8324034  68.8836136  83.8909531   3.9464371  69.7008896
  14.7577839  52.7059021  36.8701668  15.7104025  52.7709045  36.8029060
  14.4794140  53.5706177  37.1718369  34.9996033  56.0471992  14.5097437
  34.5761375  55.3381462  14.9936371  35.7097931  56.3371201  15.0822859
  57.9603767  24.2926407   4.4727392  57.9455948  23.8371563   5.3144917
  57.8986206  23.5940571   3.8212802  24.8369865  66.5121384  68.8350906
  23.9947300  66.0965424  68.6503906  24.6124535  67.4095612  69.0809326
   7.5513487  30.7867012  65.7196274   8.2745466  31.0405731  66.2930069
   7.0171704  30.1988773  66.2538071  86.0037460  56.7013092  54.4747391
  86.8676910  56.2951851  54.5447388  85.6196518  56.5988274  55.3454857
  64.8760834  34.4207726  36.2050819  64.3332062  34.7683792  36.9126740
  65.3597946  33.6990318  36.6067505  82.6190720   7.1350260  69.2213287
  83.5338364   6.9975944  69.4673920  82.6428299   7.2636189  68.2731018
  80.1995773  61.1840286   2.4754491  79.4280167  61.3299789   1.9280739
  79.8514862  61.1034813   3.3634675  21.9690208   3.5674222   4.6382933
  22.8955612   3.8074591   4.6499324  21.9695473   2.6102231   4.6394863
  18.6354332  55.1248970  33.1526680  17.7005978  55.0187149  33.3288498
  19.0536385  54.4182053  33.6445274   1.4911158   5.6633000  87.6120377
   0.8277349   6.2408748  87.2344589   1.6949642   5.0429554  86.9121399
  64.0335846  10.8568020  83.2896652  64.3928528  11.5686054  83.8192825
  64.0642700  11.1872540  82.3918381  72.9554901  48.4100990  20.0507450
  72.9552231  48.8633728  19.2076702  72.6014175  47.5423279  19.8562374
  38.4160919  26.9973030  84.0017548  38.9004059  27.8130741  84.1289902
  37.5040855  27.2723618  83.9078445  10.1867685  18.6035461  81.8111877
  11.1381054  18.5896168  81.9160461  10.0380707  19.1618824  81.0480499
   6.3548183  39.3373756  83.6534805   7.2240868  39.5313644  83.3028107
   6.4355021  38.4568901  84.0201797  30.5566559   0.5883294  33.3663063
  30.9377079   0.8385828  34.2079735  30.3985424  -0.3524179  33.4452171
  65.8304672  39.1638260  11.4332972  66.5278397  38.7717209  10.9077959
  66.1837158  40.0104218  11.7066574  78.4312439  44.4863815  78.8464661
  78.9297485  44.2972946  79.6414261  79.0905380  44.5237083  78.1535263
  71.9566650  60.7195930   3.4905128  71.3398361  60.9569969   4.1829000
  72.2182388  61.5560570   3.1056247  62.3678093  62.2351265  88.7779083
  61.5732155  62.4745178  88.3008881  62.3981247  61.2796822  88.7285309
  12.8040504   7.3499560  89.1356735  13.2084064   8.1775150  88.8751450
  11.8769417   7.4593334  88.9241562  58.2347412  34.2288399  72.6058655
  58.1659698  33.3603630  73.0024109  57.7369804  34.7995529  73.1913147
  17.5624905  22.6159267  65.7314529  18.2684250  22.2607670  65.1913147
  17.6134949  22.1200562  66.5486069  67.6960831  68.1685333  35.5149956
  66.9363327  67.6928940  35.1791725  67.9463501  68.7548981  34.8010139
  71.9423828   8.6364145  32.2028236  71.9998932   8.9967690  33.0877342
  71.5150375   7.7875738  32.3171883  35.2952118  65.4771805  58.1935539
  35.5691986  64.6723557  57.7537537  35.8115578  65.4975204  58.9992867
  85.6262207   8.7936068  61.3232803  85.4929428   7.8821068  61.0632095
  84.8813248   8.9921522  61.8906822  15.2481880  64.1792831   1.8578564
  15.9000835  64.8587112   1.6856896  15.1819115  63.6966476   1.0338986
  59.1954117  65.9068222  18.2893085  59.7535934  65.6058502  17.5723114
  59.1452599  66.8554611  18.1718102  79.0668640  58.6468430  87.8586578
  78.5777054  58.1104660  88.4825668  79.7122040  58.0482521  87.4825516
  41.7244911  30.6569328   4.8297071  41.9129829  30.7387428   3.8948224
  42.2115707  29.8803387   5.1051836  60.8423119   5.5522628  63.1684608
  61.5847282   5.3390613  63.7337875  61.2333908   5.9997873  62.4181175
   3.1641347  67.8363190  34.9691010   2.8784003  67.0077057  34.5844078
   3.6803157  67.5801620  35.7334137  58.5830574  60.0616837  78.7656326
  58.9670601  60.2781487  77.9159775  57.6417084  60.1820068  78.6406784
  31.7706680  26.4246998  86.2800980  31.1686497  27.1451473  86.4665375
  31.5175476  26.1205196  85.4085236  59.5572510   1.1589489  17.6490688
  59.9224014   0.8148730  16.8338947  60.2973137   1.5841820  18.0823288
  57.6689835  22.0864182   2.7928200  56.8311272  21.7843094   3.1434782
  57.4860649  22.2872391   1.8749727  82.6892853  40.3826218  49.2059402
  83.1482544  40.7306213  49.9704514  81.9280777  40.9537659  49.1030693
  48.5798798  15.6039877  78.8218994  47.9464836  15.3274193  78.1596680
  49.3492737  15.8728361  78.3199158  51.0845947   2.5708017  36.9458885
  51.7728462   2.7337604  37.5908546  50.2708931   2.7730722  37.4076347
  81.0335464   2.2881234  82.7467651  80.7483215   1.6082003  82.1363678
  80.7227478   3.1053796  82.3572388   3.1539571  34.6004105  36.1687737
   3.1509011  35.5346069  36.3773575   4.0324149  34.4342232  35.8268318
  44.6200676  66.7602997  52.1320381  44.0790024  66.8390350  52.9177132
  44.0103760  66.8961639  51.4067497  70.8135223  34.5617638  19.6730671
  71.3928680  33.8704758  19.9935474  71.1136703  34.7309380  18.7800255
  42.1791687   5.2261105  71.1029053  43.0804100   5.4284930  70.8518372
  42.0392838   4.3314309  70.7927246  61.0017090   0.8518592  31.7111111
  60.3378754   1.0793288  32.3621216  61.1848297  -0.0742525  31.8692722
   1.6722581  52.2892570  55.2518730   2.5338914  52.4793625  55.6229248
   1.7346195  51.3816605  54.9542007   0.9281244  13.8524294  16.4551601
   1.4265891  13.1563540  16.8832283   0.9620916  14.5846663  17.0707150
   1.5414000  55.6271858   9.7767668   2.0584736  56.4158020   9.9409351
   2.1845927  54.9701614   9.5105791  41.7713432   2.5065906  52.8492889
  41.6496429   1.9264473  53.6008568  40.9120064   2.5372801  52.4287796
  64.7250366  31.1228485  65.3215256  63.9681168  31.7086258  65.3345718
  65.2090149  31.3743725  64.5349350  83.7697449  33.7494240  35.1204376
  84.2349396  34.2576942  34.4559937  82.8835144  33.6535721  34.7716751
  61.8870659  63.6386490  18.2519417  62.5166969  64.3327484  18.4469566
  61.3964806  63.9652824  17.4977074  33.5802231  50.0736771  26.4734974
  34.4201927  50.5271301  26.5446434  33.3560715  49.8418961  27.3747559
  21.0503044  15.7717142  45.6560364  20.1136131  15.8001261  45.8510628
  21.4753246  15.9340439  46.4981995  66.1478500  44.7811546  47.3812790
  66.0341873  45.6330528  46.9598770  65.8879700  44.9272957  48.2908592
  72.5426178  59.9394989  44.1628494  73.2128754  59.2801933  43.9831276
  71.7923584  59.4376602  44.4814529   1.2991619  18.5333405  45.7971382
   1.1771683  18.9685326  44.9533615   1.2525448  19.2406483  46.4403915
  78.0833282  68.0279694  22.3667183  78.3601608  68.9157867  22.5933685
  77.7637024  68.0990219  21.4672585  70.0432053   1.8618068  28.8964329
  69.2092896   2.3265183  28.8267975  69.9121170   1.2405568  29.6127396
  17.4409847  22.5885410  87.6820602  17.0274734  23.1460361  87.0229416
  17.9267635  21.9380817  87.1749573  37.8112526   0.7503801  61.4580345
  37.9012375   0.9497138  62.3899155  38.5517578   0.1759256  61.2633896
  35.1250801  13.6516809  22.8307781  34.6637497  14.0023060  23.5926647
  34.8615150  12.7322407  22.7934093  51.2262115  22.3629074  13.9971189
  50.6914253  21.7920151  14.5487671  51.8432693  22.7724400  14.6035452
  40.4208298  58.3450623  37.5277290  40.3584061  59.1801491  37.9913712
  41.2701378  57.9890594  37.7888222  15.7754402   8.8337708  26.3990288
  15.3530455   9.6471109  26.1228161  15.4057636   8.6534338  27.2633476
  73.4799347   7.9285321  83.0764084  74.1159592   7.5555162  82.4660263
  73.7871017   8.8227482  83.2256012   8.5633183  49.5277596  52.7415657
   9.0419779  48.7058563  52.6339111   7.6768761  49.3300438  52.4393082
  46.0017967  26.1378994  86.9695282  45.7104950  27.0447979  87.0639114
  45.3532791  25.7370281  86.3907700  58.0232925  41.9091530  58.6276245
  58.4811668  42.4524803  59.2690163  57.6486931  41.1946869  59.1428337
  73.1757812  14.0720873  35.1498108  74.0319519  13.8997412  34.7580147
  73.1770477  15.0133657  35.3236656   7.5770388  69.3660202  52.1841087
   7.7017412  69.1740799  53.1135406   7.7337379  70.3074570  52.1108322
   3.8441908   3.9108393  49.6259384   4.3128839   4.5790563  49.1258926
   3.2856650   4.4071937  50.2241974  58.8502121  55.4769058   2.7218280
  59.5800552  55.4644470   3.3410261  59.2445831  55.2415733   1.8819951
  78.3782349  11.9746666  43.3314972  77.5306854  11.5441694  43.4436035
  78.2004318  12.7019634  42.7351265  49.7574615  24.4373627   0.9399891
  49.9732246  25.0088634   1.6769186  48.9871140  24.8417034   0.5408608
  67.7554855  60.6033592  19.2202682  68.2968140  60.2472954  18.5156994
  68.3813858  61.0007591  19.8257084   4.1674862  61.4593925  14.5066233
   3.2254939  61.3058205  14.5794058   4.2871175  61.7979240  13.6193132
  38.4426460   6.8893418  25.7602291  38.4847412   6.4586468  24.9064369
  37.5435333   6.7470732  26.0561848  24.8938046  64.6979980  48.3496666
  24.3799286  65.1523743  47.6820602  24.4376240  63.8663635  48.4781914
  38.8274231  67.0216751  39.6272430  39.6779289  67.4501648  39.7235184
  38.2046738  67.7429810  39.5370827   9.0424309   0.4118651  15.3638277
   8.9266453   1.1381736  14.7512093   8.9750967  -0.3730781  14.8201714
  15.8298454  28.4982185  38.3877296  15.4752274  28.7533970  39.2394104
  15.2242336  28.8796062  37.7521133  78.9494476  61.6467323  53.1622543
  79.7780914  62.0949326  52.9928589  78.3620834  61.9614449  52.4750938
  65.8773651   9.2354326  10.2341824  65.0527420   8.9801216   9.8205986
  66.2986603   9.8092594   9.5942869  16.2963505  17.4486351  37.6194725
  15.6330357  17.3513680  38.3026886  16.7079411  18.2929554  37.8037148
   2.9594183  53.4672241  37.0330162   3.4849546  53.7325478  36.2782669
   2.2466385  52.9496193  36.6585007  43.5169449  67.4461365  54.7508125
  42.7473907  67.5526886  54.1916504  43.3467979  66.6422577  55.2417984
  84.0333633  13.4790459  58.4893036  83.6796036  13.9150591  57.7140770
  83.3915787  13.6555567  59.1771851  70.8779144  35.9276466  29.5548210
  71.6741257  36.3364754  29.8941383  70.3649826  36.6561775  29.2050018
  45.8968735  59.4140167  53.4442558  46.5706787  59.2921448  52.7754021
  46.2528610  60.0884399  54.0227547  13.9230328  54.4319077  70.5270844
  14.5543833  55.1466599  70.4448700  14.3410358  53.6913719  70.0876389
  85.2678909   7.2335830  15.3314123  85.3503723   6.2886653  15.2027283
  84.3770676   7.4372540  15.0464897  13.3709984  38.9623833  75.2220612
  13.4235287  39.0056458  74.2672806  14.2688293  38.7867279  75.5036163
   7.0026011   2.5629575  58.4819298   7.1278992   1.9293754  59.1884041
   6.1606693   2.3252125  58.0935211  66.9701614  16.5717983  26.3753872
  67.2589874  15.6652603  26.4802933  66.7027512  16.6333790  25.4583645
  65.0209961   2.1630523   5.7594180  65.8270264   2.5422664   6.1097627
  65.1918182   2.0603259   4.8232036  73.1220856  70.8501358   8.6937437
  72.1888733  71.0499649   8.7673340  73.5442810  71.7051620   8.6105709
  86.0393753  12.8445339  38.0279160  85.2449265  13.3593998  38.1693153
  86.3558960  13.1236048  37.1687508  58.5956078  69.3984604  77.3716202
  58.6183281  68.5379105  77.7901535  58.7183685  70.0179520  78.0909195
  83.7875671  18.8465118   1.4266313  84.2523651  19.1146221   2.2192941
  82.9570236  19.3208809   1.4639616  11.1988382   1.1783309  59.9857216
  10.7610359   2.0284166  59.9419670  10.8788147   0.7043161  59.2181778
  31.3436298   0.2252425  14.8474712  31.2343063  -0.1070495  15.7384615
  32.2251930  -0.0498890  14.5957184  61.2186508   0.6757497  25.7924080
  60.9332275  -0.2181784  25.6035748  60.4062805   1.1614089  25.9353123
  61.7294693  25.6370106  57.7212830  62.0551376  24.8919640  57.2162285
  61.1307487  25.2500191  58.3600349  33.9535561   6.5374732  33.4308891
  33.0138817   6.4307370  33.5787315  34.0152512   7.2278652  32.7707520
  44.7816849  56.5011520  59.0984306  45.5509758  56.2904396  58.5692596
  44.7599792  55.8205452  59.7711372  36.0526962  68.4114609  87.1818466
  36.6977615  69.0705872  87.4381180  35.3130569  68.9179688  86.8462677
  15.6621408  66.9881973  31.6350555  14.8230658  67.2241592  31.2394505
  15.4262772  66.5347748  32.4443817  30.2662430  29.5548038  21.0734425
  30.8790970  30.2776699  20.9388733  29.4041653  29.9706459  21.0848217
  17.0567188  15.7780828  35.4753494  17.1246872  16.3949795  36.2040825
  17.5789642  16.1734352  34.7773590  51.0539589  55.8167877  40.9696159
  51.3690948  56.5285683  41.5266533  50.6862183  55.1788712  41.5812149
   3.1209455   3.0032802  68.1412048   3.2456369   2.3692343  68.8473740
   3.9327981   3.5101938  68.1283417  80.4785385   1.7228492  22.4282627
  80.4308243   1.3925449  21.5311260  81.3406296   2.1347365  22.4863129
  66.5958939  27.8057499  36.2292366  67.4971161  28.0179501  35.9863396
  66.2816544  27.2466221  35.5187035   3.9188204  19.2859325  21.0098572
   3.8609905  18.5726070  20.3742065   3.7442896  18.8694115  21.8538246
  85.2568054  31.2612743  15.7668142  85.0325089  32.1868401  15.8630199
  86.1388702  31.2659645  15.3950987   6.1817856   0.9748915  14.0752811
   5.6992874   0.2792524  13.6286116   6.2386951   1.6794337  13.4298248
  18.4992676  33.5142250   0.7021055  18.0224552  33.2632217  -0.0890203
  19.4171963  33.5363464   0.4316410  66.2109528  23.2300186  59.6235504
  66.1616974  22.8378849  58.7517509  67.1153793  23.0842133  59.9010086
  41.2612457   3.8892043  73.5473938  41.9647179   4.3384523  73.0788498
  41.1772461   3.0460393  73.1021423  10.7117252  57.5943069  12.9195728
  10.2224932  58.4057808  13.0551891  11.1803579  57.4567375  13.7427931
  25.4881077  69.9891129  56.2327309  26.1047707  70.0349197  55.5020714
  25.8229198  70.6213074  56.8687096  61.7039795  40.6652107  52.5425873
  61.7128944  39.7340965  52.7643547  60.8587456  40.9797363  52.8633423
  21.7812939  70.0819702  25.4089546  21.3654671  69.7881851  26.2195187
  21.2432384  69.7042770  24.7131958  34.9393845  59.1255074  27.4223919
  35.0807533  58.2001762  27.6224136  33.9879456  59.2167091  27.3705826
   3.0425737  18.0121918  76.9373093   2.9757040  18.9153309  77.2473068
   2.6009212  18.0171280  76.0881042  34.5693321  36.7523346  88.5527344
  34.9586105  37.4455643  89.0857697  33.6328926  36.7993698  88.7453384
  22.6138401  33.8581543  75.2101517  21.7191792  33.6829605  74.9184036
  22.7322178  33.2920685  75.9728928  62.8218079  55.2196198  57.6441879
  62.4085274  55.5541878  56.8482628  63.3905411  55.9319534  57.9363480
  83.0419769  34.3105202  81.6761475  83.8941116  34.3964996  81.2487030
  83.0354004  35.0016060  82.3384094   2.7026680  24.7050056  44.5698242
   2.0769584  24.6115551  43.8515015   2.4167037  25.4906635  45.0358696
  16.1319580  40.2449074  68.8582230  16.7712994  39.9147263  69.4894562
  16.4105530  41.1437531  68.6830215  27.5537548  21.4369411  84.0874405
  27.0288811  20.8064899  84.5806656  27.5059261  22.2427940  84.6017838
  60.3500175  33.1113129   7.7344303  61.2634010  33.1556053   8.0172682
  59.8797302  32.7715836   8.4957752  36.0709839   6.9820299  87.7453995
  35.3745613   7.3684530  88.2763443  36.8114700   6.8979120  88.3460999
  13.9288530  67.9317856  15.3743734  13.7647610  67.1091843  15.8354979
  14.8682365  67.9202499  15.1909113  48.2570610  26.8595524  66.4845657
  47.9652367  27.5978584  65.9497986  47.8361320  26.0962238  66.0891190
  81.0388565  66.2367630  70.7024994  81.2356186  65.3650818  71.0455551
  80.4783325  66.0746231  69.9437103  47.7394295   8.6764565  46.2348976
  47.5845108   9.3049688  46.9400215  47.0632057   8.0098009  46.3554153
  49.6022224  64.0332260   1.7630991  48.6806602  64.0888290   1.5103889
  49.5981140  64.1562424   2.7123518  84.1615677  48.0087929  21.5288448
  84.4343567  48.8159027  21.9651814  84.3252563  48.1716194  20.5999050
  68.1635971  67.1353531  48.8723831  68.3584518  66.3722763  49.4164162
  67.7130966  67.7406616  49.4613533  74.0355606  37.8135300  18.7078838
  73.4732208  38.5880966  18.7149868  74.0166931  37.5121727  17.7995567
  41.5828972   5.0179176  24.3974514  41.0702744   4.2359567  24.1925468
  41.2773438   5.6752281  23.7723026  83.7855377   4.1567011  26.9783554
  84.1044312   4.3033161  27.8688850  83.9978333   4.9650841  26.5117970
  32.4796295   6.4907765  49.4879189  31.6145878   6.1706905  49.2320251
  32.8586044   6.8308225  48.6773796  85.3517685  36.6618080   2.9544010
  84.8640823  37.4124336   2.6153569  86.2691956  36.9304848   2.9057887
  61.0280075  70.7925110  12.6243200  60.9689026  70.0641632  12.0060558
  61.8750343  70.6737518  13.0540581  34.9596024  26.7150764   3.2143955
  35.7310905  27.1765118   3.5432026  35.2571602  25.8149605   3.0821691
  13.9651823  40.0993042  46.9578056  13.9998512  39.1472740  47.0508957
  14.5552931  40.4279251  47.6360474   3.9259729  70.6602173  87.1017456
   3.0214672  70.6663666  87.4149017   4.4551148  70.7252884  87.8967361
   4.8901420  50.2304192  57.9395332   4.7704530  49.3465805  58.2869949
   5.7664599  50.4848022  58.2286491  75.0333862  48.5492096  33.4341545
  75.3384247  49.0282135  32.6636124  75.7028656  48.7128296  34.0984306
   6.5856538  48.7811546  21.7711678   6.4880476  48.4443398  20.8805161
   7.5130124  49.0077019  21.8412743  52.2731972  41.5373764  16.9270420
  51.7677155  40.7249298  16.9015160  51.8686867  42.0921936  16.2601280
  30.5480251  16.5276127  15.7188616  30.7334194  15.6734095  16.1089878
  30.6243782  16.3819103  14.7759008  81.4438400  55.6673088  84.3749619
  80.6708298  55.2445869  84.7491302  81.1212921  56.5047684  84.0420151
  51.5683136  44.3026314  83.6055374  50.6894836  44.6070862  83.3792801
  52.0298653  44.2595406  82.7680740  14.8171196  13.3666849  85.9298401
  14.2534294  14.0532618  86.2863464  15.4335394  13.1722555  86.6358566
  84.6389923  32.4233665  12.5678654  84.8240509  33.3505630  12.4185457
  85.4640732  32.0639343  12.8938913  70.0958710  49.4256096  19.6233387
  70.9155502  49.4055786  19.1294193  69.5339508  50.0237770  19.1307182
  70.6802368   9.6934118  50.3250999  69.7428360   9.8864355  50.3409958
  70.7293091   8.7392206  50.3829269  64.4641495  20.4820099  23.5858364
  63.8981400  20.9818211  24.1740990  64.6297913  19.6624565  24.0518074
  44.2208328   8.5367451   6.2420897  43.5887451   9.0248375   5.7143955
  44.4256630   9.1212893   6.9718742   4.3014531  33.6047401  74.0194702
   4.6285691  34.3345528  73.4935455   5.0735793  33.2766418  74.4803467
  10.4406424   6.6892524  58.3513870  11.2041492   6.1120133  58.3605690
  10.1997976   6.7825198  59.2730865  11.7629843  26.9384995  29.0108681
  11.0002518  26.3705330  28.9018459  11.3948593  27.8148289  29.1238461
   6.6349764  67.6934280  61.1182365   6.4218822  67.1799240  60.3390503
   6.5682392  67.0700531  61.8415451  10.4539537  15.2403212  59.4187279
  11.1009321  15.9422903  59.3488045  10.5111532  14.9517374  60.3295937
  11.4859619  27.1601524  63.1589165  12.1566191  26.4821606  63.2412376
  11.0439243  27.1641312  64.0079269  80.2278976  14.5266905  13.3413229
  79.8075180  15.0939255  13.9876642  79.5005569  14.1077433  12.8812275
   7.7732425  65.2630005  46.1479378   8.0098991  65.9197922  46.8028030
   8.5679665  64.7419510  46.0332260  11.1657028  55.6653633  47.6098938
  10.2478743  55.4165192  47.7189751  11.1324415  56.5290527  47.1985931
  32.2712402  37.9090080  85.8151932  31.3547287  38.1195183  85.6365280
  32.3078117  37.7840042  86.7634964  21.9737434  61.7417183  80.9190979
  21.6689396  62.2848358  81.6459732  22.8709717  61.5066071  81.1556015
  61.1906509  53.0175629  51.3012123  61.7835770  52.2822380  51.1463928
  60.3380318  52.7056999  50.9978714  56.6229019  58.8326950  53.3651733
  56.3774300  59.3628426  54.1234093  57.4280167  58.3897476  53.6331673
   6.9870958  66.6334534  11.5993977   6.2839136  67.0075150  11.0685043
   7.7303615  66.5669785  10.9999237  42.2147865   8.4249783  73.4216232
  41.7191811   7.7214513  73.0025101  42.4063072   9.0385008  72.7122955
  61.4329987  45.8304405  37.8539581  61.3326683  45.1500015  38.5196648
  62.3784637  45.8971443  37.7202415  35.6751289  69.8104324  34.4405098
  36.5895805  70.0521545  34.5874138  35.2146034  70.6466599  34.3706551
   5.0748448   5.1879063  35.5634537   4.5027723   5.8219337  35.1310463
   5.9249420   5.3039041  35.1390572  79.1930389   2.8385963  38.0134621
  78.7251892   2.1967022  37.4793129  79.3508682   2.3896186  38.8439674
  82.1013565  47.5737381  18.7548580  81.7661972  47.4056435  19.6355667
  82.5365753  48.4235916  18.8223763  77.6145935  20.3031502  51.6202583
  78.3459015  20.6681900  51.1220932  76.8666000  20.3625679  51.0259476
  12.1901350  50.5790100  33.9465218  12.9251909  50.0447006  33.6457901
  11.9902658  50.2416534  34.8197212  44.5228157   0.6493855  84.2493057
  45.0441589  -0.0143931  84.7007828  44.8028030   0.5932723  83.3356934
  77.4363022  26.7649879  74.8917923  77.5243607  27.7174606  74.8560944
  77.6143188  26.4743099  73.9973373   7.9211321  48.9589653  49.4397659
   7.5085120  48.0953751  49.4534798   7.1965327  49.5684166  49.2992058
  21.2042351  14.4861641  70.1717834  20.7699032  15.1449442  69.6299362
  22.0232868  14.3004379  69.7125549  13.9020290   9.4106455  80.5722504
  13.3173866   8.7916183  81.0095444  13.4766512   9.5904655  79.7338257
  67.4401855  24.9771137  39.5373611  67.3709946  25.8165169  39.0825577
  66.6000290  24.5475807  39.3765030  46.8381195  12.6010704  68.7621002
  46.7990456  13.4264574  69.2452545  47.5526161  12.7230892  68.1369324
   7.5708628  60.0412521  34.4421272   7.9612541  59.5158157  33.7437401
   8.3117943  60.2992058  34.9904976  50.7739296  70.4779968  69.2006531
  51.2942352  70.5593643  68.4013443  49.8928070  70.7474747  68.9413452
  65.3841019  38.6304665  19.9316044  66.2132874  39.0779648  19.7629910
  65.6041260  37.6993637  19.9021435  31.2258396   3.4365032  83.4962387
  31.8960590   3.8873968  82.9826889  31.1934795   3.9177999  84.3230057
  11.5570726  56.9346695   6.5694828  11.4785261  57.8648148   6.7813654
  11.8437614  56.5263176   7.3863621  27.2045116  27.4274578   7.4483171
  26.3520164  27.0424900   7.6515050  27.3386898  27.2359467   6.5201187
   2.2307804  27.3107510   3.6038685   1.8448957  26.6454506   3.0340421
   2.5449851  27.9870720   3.0037878  15.1955395  60.2735901  86.0340500
  15.6589689  60.9849510  85.5919724  15.1446896  59.5774078  85.3790817
  41.2071304  41.3529472  14.8842916  41.6667519  40.7205467  14.3319817
  41.4879646  41.1419373  15.7747049  53.3408928  16.0980053  75.9456635
  52.9092255  15.4967747  75.3386841  53.9935417  15.5592403  76.3928833
  55.3280983  64.3572845  56.6646805  54.8355637  65.1676865  56.5347252
  55.9406776  64.3288345  55.9297180  24.5022316  45.7260704  57.3073921
  24.0625687  46.5265808  57.5939484  24.3411388  45.0988655  58.0122986
  20.6565342  53.6590385   7.9351001  21.3290367  53.0755119   7.5837150
  20.1559753  53.1110458   8.5395660  70.8113785  33.4892197  26.1889114
  70.7098694  34.4330101  26.0656853  70.1489563  33.1004753  25.6176720
   0.6678272  48.7783241  43.6193085  -0.0660748  49.0966911  43.0937004
   1.3629920  49.4199715  43.4734917  69.9450226  40.2432861  61.9071388
  69.7525787  39.3093109  61.9901276  70.8943634  40.3026505  62.0141449
  20.1414051  70.2801132  32.8536491  20.9834251  69.9106064  32.5877647
  19.5960255  69.5178909  33.0480766   8.6757250  60.5357132  83.4515381
   8.9202003  61.4144402  83.1611938   7.9243922  60.6743736  84.0281677
  73.5580750  18.5320950  84.6381683  73.7742462  19.1103096  83.9066162
  73.2479401  17.7270088  84.2235794  61.4622040  22.1716728  88.4354553
  60.9489594  22.7274132  89.0219421  62.1885681  21.8601246  88.9754257
  59.3935966  12.9168110  63.1393661  59.4937363  12.8953342  64.0910721
  58.4986038  13.2261496  62.9996223  34.1752892  58.7520180  75.4526443
  33.2448616  58.5285797  75.4774246  34.5953331  57.9856491  75.0621643
  22.2740784   7.9111509   1.1267492  21.4382915   7.7051263   1.5453720
  22.0498009   8.0711174   0.2100476  21.6516075   2.9206803  58.7391319
  20.7370739   3.2027307  58.7215843  22.1352177   3.6939933  59.0295486
  27.3085327  19.1944656  32.2684708  26.5538692  19.0891266  31.6891460
  26.9621696  19.0294247  33.1454124  85.6775818  62.9843788  46.5263214
  85.0329666  63.2068024  47.1980591  86.2463226  63.7526703  46.4764099
   2.8728585  39.5322189  30.3049183   2.5973384  39.6305618  29.3935184
   2.4692698  38.7124176  30.5900135  53.3156586  12.3758268  78.4932632
  54.0430336  12.7013445  77.9629822  53.1025887  13.1021376  79.0791855
  76.8605194  62.4658699  77.8476334  76.6865082  63.1471672  77.1981812
  77.7655411  62.2021255  77.6814728  43.5659180  43.3953590  30.0186253
  43.5806503  43.9834366  30.7737274  43.1111641  43.8911667  29.3377419
  74.2915649  52.6608086  40.3574600  74.7708206  51.9229698  39.9804420
  74.5196762  52.6447449  41.2869453  21.4959278  66.4228897  41.0487213
  22.2783203  66.1798782  40.5537109  21.1449261  65.5906754  41.3656464
  74.4735870  44.1889038  13.6380844  75.4024811  44.0374908  13.4635496
  74.4213562  44.2866974  14.5888424  67.4847488   4.4772005  67.2875366
  68.4401398   4.4236741  67.3118210  67.2423401   4.0588551  66.4614258
  79.5282669  36.2961960  67.1540985  79.1060028  37.0651703  67.5369873
  80.2193680  36.6547928  66.5973129  65.0242691  43.4330368  82.6602707
  64.8735123  43.8215065  81.7985306  65.4792252  42.6112213  82.4762573
  74.9674759  45.6807480   4.9826255  75.3190536  44.8692284   5.3487587
  74.1968536  45.8707848   5.5176597  10.0648937   8.4024525  82.9921875
  10.1071930   8.3156176  83.9445038   9.5069523   7.6776214  82.7101364
  66.3800735  53.6683197  70.4043655  65.7492294  54.2384338  70.8439560
  65.9879684  52.7963600  70.4509888  15.2121239  65.4014053  34.4204445
  14.8610592  64.5192337  34.5419350  14.4520617  65.9761963  34.5107536
  20.4497070  39.5944481  80.7343445  21.3954887  39.7069664  80.6390991
  20.0717106  40.3416214  80.2705765   3.4211287  57.5485497  10.8151932
   3.8297133  58.2535858  10.3129845   3.9476030  57.4859543  11.6121492
  67.1281052   3.9721372  80.9327164  67.5908585   4.1018209  81.7605286
  66.2089157   4.1354923  81.1440125  79.4875031  61.3376045  12.2205963
  79.6273041  60.7986107  11.4420252  80.2469177  61.9196320  12.2484865
  42.6411858  14.2041903  63.0858650  43.5719147  14.4136267  63.0076637
  42.5408134  13.3786306  62.6119385  53.0821762  26.0385170  27.6618233
  53.5943184  25.9863319  26.8548431  52.1738663  25.9418068  27.3757248
   1.2919375   7.5139747  77.0860443   1.3800337   8.4142437  77.3990707
   1.8915162   7.0094905  77.6357956  32.0947533  69.9749832   9.7516098
  31.2600193  70.3604965  10.0177565  32.7504425  70.6241150  10.0064287
  86.4191208  42.5884285  17.0102901  85.5383911  42.7553902  16.6746311
  86.9735413  42.5715904  16.2301865  13.7254114  15.3338356  10.8262558
  13.6598253  15.3745337  11.7803383  13.9360571  16.2294655  10.5622368
  54.6497231   3.7794359  76.6379776  54.1416779   3.7438092  75.8275146
  54.2935028   4.5314326  77.1110992  15.4283400  52.6367264  56.8580322
  15.4006290  51.8852234  56.2658272  14.5712948  53.0513573  56.7591057
  42.3850555  11.2586460  20.9108944  43.0854187  11.2731810  21.5632114
  41.6202049  11.6017447  21.3729763  33.0587349  22.9505730  37.0123978
  32.4084778  22.4730854  36.4972267  33.5041962  23.5102844  36.3763809
   2.9717064  25.1139812  55.4786911   2.9652882  25.3778477  56.3987808
   2.3824160  24.3605995  55.4414673  55.2673912  60.5438805  29.1042480
  56.1981239  60.3210869  29.1224289  54.9734612  60.2740021  28.2341881
  35.2099800  63.9877548  69.1130142  35.6561813  63.8570251  69.9496994
  35.8031044  63.6099129  68.4636536  80.4138718  28.2369766  48.6046677
  81.2718506  28.6610088  48.6218758  79.7890625  28.9616299  48.5777702
  29.7259350  70.5923309  76.7360001  30.1453152  69.8481903  76.3040237
  30.3055172  71.3322449  76.5547943  76.1325378  14.0176325   1.8399109
  75.3647690  13.4985743   1.6004434  76.6817398  14.0086241   1.0559927
  69.5578156  41.7987862  11.4207611  69.7253494  42.1094589  12.3105059
  70.4240112  41.7530212  11.0159731  49.2048950  51.8849449  38.1451149
  48.9147415  51.3350945  37.4173050  50.0739136  52.1893806  37.8836708
  67.1924667  22.0525112  50.9815331  68.0550842  21.6983147  50.7655106
  66.5752716  21.4481583  50.5691528  11.9048405  32.9100571  77.0868530
  12.8487597  32.7898178  76.9829712  11.6223164  33.3095970  76.2641907
  83.2393875  19.3724270  41.3023262  83.5350266  19.1509266  40.4192810
  82.5250549  18.7595520  41.4765320   1.2142185  15.2807789  79.6359863
   0.6858070  16.0788918  79.6413956   1.8642036  15.4191952  80.3248901
  79.1736832  37.5371056  45.7247925  79.5647659  36.8227386  45.2218323
  79.4759293  38.3323631  45.2860985  60.4941597  48.7995071  84.6354446
  60.5337639  47.8668747  84.4236298  61.3153725  48.9759483  85.0944748
  52.0373840   3.4505961   1.0825994  51.4888687   3.0983994   0.3816556
  51.4645157   4.0553761   1.5540836  40.2391701  58.4454346  76.8688202
  40.0958862  57.6421814  77.3693085  39.6327209  59.0784874  77.2531357
   4.9440269  12.8037519  80.9818192   4.4036384  12.4079189  81.6655807
   5.7705154  12.3224993  81.0211182  13.6344757   1.8624229  59.2415047
  12.8221006   1.5695462  59.6544228  13.9340649   2.5874615  59.7899551
  77.5195618  35.9857979  86.4970703  77.9977036  36.1340904  85.6812134
  77.0110703  35.1910629  86.3356094  35.2906609  66.1831970  32.3700676
  34.4762154  66.6835251  32.3191986  35.8533554  66.5729218  31.7009468
   3.5154784   9.3891106  70.9979553   4.3236489   9.8149843  71.2838287
   3.8091953   8.6605835  70.4509506  27.4021301  67.2821884   4.8666492
  27.4474049  67.8619385   4.1063361  26.5048752  66.9488297   4.8605638
   9.5585375  43.5955544  84.1675797   9.4244986  43.4238777  83.2354889
   9.9941931  44.4474564  84.1939850  49.4768791   0.2038596  80.1311493
  48.9148712  -0.3177908  79.5582047  50.2525063   0.3891918  79.6017303
  40.7378731  35.9631310  17.1400166  39.8092957  36.0815620  16.9401321
  40.7482491  35.3520737  17.8767223  30.5916023  62.5342484  43.1558304
  29.7211514  62.8180389  43.4351311  30.5516548  62.5450478  42.1995277
   3.8399260  23.3745232  36.2367401   4.2865214  23.3415852  35.3907471
   3.7319500  24.3088799  36.4143562   2.2404516  50.7296333  42.7653732
   2.2425363  50.9438667  41.8324547   3.0194230  51.1641846  43.1126480
  29.5852261  44.9682808  24.8464756  29.7482033  44.9415359  25.7893200
  30.4269524  45.2175255  24.4648895  23.6965313  33.7190857  84.7480011
  23.4385109  32.9855652  84.1897888  23.2932110  33.5289345  85.5950012
  35.8572197  39.5124054  82.6370392  35.2775230  38.9272881  83.1247101
  36.3794746  39.9481468  83.3105469  51.5371094  29.4595127  31.3856506
  51.6216507  30.1405201  30.7183342  50.8030281  28.9222107  31.0878792
   2.0385737  10.3074436  68.9293747   2.5165453  10.1600056  69.7454910
   1.6276965   9.4646273  68.7368393  33.7047577  48.8491516  33.4836884
  33.3454285  49.1743584  34.3091278  34.3251534  48.1683731  33.7442284
  40.0207253  64.2377625  41.3592796  40.4180641  63.6903381  42.0365372
  40.5560532  64.0824203  40.5811272  55.0359955   1.3024981  59.2670097
  55.8205795   1.8197389  59.0850067  55.1105194   1.0720739  60.1930695
  62.7852364   7.6521854  45.4651451  62.3121567   8.4842014  45.4517632
  62.4307060   7.1631098  44.7226219   4.8509240  53.8834190  42.6639519
   4.7742486  53.6935844  41.7289009   5.0707650  53.0411720  43.0621033
  10.0555849  16.3989773  66.6956253   9.1592903  16.6222305  66.9467163
  10.5267763  17.2316818  66.7241440  23.8688412  69.1179352  20.6895351
  23.8050385  68.9327774  21.6264858  22.9625988  69.2427902  20.4078102
  68.6435776  32.7720947  71.8314438  67.7169495  33.0080299  71.8753204
  68.8488083  32.7803078  70.8965378  46.9638786   6.1093807  27.7257767
  46.5579300   6.2176700  26.8657112  46.7210121   6.9006228  28.2065926
  22.7426357   4.1851954  29.3542957  22.5285473   3.2771437  29.1401939
  23.5425377   4.1259136  29.8766708  67.8103180  56.4949341  11.1706924
  67.0071030  56.4476395  11.6891890  67.5666656  56.1342583  10.3181801
  22.8699703  60.8731499  30.1628819  23.3970833  61.1525612  29.4143429
  22.6729164  59.9531174  29.9869690  30.8472710  24.9884014  80.8765869
  31.2477589  25.7830601  80.5239410  30.0980911  24.8234158  80.3040924
   3.4890697  25.1232033  30.7849560   3.3375776  24.6327915  31.5929012
   2.7403624  24.9065628  30.2293148  75.0734100  15.8329897  61.0031738
  75.0659485  16.6399250  61.5179825  74.4926758  16.0148830  60.2643204
  41.4862976  58.9145470  13.1105728  41.6995163  59.6315193  13.7078342
  40.5716705  58.7071991  13.3021441  15.2549238  31.7736320   4.6183882
  15.4730825  32.5045013   5.1967216  14.8931322  32.1878624   3.8349650
  43.6744957  10.8426170  57.1655312  43.9712067  11.7466011  57.0606194
  42.7232170  10.9107122  57.2471504  57.4292526  66.0621948  34.1273727
  58.2124596  65.9307327  34.6617317  57.3775978  65.2778778  33.5810966
   0.8120453  60.4131317  24.5604401   0.5320463  61.2477570  24.9362488
   1.1069790  59.8989716  25.3120270  83.9410248   1.2968390  28.0492020
  84.3190994   0.9032148  27.2628498  83.9548645   2.2381735  27.8762016
  27.0226059  56.4246101  21.3872509  26.6323509  56.4243279  22.2612839
  26.7231236  55.6063805  20.9909649   6.3421025  38.1734657  45.1166039
   5.8414435  37.3923302  45.3519783   7.1732631  37.8341713  44.7845116
  50.3739662  27.1167221   6.2920885  51.0501862  26.5825081   5.8754683
  50.7953377  27.9632034   6.4409060  36.9472351  14.1136885  19.7985592
  36.2196999  13.5091143  19.6522236  37.2023735  13.9654636  20.7091446
  77.2575455  18.9710464  67.9413834  76.8221664  19.6238613  67.3931885
  76.6050797  18.7398815  68.6025009  43.4531593  63.7713318  60.2547684
  43.1831360  64.1904297  61.0718842  43.7381325  64.4952164  59.6970825
  17.3137093  36.0175323   0.7306074  17.4530640  35.0746002   0.8183155
  18.0861969  36.3310890   0.2603123  38.5240517  58.2937508  65.0728683
  39.1594925  57.7396011  64.6196976  37.6769295  57.8895035  64.8852539
  12.8950281  14.4825935  39.6673431  12.3769455  14.6210604  40.4602165
  12.3381119  13.9400301  39.1090431  31.1802387  56.6920547  35.8075104
  30.9351177  56.0125732  36.4355621  31.7106838  57.3067245  36.3145027
   4.1373634  26.4676991  81.7703018   4.2508097  26.5333519  82.7184830
   3.1909158  26.3955708  81.6467438  38.5414658  51.5563011  88.9384537
  37.9993515  50.8499184  89.2896881  39.0701447  51.1374245  88.2592850
  10.5650663  25.4059296  14.5212173   9.7814741  24.9167862  14.2703133
  10.9987965  25.6053753  13.6915598  59.8905029  26.9824066   9.4259596
  60.2317810  27.5121193  10.1464911  60.6124763  26.9371128   8.7991142
  37.4152069  56.8405571  74.2094498  37.3194351  57.1200981  75.1198959
  37.1583595  55.9184685  74.2137375  14.2026920  29.1746864  36.3595581
  13.7307272  28.3845253  36.0966339  14.4920530  29.5662231  35.5354195
  53.1858215  48.1879997  48.2754784  52.2985649  48.2121773  47.9171143
  53.0645180  48.2721710  49.2212219  48.9330902  48.3569946   0.8325930
  49.0520287  48.5331917   1.7658885  49.8045349  48.4730606   0.4539813
  26.5615406  23.5326290  85.3756104  25.7615280  23.3277187  85.8595810
  26.4376774  24.4342041  85.0788803  50.3660316   4.7823081  75.5094147
  49.8698692   4.9365935  74.7055130  51.2669830   4.6520233  75.2135315
  66.4755020   7.2411752   7.2984209  67.0831451   7.0037665   7.9988770
  66.6245346   8.1763344   7.1587868  35.1802406   9.1657562  67.6483994
  34.5838280   8.4935246  67.9779892  35.4570045   9.6443596  68.4297867
  23.3104725  63.9105682  52.5053978  23.5141525  64.0077286  53.4356155
  23.8217125  63.1509705  52.2263374  40.7008209   8.1652918  79.3989639
  39.9483681   7.6999345  79.7643204  40.3718529   9.0450602  79.2145233
  36.8158760  51.1925583  36.8473740  37.3733215  50.4514313  36.6102676
  36.7010460  51.1125870  37.7942886  69.3761749   1.7001202  22.7725296
  69.6983109   0.8735600  22.4130058  69.1937485   1.5064484  23.6920109
  63.7211990  13.4576540  33.9905014  64.3951569  14.1249180  34.1199989
  63.5004845  13.1653690  34.8748589  74.8142319   4.1961565   5.6599808
  74.7696152   4.2458253   6.6148496  74.7073746   5.1013894   5.3678050
  62.2387085  22.5675297  37.2838478  62.7896805  21.9698620  36.7784271
  61.3437004  22.2846928  37.0962334  50.0550041  37.9637299  35.5159988
  50.0833321  38.8951149  35.2970123  49.1705132  37.6879311  35.2755013
   8.9062595  36.5529709  88.6184235   8.8189554  37.0026131  89.4589157
   8.1675282  35.9447594  88.5942993  68.2746506   5.4513125  83.1725235
  69.1418839   5.0502477  83.2298508  67.7396545   4.9546108  83.7916336
  75.9908142  40.8633232  45.5807228  75.4190140  41.4580269  45.0953331
  76.7837067  40.8050842  45.0476532  30.2549553  33.1303978  18.6208229
  30.2332211  33.6437340  17.8132038  29.5365543  32.5049171  18.5264626
   0.4099814  48.1709976  30.7872334   0.8264059  48.1015892  29.9281616
   1.0656008  47.8360710  31.3989677  50.7204704  37.0476494  69.7785873
  51.1027870  37.9035034  69.5847473  51.1090508  36.7959442  70.6163712
  66.7878189  37.2495728   3.8288293  67.0641327  36.7003250   4.5624557
  66.5623398  38.0890236   4.2297258  69.9167099  27.9693127  47.1581955
  69.3967438  28.4142418  46.4889412  70.0840073  27.1004219  46.7931290
  53.3477211  29.7691040  21.0496655  53.4246521  30.3965874  21.7683983
  54.1858139  29.3067131  21.0446663  17.3007469  20.1825562  22.1691170
  17.0719566  21.1117115  22.1927528  18.2257404  20.1573505  22.4140320
  29.7539368  21.2838173   2.4844418  29.1296558  20.5615082   2.4153574
  30.1152706  21.2044868   3.3672647  56.3491516  49.7000084  44.0521851
  55.9609795  50.5471497  43.8333054  55.8871956  49.4220581  44.8431129
  14.2902908  64.1042252  83.2408676  14.6284189  63.9083099  82.3670654
  14.8205395  63.5664749  83.8289948  53.6202736  66.2593460  78.1035080
  52.7700386  65.9326324  77.8092499  54.2484131  65.8799744  77.4888992
  59.5785408  20.4766865  29.9210873  60.5149727  20.3286247  29.7891808
  59.1722794  19.6331959  29.7218189  47.1834641  40.0267143   1.5913241
  47.6683273  39.2076149   1.4902549  47.4929543  40.3872833   2.4222496
  85.1897430  21.9458218  64.5808487  84.5431595  22.1154251  63.8957214
  85.4888000  22.8148613  64.8483658  22.7724724   5.7908525  61.4135742
  22.7549934   5.8826222  62.3662071  23.6657181   5.5089130  61.2164650
  86.9684525  36.7069321  27.6560726  86.6049500  36.0286484  28.2253075
  86.2059708  37.0883751  27.2209263   0.5085643  12.6735449   7.9016128
  -0.1813492  12.0135088   7.9694672   1.0879574  12.4913273   8.6414318
  80.7427368  17.1451912  16.2158432  80.0128937  16.9621143  16.8074932
  80.5823135  18.0366421  15.9063091  49.9833984  69.1645355  54.3839226
  49.4824142  68.4143753  54.7040863  49.3841782  69.6169434  53.7902069
  86.0385742  20.8043556  70.9712830  86.2226181  19.9025097  70.7085419
  85.4123230  21.1204967  70.3200531  65.3611374  25.0280552  35.7316628
  66.0574646  24.7839775  35.1219215  64.6363144  25.3026390  35.1699982
  22.1404457  32.5735703  12.8205347  22.4088898  33.3499298  13.3118954
  22.8340130  31.9346085  12.9846096  11.7702284  35.7236252  22.1509857
  11.0424156  36.3160057  21.9622879  11.3562717  34.9496727  22.5329132
  42.5953903  63.7293243  63.5476646  43.4691124  63.8086853  63.9304657
  42.0834312  64.4160538  63.9748993  21.1393452  58.6101608  12.5630646
  21.2071209  57.8055687  13.0771379  20.4568863  58.4253578  11.9178286
  68.3903275  67.8996887  23.5750790  68.1241379  67.9849548  22.6595993
  69.2850723  67.5621033  23.5339012  60.0840912  21.9553490  26.4578934
  59.4558716  21.2726803  26.6935577  59.5420723  22.6989307  26.1941929
  46.0415878  10.8763256  87.5780182  46.2106705  11.7421179  87.2064743
  46.4803429  10.8908653  88.4286194  85.8139496  37.9807091  13.3955050
  85.0329742  38.5170364  13.2588835  86.2303696  38.3571243  14.1708345
  52.5772820  37.6382179  34.4745560  51.7035141  37.9882088  34.6485329
  52.8789825  38.1193924  33.7040520  68.5467529  42.2488213  37.5066566
  68.2287979  41.4689140  37.0518150  67.9232635  42.9352875  37.2694817
  36.9610252  10.6122255  45.0913734  37.7246399  10.7115755  44.5228157
  37.1042862  11.2427301  45.7971840   0.8018894  57.3359680   6.2924170
   1.7096232  57.4457893   6.5755959   0.5340027  56.4968185   6.6669745
  14.7779884  51.2996483  81.4426651  15.4586735  50.9009857  81.9848557
  14.1897268  51.7217903  82.0687485  51.5166702  40.2310448  21.2304077
  50.7371063  40.7817535  21.3027611  52.2451630  40.8202324  21.4263344
  39.2278748  38.1893768  23.6483135  38.4886208  37.8483200  23.1449127
  39.6867027  37.4087906  23.9587936  77.5466080  12.2064686   9.6292534
  76.8761215  12.2536364   8.9477510  78.2788315  11.7510157   9.2137432
  48.6242294  57.5355911  35.9089737  47.8785973  57.3116226  35.3521080
  49.0544930  56.6981087  36.0813866  25.3005638  18.9293880  30.2194557
  24.7166233  19.6573181  30.0064678  25.9974461  18.9820976  29.5653858
  55.3262291  22.8761120   9.3654623  54.9313850  22.5274792   8.5662222
  55.3707161  22.1254883   9.9577599  75.4001541  64.7638855  80.0160294
  75.3083954  64.6212540  79.0739746  76.0525665  65.4603500  80.0904007
  64.9692612  62.3464508  26.7153645  65.3919601  61.5012741  26.5629196
  65.2304916  62.5880775  27.6039639  40.3391190  12.6281004  22.3474159
  39.8659058  11.8791971  22.7099686  39.9226265  13.3912592  22.7478580
  10.0110254  15.4142237  82.9105148   9.5187683  14.6043949  83.0450211
  10.3003321  15.3700962  81.9991455  33.1205330  30.7963085  -0.1056849
  33.0648994  29.9325752   0.3030952  32.7691460  31.3958912   0.5525396
  34.9283180  32.1915169  28.6001015  33.9715652  32.2066460  28.6252575
  35.1468544  32.3766785  27.6867638  42.6627312  39.7710876  13.1886835
  43.0341110  39.8146858  12.3075428  43.3071136  39.2775383  13.6960411
  66.0094070  21.8462753  10.3400507  66.1963501  20.9108543  10.4192429
  66.7628937  22.2020683   9.8689919  86.0365143  13.0392981  62.4913864
  85.2303085  12.7206469  62.0855255  86.6864471  13.0085897  61.7893372
  73.9731369   5.3087964   2.5347056  74.0931473   4.3976088   2.8022213
  73.9668427   5.2786946   1.5779997  65.2844315   2.7035530  33.4791145
  64.8120804   2.3463826  32.7270889  66.2080841   2.6288602  33.2392998
  51.2345161  36.9772301  84.2239227  52.1751556  37.0077400  84.3985672
  51.1314011  37.4307976  83.3873367  41.3258934  22.0631542  35.2786942
  40.4065742  22.3267689  35.3186226  41.7871895  22.8472672  34.9810333
  75.0299606   4.8976460   8.4057674  74.8628540   4.8984537   9.3482685
  75.0363388   5.8234897   8.1628590   7.7273488  15.1991625  54.5033875
   8.3092184  14.8544798  53.8260002   8.3174381  15.5227642  55.1840553
  25.0923729   5.3291483  81.1574326  25.8638344   5.6656928  80.7015610
  25.3528824   5.2976785  82.0779648  25.7990856  29.2173080  84.3722992
  25.9557724  28.2746754  84.3163834  25.9198685  29.5337048  83.4770203
  11.6981201  67.1433640  53.3525009  11.0865898  66.5350113  52.9375648
  11.8206015  66.7948151  54.2355309  16.5983276  37.9319725  71.9897537
  17.3906078  37.4226494  72.1603851  16.9194889  38.8005676  71.7476196
  35.3881836  23.1466370  39.0937691  35.6570244  23.8874187  39.6370888
  35.3378716  23.5052776  38.2077217  74.0817261  49.4258194  47.0085640
  73.2277298  49.1363106  47.3296661  74.7054825  48.8176804  47.4052086
  64.2466431  59.3621368  34.7030945  64.6762772  60.1941185  34.9017143
  64.9570999  58.7879753  34.4170609  46.2046814  51.2167892  18.9654160
  45.6729012  51.0766296  19.7488689  47.0646515  51.4690552  19.3016338
  79.9454041  44.2200394  81.1949387  80.0536346  45.1580200  81.0377350
  80.7665710  43.8305359  80.8946075  69.4060440  64.2161865  47.7726898
  69.5742569  63.5194206  47.1382942  68.5500946  64.0011673  48.1432877
  77.6727600  40.9236107  32.3094025  77.7512131  40.3861275  33.0975571
  76.7564545  40.8329239  32.0478859  59.5168495  68.6445160  18.2511673
  59.3662758  68.8305435  19.1779633  60.2466698  69.2141418  18.0080280
  73.5752716  42.1980743  34.8574791  74.0408249  41.4206772  34.5490341
  72.8116760  42.2632408  34.2839699  82.4777298  15.0171080  56.6680031
  81.8808594  15.6810131  57.0132713  81.9339905  14.2359581  56.5660820
  24.4178905  69.0149155   8.2214041  23.6387863  69.1657333   7.6861644
  24.6724606  69.8863525   8.5247393  82.1933365  66.7100830  83.2288132
  81.7519379  66.5870590  84.0692062  82.8056488  65.9766846  83.1702576
  82.2011108  30.0286179  36.9942055  81.5850067  30.1459427  37.7173157
  83.0645218  30.0892010  37.4029617  47.0598526  59.0432281  30.9505997
  47.6311378  59.2375145  30.2075539  47.6596222  58.8983154  31.6823826
  63.3502121  58.8648415  19.1310425  64.1616364  59.2139130  18.7622986
  62.9008751  59.6305428  19.4888573  19.8020439  44.4530373  13.5337315
  20.1065025  43.7135010  13.0077858  18.9775200  44.1520462  13.9155636
  83.4700851   3.5798342  59.8317909  82.5311737   3.5609300  60.0170593
  83.7787247   2.7054348  60.0692673  74.0725708  15.4413033  26.8675900
  73.8477249  16.2201405  26.3585815  74.0009995  14.7186909  26.2439384
  16.1450062  59.9731483  38.0739326  16.9850216  60.1301994  38.5051384
  16.1201935  60.6091080  37.3589706  69.2952881  27.7785053   0.2672283
  69.2665787  27.7615318  -0.6893905  70.0884018  27.2918758   0.4917182
  52.3128777   4.5075974  20.4924850  51.6165810   4.3878622  21.1382904
  52.1621246   5.3836060  20.1373596  78.9354553  21.6948338  11.4366875
  78.6553955  21.8129673  10.5290289  78.6823349  20.7968102  11.6504936
  74.5914917   1.8196129   7.7711377  74.4865265   2.7458134   7.9887748
  75.0326309   1.4431417   8.5326509  61.1383705  33.1319847  47.0289459
  60.5999069  32.3800087  46.7823334  60.5200348  33.7537804  47.4126968
  79.3071823  65.2468185  45.7215195  79.9459000  65.8266602  45.3067284
  79.5801620  64.3663254  45.4637451  56.4333420  70.2371368  81.0823593
  56.6709709  69.3108673  81.1246872  55.4850464  70.2473068  81.2122116
  58.2390099  37.7657852  81.5450439  57.5105400  37.3175926  81.9747925
  58.0737152  38.6955986  81.7010956  36.3102303  53.2995529  57.1190643
  35.9211006  53.4465256  57.9811592  37.2426720  53.1742630  57.2953720
  13.4059143  59.3949203  74.6049881  14.0719662  59.9606972  74.2144699
  13.9031887  58.7611275  75.1219559  15.1393948  27.1608391  81.8968277
  15.6000032  26.5503559  81.3211670  14.7042074  26.6014004  82.5401611
  67.9498901   1.2248833  11.3844929  67.8033371   1.4216775  10.4592752
  68.6920013   1.7764378  11.6320515  39.0643539  46.3059120  10.5359144
  38.3045044  45.8902512  10.9434490  39.3553391  46.9542503  11.1771746
  17.3337269  18.9342461  26.8038788  18.0058880  19.5032711  26.4288578
  16.5936413  19.0084953  26.2013912  63.8016930  24.8888931  84.3250046
  63.2191963  24.4958267  84.9749527  64.6828384  24.6923676  84.6431198
  35.9331207   2.4781048  10.5524998  36.7837563   2.8634152  10.3422937
  35.4523582   3.1820176  10.9879379  10.3644543  23.4637070  55.2910423
   9.8903275  23.9177895  55.9876404  10.1452065  23.9495602  54.4959908
  34.7603340   3.2786496  22.4488945  34.5741615   3.3230817  21.5110283
  35.6903687   3.0576568  22.4982548  22.4511681  10.7552967  42.5267944
  23.2796154  10.7936192  42.0488434  22.0408020  11.6044655  42.3632545
   1.7722358  20.7996540   5.7096949   2.5972228  20.5591507   6.1313419
   1.1769924  20.9846363   6.4361234  52.0161247  64.7363205  87.0553284
  51.9690590  63.8747406  86.6409683  52.0351791  64.5499344  87.9940109
  41.9375687   9.4121494  11.1087198  41.8005447   9.3473158  10.1636000
  42.5233345  10.1617002  11.2149496  78.4699783   8.5945740  57.1106148
  78.6329803   9.4787436  57.4391060  79.3321915   8.1789160  57.1036453
  75.6861572   1.0301266  71.7912979  75.7516556   0.0771208  71.8522949
  75.4853363   1.3139757  72.6831055  28.5512619  33.2541962   4.7935600
  29.4407234  33.6078720   4.7947588  28.3583603  33.0942345   3.8697457
   6.7235489  48.5527115  18.6765347   5.7667642  48.5249863  18.6714153
   6.9657564  48.6335869  17.7540226   2.4922626  46.5635033  78.9968033
   3.1214514  46.2026443  79.6214142   1.9210323  47.1196899  79.5265121
   0.9819404  53.7354851  39.5873756   1.7102392  53.7607841  38.9667511
   0.6866238  52.8250885  39.5731125  57.4584618  10.6284065  12.8676205
  56.5489769  10.7508659  12.5954618  57.9569969  10.6430674  12.0506248
  41.0308228  56.5233231  43.6704330  41.6087875  57.2498207  43.9036522
  40.4951019  56.8639259  42.9540367  11.4825811  41.1272125   2.9568138
  10.9995203  40.8584290   2.1753790  12.1572981  40.4567223   3.0637290
  60.2064323  30.1034870  52.8333511  60.1285210  30.3775406  51.9195366
  60.1192131  30.9141560  53.3347893  70.3205566  60.4923439  11.9943628
  70.0690002  60.3693275  12.9096870  70.2415924  61.4351234  11.8488989
  76.8532562  50.4786606   4.9295182  76.2114410  51.1843109   5.0092554
  77.0672684  50.4538040   3.9968801  18.4020424  33.8457718  27.0669613
  17.7333832  33.9084473  26.3849087  18.9037609  33.0630302  26.8393002
  39.3192635  45.1676712  36.4937744  39.2961922  44.2497444  36.2233772
  38.7079239  45.2163048  37.2287102  77.1211548   9.3871651  75.0176086
  78.0670395   9.5280905  75.0584869  76.9350967   8.7972679  75.7481155
  85.0117874  22.1320019  45.4219437  85.2645493  22.8795624  45.9636993
  84.9339676  21.4044266  46.0390396  67.5121307  31.3024559  76.0695953
  67.1038589  30.6572990  76.6469269  66.7860489  31.6598549  75.5584106
  75.4158249  17.9916019  88.9081345  75.1031647  18.3629322  88.0831528
  75.9370651  18.6905613  89.3030930  56.7508087  34.5173340  77.9758835
  56.5456924  35.4387970  77.8175659  55.9384422  34.1470032  78.3210602
  18.2068920  16.2566719  77.1037979  18.1157112  15.3046732  77.0635757
  18.8842945  16.4598675  76.4587631  83.5962601   2.4051783  13.6481295
  84.5424728   2.4861627  13.5282879  83.2250748   3.0924635  13.0948763
  44.2440605  54.3925705  55.4504547  45.1738243  54.1677818  55.4151535
  44.2281837  55.3494873  55.4333344  85.7307968   3.2713325  10.2397747
  86.0616989   2.9799781   9.3901567  86.2906799   4.0116010  10.4738111
  80.2391510   8.9352646   2.4841173  80.6418228   9.7689066   2.2409551
  79.2978745   9.0947075   2.4148285  54.4603844  59.3091125  16.5939388
  54.6701698  58.6530724  15.9292364  54.9062653  59.0015488  17.3831310
  60.6125984   4.5785604  28.5675755  60.3092308   5.1953492  27.9014130
  61.4645767   4.2811365  28.2483578  26.3548546  55.5745544  79.6340256
  27.2258072  55.2145271  79.8015060  26.4951725  56.2352829  78.9558029
  26.5505676   4.2297850  51.1161995  25.7122993   4.4779630  51.5060005
  27.2053661   4.5211635  51.7506828  55.7650642  64.7835922  66.7572861
  56.0561600  64.9637985  65.8634109  54.8503952  65.0653305  66.7726974
  71.6718140  15.0637083  75.3913269  71.4226227  15.8915644  75.8021622
  70.9578552  14.4641933  75.6082840  16.9485912  55.6592751  76.7112656
  17.4516182  54.9383392  76.3325195  17.0785217  55.5718460  77.6555634
  36.6539955  52.6276627   9.2577953  37.1739578  52.2220497   9.9515858
  35.9775887  53.1204643   9.7223949  22.8527393  62.3151436   7.8944359
  22.0926762  61.8441353   8.2360353  23.4767094  61.6271515   7.6630087
  82.6328583   3.2294643  19.5580368  82.9067535   3.9246395  18.9597492
  83.3762741   3.1165190  20.1503258  52.3388519  67.3003387  59.8668327
  53.0803375  67.8827972  59.7020035  52.6057434  66.4609375  59.4921227
  59.2960625  36.0521011  56.3182449  59.2220116  36.9689751  56.5829849
  59.0573845  36.0504303  55.3912811  26.3323879  48.6895981  19.6921902
  26.6969471  49.3664742  20.2624245  25.4986172  48.4561386  20.1003017
  21.9101334  31.9794254  77.7083893  22.5798874  31.4523048  77.2727280
  21.0977364  31.4904976  77.5772781  47.4376183  54.0634613  25.1382103
  47.2957916  53.1168251  25.1380787  46.5966072  54.4316826  24.8673840
  39.5690651  14.1304350  19.3455105  38.6184387  14.0301151  19.2957039
  39.8149490  13.6835861  20.1555099  49.8985062   8.7421532  83.1686172
  49.2559242   8.9500694  82.4903183  49.4473495   8.1252451  83.7449112
  77.7096863  66.3698730  79.4535904  77.2498703  66.8404617  78.7583542
  77.7776337  67.0038376  80.1675186  79.0415344  24.2363834  12.5805206
  79.3485947  23.4850559  12.0731201  78.1095123  24.0674686  12.7184505
  63.0453186   8.0391178  84.1286011  63.9162636   7.6454434  84.0765457
  63.1995316   8.9772959  84.0178146   9.0361433  10.5125265  14.8245249
   8.2869787   9.9656448  14.5880814   9.7927713   9.9326439  14.7380295
  82.7881546  23.6609001  44.4752007  83.6573792  23.2712440  44.5692291
  82.2792053  23.0004749  44.0050392  59.9682236   4.3855906   1.4341824
  59.9369621   5.3254395   1.6128987  59.1057663   4.1817565   1.0724494
  36.2356529  60.0298309  62.2422066  36.4076195  60.6020737  62.9900055
  35.3566170  59.6858597  62.4009933  82.7887039  35.4264984  14.5735025
  82.3336639  36.2022057  14.9012966  82.1923218  34.7017326  14.7613249
  49.4146004  44.4828720  48.6679878  49.3062630  45.2931213  49.1659698
  49.5184135  44.7711487  47.7611504  45.9281654  19.9743824  85.9783401
  45.0242271  19.7194252  86.1630707  46.3450089  19.1706448  85.6677322
  60.0362015  69.5450821  63.7573433  60.9763145  69.3986816  63.6525116
  59.7879181  68.9882965  64.4952927  12.4143448  28.0627842  71.7519760
  11.9302444  28.6347275  72.3475952  13.3242788  28.3489094  71.8318787
  36.4993401  29.7916260  30.3867168  36.9201241  29.0611496  30.8401241
  36.4486198  29.5094109  29.4734726  62.5598717  18.1660290  69.9419022
  63.1105499  18.9250069  70.1341019  62.0801811  18.4122810  69.1510239
  26.1232414   0.5875507  49.7738571  26.1249142   0.7675766  50.7139740
  26.9883900   0.8674499  49.4748535  79.8095551  17.1987724  36.3714523
  78.9592209  17.5953732  36.5608711  80.0564728  17.5572681  35.5189590
  37.3482170  10.3984499  72.6668854  37.7846184  10.3528986  71.8161774
  37.4439201   9.5190439  73.0325623  11.4197149  39.2812500  83.1470718
  11.9350309  39.1724701  83.9463577  10.5542965  38.9394379  83.3716812
  66.7992783   2.5346348  45.4631920  66.6111374   2.5994489  46.3994789
  66.0258789   2.9044099  45.0373268  44.7901230  59.4151268  76.1334534
  45.2937431  59.7715721  76.8652649  44.6253319  58.5042763  76.3772354
  81.0773239  34.9616890   0.7726116  81.4056320  35.4714851   1.5132543
  80.1553192  35.2088890   0.7016140  52.9217567  61.6533852  14.4882765
  52.0086861  61.8484192  14.6992226  52.8730049  61.0621147  13.7371082
  74.9698715  24.4964199  27.8541355  74.8093033  25.3967628  28.1366825
  75.5020981  24.5848293  27.0634708  54.4007187   4.8466382  49.7122688
  54.8960075   5.6608548  49.6229744  55.0109177   4.1634283  49.4345741
  44.1383095  63.4068413  67.5437927  45.0752182  63.4592438  67.7327118
  43.8232994  64.3052292  67.6433105  56.7057228  53.6091728  26.2069244
  56.7934074  52.6994209  25.9225121  56.9367828  53.5930939  27.1356792
  83.9276199   0.3659218  51.5257721  83.0482864   0.7359706  51.6036224
  84.1027908  -0.0181024  52.3848839  59.6272163  64.8685684  37.7737579
  59.5838814  64.0123215  38.1994247  59.3648720  65.4880829  38.4546471
  64.2569656   3.8367193  64.8294830  64.2556915   4.2229218  63.9536552
  64.2201157   4.5873504  65.4223022  45.8625298  58.2619476  84.8491669
  46.3821335  59.0270271  85.0959396  45.4730186  57.9619255  85.6704483
  32.6060944   8.4859123  75.9629745  32.5122108   7.5416217  75.8375473
  31.7266083   8.7855787  76.1930542  14.0590181  13.7374039  24.4307213
  14.8798332  14.2118378  24.5626507  14.2728624  13.0636911  23.7852650
  18.2196655   9.7815905  50.9478378  18.9219627  10.0429773  50.3522797
  17.6982403   9.1569042  50.4437408  52.6566353   9.6720009  15.0420666
  53.2165451   9.2892561  14.3666134  53.1776047  10.3865604  15.4084349
  33.5453491  19.5295410  18.4831295  34.3045387  20.0896301  18.3213749
  33.0336533  19.5806484  17.6757965   4.0876551  52.2854805  12.4974937
   4.3393307  51.3686523  12.3865147   4.5701728  52.7507133  11.8141422
  62.5660248  32.5640221  39.1270294  63.0349388  33.3892555  39.2508926
  61.8660812  32.7765923  38.5096741   7.4054141  11.4624863  80.6191711
   7.2480674  10.5994492  81.0021057   8.3515463  11.5879850  80.6920776
  15.9857225  67.8838882  12.1806269  16.1871243  67.1677399  12.7829514
  16.7713089  68.4307327  12.1875095  66.3694458  69.1345367  71.6693192
  65.4332123  69.3077545  71.5708389  66.7946320  69.9366608  71.3659286
  34.8354034  32.8661575   9.9794388  34.9180527  33.2809830  10.8381128
  35.3209572  33.4411354   9.3879385   7.0195117   1.4562213  23.9809856
   7.6280880   1.7256908  24.6689205   6.4280086   0.8396620  24.4125061
  13.2819567  15.2297812  87.2640762  12.7300329  15.4853735  86.5249634
  12.8185167  14.4951496  87.6662827  76.1317825  57.9546738   8.1389551
  75.9932861  58.8824425   8.3294773  77.0130005  57.7721367   8.4650927
  31.8154659  57.0697975  65.0780411  31.2618961  56.7034683  64.3884125
  31.2398071  57.6675606  65.5550385  77.6852875  13.5138683  48.1664391
  76.7524490  13.5596447  48.3760796  77.8783569  12.5768175  48.1365547
  10.2026958  62.7834587  36.7591743   9.4506865  63.2763748  36.4309235
  10.0777826  61.8988762  36.4154549  42.8875847   2.6067743  59.4813118
  43.0563164   1.7931603  59.9564896  42.0103073   2.4930806  59.1156807
  65.4902039  50.0078239  34.8454132  64.6379242  49.8523788  34.4383736
  65.9745255  50.5209541  34.1986008  36.7876778  14.6764269  27.0428314
  36.5593529  14.1026316  27.7741718  35.9722443  15.1309528  26.8313828
  51.6276894  10.3114653  87.0892334  50.7341270  10.1054058  86.8147964
  52.1768837  10.0017099  86.3690491   7.6627369  54.4659500   0.8476556
   7.6608162  55.3433456   0.4650261   6.9114480  54.4616623   1.4407643
  60.6858673  36.9321289  79.6390915  61.1924133  36.5068245  78.9471664
  59.9992065  36.3013268  79.8554688   8.4543352  18.7636433  40.0392265
   9.3592262  18.4672413  40.1369514   8.3199301  18.8147793  39.0928917
   3.3034091  57.9166794   6.9102087   3.2035234  58.8133926   7.2298355
   4.2129021  57.6922226   7.1068659  34.2804260  61.4697037  59.6894112
  34.3422127  61.1486740  60.5890503  33.4296379  61.1572952  59.3815269
  78.1017914  10.1167269  72.2774811  78.3074112   9.2460928  71.9369736
  77.5520706   9.9507074  73.0433044   5.2097807  11.0597973  32.7071075
   4.8413439  10.6859179  31.9066696   6.1211648  10.7672253  32.7106819
  46.0668488  66.3866806  61.6788101  45.1281013  66.5545197  61.5962563
  46.1348267  65.4343109  61.7466583  15.4577646  47.9896202  48.0979271
  15.8035183  47.1316528  47.8517990  14.6214361  47.7980614  48.5223007
  48.7813606  37.5569458   1.5305784  49.0598373  36.9984703   0.8047755
  49.5505219  37.6142731   2.0974469  43.8360062   2.5144253  81.5084915
  43.5251122   1.7321299  81.0528641  44.7900162   2.4381890  81.4916000
  39.6962738  68.8973465  52.8138313  39.4121017  69.0858536  51.9194374
  40.0788765  68.0213547  52.7639694  34.2666092   8.0755558  10.2386265
  34.1529427   8.3474884  11.1493206  34.5970230   8.8566761   9.7948818
  13.5428820  44.6958427  12.9982738  14.2554417  44.6117134  13.6318455
  13.9830580  44.7777710  12.1522455  64.4853287  32.8916321  79.9199219
  63.6052742  32.7730904  80.2772598  64.8879166  32.0254707  79.9825134
   0.2046585  20.5179119  66.1963120   0.5819770  21.1845036  66.7703476
  -0.4538346  20.9875526  65.6843948  23.8613224  15.1398926  85.9846954
  23.7975483  14.5427465  85.2393188  24.8019638  15.2533035  86.1209335
  44.3715668  56.0676193  43.6355782  44.9753952  56.6181183  43.1370087
  43.8383598  55.6331253  42.9698906  34.0306854  14.9462881  75.2842102
  34.8777809  14.5952148  75.0096054  34.1340065  15.1162424  76.2205200
  66.2641144  32.4878654  84.4205627  66.8863754  33.0965309  84.0223923
  66.6662521  32.2458038  85.2547836  26.9405537  23.6009693   7.2505822
  26.4961872  22.8396568   7.6236420  26.3481159  23.9126377   6.5663939
  68.1002197  22.7554207  83.7506027  67.7259903  23.4976406  83.2759476
  68.0142593  22.0173302  83.1472244  30.1669025  10.9654932  61.1213150
  29.2483120  11.1835947  60.9636688  30.3138981  11.1964188  62.0385361
  16.0718956  67.4870682  49.6897392  16.4875202  68.2355728  49.2616768
  15.2990971  67.8549805  50.1182899  34.9809456  42.0141754   8.3641834
  35.7353287  41.5866585   7.9587584  34.2220840  41.5693817   7.9866667
  78.2548370  57.1869240  60.7634354  78.9797516  56.8793945  61.3076401
  78.5750046  57.0985107  59.8657112  78.3010025  15.7107487  81.8665237
  79.1994629  15.5571346  81.5742798  77.7791595  15.6762218  81.0648270
  12.1477270  60.5205116  81.6026840  12.0680866  59.6508713  81.9946213
  11.3117981  60.6601715  81.1577682  78.7317734  50.4701195  20.1540489
  78.3062592  50.3591499  19.3038387  79.6560822  50.2877045  19.9849129
  17.6538467  47.5506439  82.1828690  17.6758766  48.5070572  82.1510086
  16.7522144  47.3397865  82.4254227  26.4539013  47.2121201  37.6219444
  25.8934326  47.3680153  38.3820801  26.6667786  48.0872536  37.2978210
  15.0527763  63.2153091   9.0988989  15.6741266  63.8368073   9.4782314
  14.3775339  63.7645683   8.7006626  55.6075439   2.9104774  25.6221619
  55.5679207   3.2457662  26.5178413  55.7004623   3.6922243  25.0776711
  49.5235176  51.0516319  40.5672646  48.7050400  51.3582001  40.9575768
  49.4917984  51.3684044  39.6645584  86.4820786   7.7167096  43.5157318
  86.9620209   8.4929066  43.8045387  86.4627609   7.7883787  42.5614128
  23.5091553  52.8885689  72.0269470  22.7750473  53.4413681  72.2947769
  24.2094574  53.1056976  72.6423035  65.2383881  22.2242565  64.5462646
  65.0349960  21.8657799  65.4101868  64.4522324  22.0570698  64.0264282
  79.6631393  52.7564278  83.6834869  79.4059067  51.9932785  84.2008514
  79.2721176  53.4998245  84.1424942  73.1152878  49.6489716  59.9929924
  73.8400574  50.2707520  59.9271317  72.8208542  49.5278397  59.0902939
  74.6065445  54.2077179  36.0869370  75.0070190  54.5930176  35.3075829
  75.2619019  54.3232269  36.7749710   9.2241869  20.7236919  56.2030678
   9.8013659  21.3815937  55.8154335   8.3462362  20.9780083  55.9188881
  63.6971855  24.9181633  10.1623135  63.0488739  24.7653503   9.4748726
  63.5862350  24.1820869  10.7640715  62.5798988  45.4545097  77.4224167
  62.2857475  46.3364372  77.1945724  63.2141380  45.2301788  76.7414932
  69.5992050  37.7041473  62.3491592  70.3798676  37.5480652  62.8806114
  69.0792007  36.9065361  62.4473686  65.0313187  65.1239700  41.2791786
  64.4998856  64.9516602  42.0564308  65.8393860  65.5062103  41.6214600
  49.1424904  17.5417385  18.5520630  48.7091293  16.9445419  17.9423180
  49.7668533  18.0250530  18.0109406  22.5691586  37.1644020  64.3801956
  22.0358658  36.4063301  64.1411133  23.2381554  36.8112335  64.9666672
   7.3625751  61.9139290  51.4085846   8.2045097  61.6920509  51.8062630
   7.5926485  62.3449211  50.5854568  66.2800598   3.8035140  83.9503555
  65.8119125   3.4688516  83.1854553  65.5926056   3.9863083  84.5908508
  59.4172325  63.7731323  61.7782326  59.8757935  63.9325027  62.6031914
  59.6652641  62.8812637  61.5347519  49.8175659  15.7577477  33.0475578
  50.3696480  15.8560038  33.8233070  50.2970390  16.2100983  32.3535004
  61.0281029  31.6456509   4.6693149  60.1984863  32.0593910   4.9076204
  60.9527893  31.4819889   3.7292221  78.3956223  43.0920944  46.4018593
  77.9181442  42.9335213  47.2161674  77.7170792  43.1163254  45.7271614
  25.2366524  55.7351265  18.0736561  25.6572266  56.5134506  17.7081947
  25.5849228  55.6699066  18.9628620  85.8802109  44.2962456  61.8659782
  84.9852524  44.6184731  61.7589493  86.4224625  44.9389076  61.4086151
  15.8227692   6.0704236  16.3000984  15.4003019   6.7016077  16.8826447
  16.6848965   5.9247246  16.6896343  81.0158234  33.3184929  14.8728447
  80.7318344  32.9302711  15.7004099  81.3765717  32.5846100  14.3753376
  77.7451553  54.5676994  79.2324142  78.6748734  54.6458397  79.4462814
  77.7060928  53.8603821  78.5886765  65.6329727  17.6250572   9.9107389
  64.7860031  17.3988953  10.2950954  66.1003036  18.0796566  10.6115723
  79.0800400  61.4718971  33.1775932  78.5103989  62.0226250  32.6405296
  78.9919052  61.8270111  34.0621033  47.8843613  71.2525024  82.2356949
  48.4820366  71.6087112  81.5783310  48.4528198  70.9935837  82.9609909
  13.6464472  54.5717583  77.1823044  13.1382475  54.4519997  77.9845657
  14.5261002  54.2697678  77.4086838  79.5077744  50.9587135  58.8004684
  79.6575623  50.4248657  59.5807266  78.7641144  50.5424919  58.3646240
  85.7547302  28.7915668  13.2654200  85.9253769  29.7059822  13.4911451
  85.0354080  28.8306808  12.6351194  54.0321617  20.4631310  37.4451599
  54.2770042  20.7589645  36.5683670  53.7039909  21.2499256  37.8804626
   4.9701138  43.5227699  88.3499756   5.4710135  43.6174126  87.5398026
   4.2981658  42.8736687  88.1416855  26.1320000  46.8374863  12.1263523
  26.9455242  47.2087364  12.4677896  26.4009609  46.0252419  11.6972237
  10.7036228   0.7483216  10.5386343   9.8844166   0.3234324  10.7928019
  10.5363464   1.6829579  10.6598997  31.7889385  57.3945007  68.8838806
  31.9859505  57.5440063  69.8085785  32.1226006  58.1735420  68.4389114
  33.6737289   9.3324776  85.7640533  33.3258514   8.6168909  85.2319336
  34.6232719   9.2165051  85.7300873  29.6635685  55.0867004  72.4107285
  29.4407101  55.4534073  71.5551071  29.6702881  54.1397629  72.2710800
  10.5627937  37.1978073  24.6492252  10.4567919  37.3820648  23.7159290
  11.4162350  37.5699654  24.8714142  55.9529839   0.7832370  64.2320251
  55.8342171   0.0477746  64.8330460  55.3843498   1.4705095  64.5792160
  73.9077606   6.2684832  42.8610992  73.1649551   5.6809816  43.0000725
  74.5821457   5.7134275  42.4694939  16.9695759  29.5451298   1.1221087
  16.0882912  29.1779766   1.0530549  16.9376564  30.0995426   1.9017489
  73.5386658  16.8716698  35.7743530  72.6600494  17.0806599  36.0915031
  74.1192932  17.1287384  36.4906120  49.7909050  67.4208298  14.1517878
  49.7802277  67.9333496  13.3434296  49.0879402  66.7810135  14.0390301
   3.0118439  42.3319054   6.4080915   2.4178956  41.8066101   5.8718829
   2.4615347  43.0318108   6.7595568   8.3350811  64.1947784  75.8435745
   8.1465664  64.6720352  75.0355377   8.1022692  64.8058853  76.5425568
   9.0827446   3.5971980  52.4832039   9.5721979   3.7273581  53.2954369
   9.7539186   3.4134469  51.8259392   2.7482281  33.7097664  62.8628006
   2.1818330  34.2206612  62.2845154   3.1151967  33.0291824  62.2985611
  71.1685028  40.9483719  32.2935715  70.8862839  40.0635948  32.0617142
  70.4354706  41.3109474  32.7910080  15.6352730  40.3690300  65.3466644
  16.5171318  40.2838326  65.7090073  15.6099930  39.7382240  64.6271667
  49.1649704  60.4048920  71.3725433  48.3263512  59.9655571  71.5137482
  49.6533775  59.8111610  70.8023071  32.4254074  16.1286087  63.4173813
  31.6125336  16.3670292  63.8630524  32.2179489  16.2011890  62.4857559
  20.1811237   1.9328539  47.9051437  19.8598938   1.3609253  47.2080498
  20.4300766   2.7408557  47.4563828  51.5783577  68.4407578  22.5116081
  50.7138634  68.7767487  22.7482243  52.1240845  68.6239700  23.2763615
  40.3369179   1.4665843   6.9016218  40.2019920   2.4062407   7.0243931
  40.2735825   1.3371443   5.9553313  61.6632996  14.1393127  19.1574287
  62.3642807  14.0025635  18.5201263  61.0864449  14.7820930  18.7447472
  63.2108078   0.8357801  37.6826782  62.3591843   0.9828795  38.0941811
  63.3676720   1.6270167  37.1673431  38.2928925  60.4089622  42.8394165
  39.2243118  60.2468948  42.9891624  38.0425377  61.0227547  43.5299339
  70.6630096  31.7084656  50.0658569  71.0476074  30.9263020  49.6702080
  70.1192551  31.3735371  50.7788696  61.3303490  36.8393059  40.5723953
  60.4773903  37.1931534  40.8243561  61.8320198  36.8203697  41.3873787
  80.1384506  40.7427750  62.1723747  80.4233322  41.5525131  62.5959282
  80.7681732  40.6085892  61.4640808  56.9104195  59.0836983   2.8685095
  56.6800613  58.6059570   2.0716844  57.8659668  59.0412865   2.9054139
  32.1274109  44.3027725  88.8351059  32.5358086  43.5419273  88.4221191
  31.1920872  44.0993576  88.8400421  13.8406429  49.0369987  52.4751549
  13.1199837  48.7362251  53.0287018  13.4712257  49.0597420  51.5924034
   6.3942957   6.7394905  51.1186714   6.3205519   5.8325024  50.8217430
   5.9089231   7.2451415  50.4667816  83.3842468  51.5952301  69.4678345
  84.1863403  51.9648476  69.0987167  83.6695175  50.7933998  69.9059219
  52.8544579  47.6743965  41.1396294  52.2507248  47.0088768  40.8097534
  53.1055870  48.1756287  40.3637848  27.5286293  65.8818207  67.9502029
  27.9981976  66.2921982  68.6763763  26.6071453  65.9258652  68.2054596
  14.1678686  56.1952858  38.8486900  13.6197824  55.5590782  38.3892632
  14.9173756  55.6865730  39.1580162  81.9420700  15.0156517  77.2938690
  81.8195343  15.4606333  76.4552917  81.5814362  14.1398888  77.1552429
  11.1578465  29.5762749  23.8325748  10.9493418  30.2560177  23.1917095
  11.9653616  29.1791267  23.5063477  34.0990448   8.4859333  70.2493591
  33.6008263   7.6792107  70.1181717  34.1281738   8.5976038  71.1995773
   0.1294248  12.3821735  76.4957504  -0.4576460  13.1379232  76.5162659
   0.6457550  12.5015478  75.6986389   7.2628002  61.8888741  14.9301853
   6.6091666  62.2325249  15.5391989   7.8531375  61.3723679  15.4787798
  67.8915482  70.5525970   9.4117489  67.3065491  70.7470322   8.6794891
  67.8239441  69.6047897   9.5271692  22.8104229  45.6002197   5.7696500
  23.2401218  45.1245918   5.0587573  22.6966209  44.9472466   6.4602351
  34.8226089  39.7354622  89.1007462  35.4689484  39.1477699  88.7094727
  35.2637863  40.5839729  89.1409912   3.8899915  11.0770216   9.8277721
   4.4119482  10.9149876   9.0419369   3.2009134  10.4132767   9.7986841
  81.6013947  44.7808990  31.5529671  80.9810333  45.3874474  31.9573059
  81.6032028  45.0222435  30.6266956   1.5824152  51.9728889  51.8496857
   0.7950321  52.4780159  51.6469345   1.2526553  51.1488724  52.2081375
  56.4517059   4.8149629  56.7271919  55.9035873   5.3046069  56.1139641
  56.3049431   3.8969610  56.4992332  81.4190063  11.7116642  53.7726173
  82.1627045  12.1620035  53.3721962  80.6547470  12.2148151  53.4915848
  56.1201210  25.1195526  43.6089935  56.3736610  25.8606339  44.1592178
  56.1352043  24.3664837  44.1996613   4.0316672  62.7953644  65.7138062
   4.7439394  62.1608162  65.7928543   3.2355609  62.2639580  65.7211533
  48.5885811  66.2537079  87.7148285  48.9583740  66.8548584  88.3614349
  47.6521492  66.2359314  87.9123383  62.7860374  56.3671837  13.6213455
  62.7562599  55.4107666  13.6461134  61.8672447  56.6355896  13.6249161
  70.9106903  66.7990417  43.0838928  70.4990997  65.9584274  43.2843857
  70.6111526  67.0073700  42.1989594  65.8974991   7.4372706  84.1761093
  66.4700241   6.8884778  83.6401291  66.1144485   7.2006536  85.0778732
  58.8464127  28.4546547  33.9352341  58.9820175  27.5095005  33.8679504
  58.7620430  28.6182423  34.8745689  14.2554264  53.3546524  61.3283653
  15.0875053  53.3483315  60.8552513  14.2988548  54.1364975  61.8788757
  23.7764225  69.3516998  11.1894855  24.2718697  69.0952835  10.4116583
  24.4427299  69.6377106  11.8143568  11.6317110  50.4655571  36.6905746
  10.8250189  50.0479851  36.9924240  12.3105545  50.1237831  37.2724648
  45.8293304  53.2734299  31.0320930  45.6768761  53.6192245  30.1526508
  46.6040497  52.7187843  30.9403934  64.0238037  65.9699097  78.5124969
  64.5377197  66.4427643  77.8578720  63.8234444  65.1302490  78.0989075
  86.4657974  27.6670570  75.5609131  86.9290924  28.0924873  76.2824402
  85.5541458  27.9381905  75.6686707  48.3485947  49.6242104  62.2546959
  48.3026962  50.2947159  61.5731163  49.1096878  49.0940514  62.0182648
  51.6410637   2.4965429  71.1614456  51.8019218   3.4349349  71.0625610
  51.3033524   2.2203443  70.3094482  47.5834694  47.0467148  83.5304413
  47.7888603  47.7498550  84.1465912  46.7545929  47.3120041  83.1319199
  71.6722717  61.5524254  38.2582550  71.7954025  60.8742752  37.5940399
  72.4615631  61.5054092  38.7977371   8.2232819  34.2046394  38.1486359
   8.3113966  35.1311378  37.9248886   7.9968677  34.2033272  39.0786743
  12.6884518  47.3424301  32.0194168  11.8844900  47.4268417  32.5320091
  12.5494595  46.5621758  31.4826527   9.3130770  63.2722588  82.4072647
  10.2606068  63.2404747  82.5392075   9.0338793  64.0648346  82.8656387
  27.7336235  67.1063080  82.2195206  28.1522427  67.4770584  82.9963913
  27.0381947  67.7273026  82.0027847  59.8198509  24.6182518  62.7210426
  59.2026901  23.9743977  62.3734894  60.3175545  24.1394806  63.3838425
  44.8320084  60.3203506  70.9688873  44.0929451  60.7210312  71.4265671
  44.5937157  60.3662643  70.0429611  61.5055885  63.7734222  13.9178524
  62.3810577  63.3907051  13.8602448  61.0939522  63.5567589  13.0812864
  62.6384125  52.7502785  67.1997223  62.8555069  52.5725479  68.1148758
  62.8999367  51.9565392  66.7330170   5.2649479   4.8997469  68.1647873
   5.6099038   5.6212358  67.6387787   5.9196429   4.7690721  68.8507462
  71.5650864  59.0177116  76.2503128  70.6571350  58.9479828  76.5452576
  71.9569550  59.6681099  76.8331070  64.6744003  25.2913532  70.5922852
  64.3184814  25.2301331  69.7058334  65.4100113  24.6789188  70.5978546
  56.3311996  17.4219570  82.4940948  55.6780434  18.0878391  82.2791138
  56.9025917  17.8450489  83.1349869  36.1616783   6.3542261  28.3306618
  35.5024300   5.8010278  28.7497082  36.0753326   7.2019119  28.7667885
  63.3762703  34.3122559  20.7988091  63.1462975  35.1770744  21.1385574
  63.6465683  34.4741249  19.8949451  32.5940857  30.3369007  15.5675364
  32.5920258  30.9251919  14.8124590  32.2150383  29.5222645  15.2375011
  22.0622444  70.7576523   9.6465712  22.7473812  70.1862869   9.9934940
  22.5343189  71.5155640   9.3016872  65.2648849  31.5602646  37.9109383
  64.4162445  31.6774693  38.3379021  65.8438416  31.2537651  38.6088676
  67.3745499  17.2866936   3.5712595  67.5207977  17.9909573   4.2028098
  66.4225769  17.2360287   3.4851944  18.6135941  55.8497086  72.9715958
  18.1060753  55.0719757  73.2035065  18.4813976  55.9496346  72.0288467
   6.5502410  36.5492744  42.1555099   6.4129653  35.8608475  42.8062439
   7.4822712  36.4964561  41.9439392  77.6710434  31.2713070   9.2658482
  77.2527390  31.2144928   8.4067621  77.2171631  30.6169987   9.7969847
  39.5111084  14.7312155  26.8409138  39.6069412  15.4898872  27.4166451
  38.6274452  14.4076900  27.0161247   6.4075522  42.8036118  70.1476517
   7.0008836  43.4207115  69.7194290   6.1140976  43.2610435  70.9356079
  18.1741638  50.4798660  87.1208878  17.3842411  50.3853111  87.6531601
  18.3266354  49.6060143  86.7612076  44.0675583  60.7938881  32.0029526
  44.3716011  61.3484840  31.2844715  44.2178879  59.8999252  31.6956062
  42.3384895  67.3159637   9.5582495  42.4835014  66.5341263   9.0254040
  42.4997101  67.0269699  10.4564257  58.2341385  40.0249939   7.6646881
  58.9484329  39.3982086   7.7793956  57.9473839  40.2269669   8.5553112
  15.8757296  25.4014549  43.9223747  16.5460510  25.7584457  44.5050049
  15.0783043  25.8771667  44.1548462  41.6850624  66.9569550  67.8114243
  41.6991653  67.0105362  68.7670212  41.4411011  67.8373566  67.5257416
  12.4966469  63.8943214  79.5711594  12.7109909  62.9804115  79.7583923
  13.1920691  64.3955307  79.9970779  47.1046181  25.0104160   0.4457971
  46.6510582  25.3165474  -0.3395676  46.4201317  24.9588490   1.1129159
   1.4599204   9.9069042  32.3949890   2.0695782  10.6103449  32.6179695
   0.7547153  10.3436041  31.9172783  13.9235191  27.6792870  89.1936951
  13.7888699  26.7316093  89.1964722  13.3095331  28.0065155  88.5363007
   1.5497050  47.8554306  18.1371593   2.1699090  47.2839241  17.6844330
   0.7546351  47.8147621  17.6057072  80.9013748   8.1669197  11.0175571
  81.7032547   8.6608829  10.8466101  80.2447662   8.5728445  10.4515905
  23.2264004  69.0194473  84.7643204  23.4555168  68.1141815  84.5539856
  23.1123199  69.0230103  85.7146912  48.1517982   6.8061433   4.8667450
  49.0042686   6.4266949   4.6533337  48.3056412   7.7508559   4.8758192
   2.0185688  52.5648003  26.8928375   1.7657510  53.2081451  26.2307014
   1.4513985  51.8123245  26.7245197  14.6400862  43.8340416  70.8118362
  14.9715681  43.9846458  69.9265823  15.3220186  44.1833420  71.3855820
  81.3191147  69.2002640  85.6958923  81.1272507  70.0831451  85.3797684
  80.4599838  68.7914658  85.8008423  45.7680550   7.4674773   9.9187908
  46.6693726   7.2739501   9.6611023  45.4168663   6.6265669  10.2116528
  78.1159058  56.5374794  81.1270981  77.7311707  55.7232742  80.8026276
  77.4948883  56.8503685  81.7848740  59.2043076  22.8099422   6.7681212
  59.0087662  22.1094456   7.3904557  60.1562042  22.9037857   6.8044543
  71.4403687   4.3044081  37.7180748  71.7598114   4.6513958  38.5510139
  70.5848160   4.7168598  37.5991249  54.0360603   0.0550567   8.4046707
  54.9096909  -0.3296168   8.4755821  53.9587059   0.6174393   9.1753674
  36.0229073  69.9314041  11.7524452  36.5408363  69.6063919  11.0160017
  35.3564224  69.2586670  11.8919230   8.9792185  69.6090851  33.3936081
   9.8599300  69.9504623  33.5486488   8.4398851  70.0228577  34.0675125
  60.7463188  30.5295811   2.0381989  61.5456772  30.7148209   1.5453008
  60.3542633  29.7821808   1.5866278  75.4259872  37.6612053   6.3499970
  74.8897476  37.5061607   5.5724154  75.5060959  38.6137505   6.3996606
   6.5595598  70.6366119  16.3972511   7.4087415  70.2153091  16.2644825
   6.5503802  71.3598557  15.7703028  29.5111084   1.6451688   6.9255900
  29.3467636   1.6355083   5.9826531  28.8555069   2.2477117   7.2768168
  82.4915848  21.2033634  69.2786407  82.9991913  21.8942699  69.7043381
  81.8967133  21.6701889  68.6917572  20.6772957  70.6416931  86.1116638
  20.7926865  71.5348969  86.4358597  20.4192810  70.7505722  85.1963425
  71.5703430  31.0929585  27.3901863  71.4589691  32.0382462  27.2888908
  70.8754959  30.8333969  27.9952068  77.1746216  52.3065491  77.4683533
  77.2104568  52.3168335  76.5118790  77.8510666  51.6805077  77.7266617
  29.1629658  13.9047232  35.8495598  28.5454617  14.1567450  36.5361481
  28.6882553  14.0576773  35.0325584   8.3499756  60.9758682  59.5176086
   8.7829046  60.8947296  58.6677704   8.8450842  61.6557007  59.9746933
  53.1716690   7.0011845  37.3143921  52.3976593   6.4795971  37.5267410
  53.0151901   7.8452911  37.7377472  74.4417343   3.9866903  32.4655800
  74.4480972   4.9280834  32.6386986  73.5134125   3.7576017  32.4211426
  18.4460506  43.8072548  60.4826965  19.2101364  43.6332741  61.0323639
  18.8005238  43.8827820  59.5967674  59.9388313  66.5513000  45.7491493
  59.0495834  66.6150131  45.4007072  59.8452415  66.7462540  46.6815987
  81.2963333   2.7978652   6.2997317  81.5784988   3.7122507   6.2770700
  81.8904266   2.3489053   5.6982980  85.7497559  68.8824539  82.7429504
  85.0923080  68.3951569  83.2394714  85.3217316  69.0820618  81.9103699
  14.9541645   7.2703495  86.0821457  14.3491373   6.7148414  85.5906296
  14.5432577   8.1348515  86.0773239  17.5678310  28.7287769  22.5163021
  17.9008331  28.4076023  23.3542690  17.3651009  29.6504383  22.6765270
  49.4775200  39.4399147  31.6321907  49.3048134  40.1510239  32.2492256
  49.7854156  38.7174492  32.1794319  74.3469238  38.9917145  25.6427727
  74.9382324  39.6760826  25.3293724  74.7401276  38.6923828  26.4625416
  70.2477417  36.3446426  14.8040771  70.5603256  35.7382774  14.1326246
  69.3241348  36.4806557  14.5927238   4.9027128  46.0399475  46.7732582
   4.5632496  45.1864395  47.0425568   4.2123976  46.6585007  47.0121880
  52.2357140  26.7397594  83.0334702  51.4900780  26.4596119  82.5026474
  52.0724487  27.6671562  83.2052612  49.2473450  57.0696907   0.6920280
  49.9635582  56.7341423   0.1528853  49.6780548  57.4178505   1.4727381
  60.0715179  58.0107002  52.1247597  60.0606918  57.2373047  51.5608635
  60.2415504  58.7397079  51.5282135  70.0726089  28.8266621  79.2249680
  70.5931168  28.6827831  80.0152893  69.9749451  29.7774086  79.1722870
  49.8705521  32.2998772  35.7922897  50.0426636  31.7731438  36.5727768
  50.7332268  32.6115723  35.5186653  76.9848175  22.4429722  59.6953125
  77.0511398  23.3293934  60.0504074  77.4583206  22.4817905  58.8643379
  13.3959494  28.9790554  21.7830925  13.8157244  29.8219681  21.6112862
  13.5965929  28.4498081  21.0111656  74.8938980  20.1329441  73.0713882
  73.9997787  19.8870583  73.3087234  75.4141388  19.9218731  73.8466492
  55.0167656  15.9407644  14.5383615  55.6866302  16.6179237  14.6330757
  54.4574585  16.0478745  15.3077335  12.0216789  24.8327007   9.1616020
  11.8320532  25.1064491  10.0590076  12.7870893  25.3495884   8.9101934
  82.7500992  57.1686478  61.3236427  83.0371017  57.1413841  60.4108887
  83.5595932  57.2574921  61.8266945  46.1452446  43.0426407   9.1264906
  46.3992500  43.2421570  10.0275488  46.8831749  42.5450592   8.7742109
  55.9687195  66.7634811  54.1260490  55.5188255  67.0385132  54.9249115
  55.2702026  66.6677551  53.4786377  55.9053078  52.5477066  18.1614285
  55.1501350  51.9934196  18.3581772  56.4681702  52.4678116  18.9315166
  60.2802963  36.2136192  10.2862968  59.8748093  35.3800583  10.0475817
  60.7301941  36.0334167  11.1117382  49.2721825  23.2276878  11.3933268
  48.5430984  23.1399517  12.0073071  48.9919701  22.7417126  10.6177368
  62.8664246  25.0173969  53.5943565  63.6985435  24.9195633  53.1314926
  62.7634010  25.9626217  53.7046623  39.6942482  41.2715263  23.7874184
  40.0700760  40.3994980  23.9080505  39.7710190  41.4375420  22.8478565
  80.9214096  34.8830223  45.1719513  80.5381622  34.4576340  44.4048805
  80.3920059  34.5735664  45.9069405  55.4582787  61.3126183  67.7133408
  56.1553154  61.9120522  67.4467773  54.6487923  61.7730484  67.4920502
  23.2984543  60.0592575  57.1930466  23.0469360  59.1610489  57.4079666
  22.6539803  60.6032829  57.6457329  19.3323116  35.3777466  32.6029015
  19.1085835  36.1279030  33.1537552  20.0820599  35.6744919  32.0871010
  72.0250092  29.6764565  16.2782192  72.8831100  29.9704895  15.9725571
  71.8515854  30.2094669  17.0541439  21.4796677  69.5422287  70.6552505
  22.2215271  69.8559647  71.1724091  21.2695522  68.6876526  71.0317841
  70.8021240   1.5194061  60.3781815  70.0972748   2.0539942  60.7437401
  71.1510315   2.0435708  59.6572495  86.3323593  11.0243082  10.8859558
  86.1109619  10.9728212   9.9561357  86.1733398  11.9387960  11.1197453
  40.0669022  17.4061985  47.9633560  40.3774872  18.1776180  47.4893494
  39.1307106  17.3659058  47.7680206  40.7966232  19.0476093  86.3599014
  41.0621872  19.9309902  86.6155319  39.8400230  19.0792198  86.3475952
  43.6070862  67.5357742  14.0333729  43.5156670  68.3088074  13.4763288
  44.5415268  67.4965363  14.2371264  49.0669975  32.1855354  62.5632896
  48.8997612  31.9662495  61.6466751  48.7011948  31.4508553  63.0559044
   9.5377274   0.7880087  46.9886894  10.3021288   0.8455793  46.4154472
   9.5997810   1.5615495  47.5490608  14.7210464  11.1951447  36.4093399
  15.5329771  11.6955070  36.4908142  14.9712467  10.4103556  35.9217529
  18.8576508  47.9105110  76.2275314  17.9929810  47.8597488  75.8200912
  19.0798264  47.0021553  76.4318924  32.5887146  15.6549959  31.7570705
  32.8481789  15.0028772  32.4079552  33.3089600  16.2854061  31.7493305
  65.4753113  48.5450058  75.2172928  65.7971497  47.9534035  75.8974838
  66.1992645  48.6103401  74.5945129  13.4577150  65.0163116  77.0557709
  14.3519611  64.7029266  77.1912231  13.0378075  64.9190750  77.9104385
  23.2915382  65.5117645  71.8073120  24.0602932  64.9430008  71.7654648
  22.6227970  65.0480423  71.3033524  34.9117546  33.8919830   6.3122005
  35.6250076  34.2334099   5.7728243  34.7407913  34.5850563   6.9498944
  28.8865223  18.2760143  88.5782852  29.1553898  18.6890640  87.7577209
  28.0256062  18.6508102  88.7642517  36.4497604  66.8102112  22.1297054
  36.3920097  67.3036575  22.9478817  35.5773926  66.4332352  22.0152760
  81.3542023  70.5311203  47.2222061  81.9655151  70.3815079  47.9434204
  81.5170517  69.8081970  46.6163216   0.5428104  16.9667511  82.9858246
   1.1880105  17.0473251  82.2833557   1.0571471  17.0234604  83.7910995
  85.2685318  45.1846123  12.8562775  84.5392227  45.1286812  12.2388535
  85.9175644  44.5683975  12.5167685  39.9775047  30.8709660  88.1774902
  39.3769798  31.1611938  88.8640518  39.9111519  29.9161396  88.1891556
  19.8280220   5.4499226  13.6482019  20.7376347   5.6757884  13.8426781
  19.3489552   6.2716045  13.7557459  29.4895535  10.3554583  46.6367188
  30.3630657  10.7392263  46.5597038  28.9572430  11.0481815  47.0278816
  21.8140125  54.9838676  34.4252586  21.6916142  55.6350098  35.1161041
  21.9604092  55.5002098  33.6326752  61.8344536   9.1820879  75.5601959
  61.8225594  10.1386795  75.5921707  60.9126778   8.9332361  75.4921341
  22.5593472  55.0320740  46.3232346  21.9241104  55.2843246  46.9933624
  23.3934746  54.9831772  46.7902184  83.3662262  29.1909428  88.1905441
  83.2815018  28.5488262  88.8953400  82.4652634  29.4378719  87.9819183
  12.1177168  60.8180161   1.1296165  11.5607557  60.0395775   1.1218680
  12.3296900  60.9700356   0.2086441  41.1591454   7.7634654  53.7587280
  41.3888130   8.3468056  54.4820518  41.8978882   7.1580892  53.6954269
  29.2942142  28.8100262   2.8941951  29.7045841  29.5679474   3.3105869
  30.0281143  28.2544918   2.6315100  17.8830547  57.6013298  25.3206177
  18.5070057  58.1752968  25.7650013  17.4736576  57.1006241  26.0262527
  61.6691551   2.4824276  18.7074890  62.4654160   2.9090362  18.3909359
  61.8986244   2.1647270  19.5807838  81.3716431  67.7529221  45.7589798
  81.8456879  67.3410950  46.4814186  81.9871902  68.3937149  45.4030190
  80.9681702  35.4974518  27.9041862  81.0870972  36.3347168  28.3526039
  81.8528290  35.2332649  27.6515713  51.6560745  66.6692200  80.3643799
  51.0927849  67.0543823  81.0356369  52.0225906  65.8880157  80.7786560
   4.5917807  57.6920509  73.0548019   4.8118019  56.7861595  72.8375931
   5.0258741  57.8495216  73.8932571  13.1065655  47.1566505  21.9072781
  13.4592199  48.0342751  21.7601509  12.2834244  47.3042564  22.3729858
  85.1333313  22.1499920  18.3315964  84.5278168  21.8054180  18.9879875
  85.9656982  21.7180157  18.5234108  83.4953232  55.4901505  44.6556435
  83.0328445  55.6494141  43.8328552  83.1458206  56.1469650  45.2578697
  57.9104691  69.8248901  43.4985161  57.9208488  70.3464661  42.6959686
  58.0783577  70.4571762  44.1972733  45.2543602  68.2500839  73.6024780
  45.3731499  67.3579330  73.2766190  45.7481003  68.2734070  74.4221725
  16.9149208  66.5663757  87.7796783  16.3179302  66.7919464  88.4930878
  16.4404716  66.8090820  86.9845581  19.8890820  33.9562263  74.6006317
  19.9713955  34.2346230  73.6885223  19.4910011  33.0871582  74.5508041
  45.8350601  41.0839806  22.1640396  45.7326508  41.1983452  21.2192307
  45.3778076  41.8327026  22.5468826  66.0842972  63.2051239  72.4567261
  65.9851456  63.3278427  71.5126190  67.0304413  63.1587029  72.5941620
  22.4272499  58.7635994  53.2976303  21.8142452  58.1797752  52.8508606
  22.7810040  59.3174324  52.6016693   8.2888851  17.8294106  72.2587814
   8.7602892  17.9380779  71.4328232   7.3762631  18.0181561  72.0403137
  84.6840134  35.8569527   0.2470525  85.2340317  35.9074059   1.0288275
  84.3416901  34.9630737   0.2523274  61.8409348  61.2936707  30.5164185
  62.0355492  60.3993683  30.7967300  60.9047165  61.2838898  30.3173332
  27.9771957  26.1610775  17.6723251  27.0676994  25.9380302  17.8705597
  28.1911621  25.6329269  16.9032307  47.8774567   7.5767479  77.5691376
  47.0179329   7.2132101  77.3563080  47.9828568   8.3117895  76.9651184
  52.8945427  55.9356346  25.5148773  52.4138794  55.7689018  24.7040787
  52.8566093  55.1059647  25.9907379  13.7741613  23.4355431  86.7619324
  14.5934315  23.8373127  86.4727783  13.9766569  22.5026588  86.8323212
  33.9306107  67.9267807  42.4186363  34.5600433  67.2386093  42.2030792
  34.0001945  68.5500717  41.6955223  46.2639236  61.6761742  28.1219425
  45.6699829  61.4084778  27.4206524  47.1248093  61.7142410  27.7052193
  80.4353333  32.8632393  27.1920128  80.9767685  32.8503151  26.4027615
  80.5893097  33.7273178  27.5739708  17.1888790  22.5804100  79.2146530
  17.0845261  21.6304684  79.1603088  17.1371651  22.8793659  78.3068085
  22.9328442  18.0487003  19.4522915  22.5312538  18.7430878  19.9745770
  22.4287834  18.0390263  18.6386204  62.7073631  34.9498749   6.0440426
  61.8091049  34.9733353   5.7141733  62.6374435  34.5256920   6.8992691
  64.8992538   5.5679541   9.1973467  65.3851547   6.2396235   8.7188129
  64.1080399   5.4283152   8.6770458  37.2080116  22.2416649  22.5885811
  38.0980415  22.5936813  22.6013889  36.8782005  22.4560242  21.7159367
   1.4059614  33.7968178  14.9528618   1.3175361  34.7479248  15.0145760
   2.3010926  33.6202126  15.2423124  79.2736511  62.6852493  35.7747269
  80.0902634  62.1954269  35.8719940  79.4958878  63.4069977  35.1865768
  73.0533142  54.8027191  83.8117142  72.5249710  55.1759262  83.1061630
  72.5440903  54.9677048  84.6052475  86.3901978  40.2599220  25.6511250
  85.4951553  40.5591583  25.4911785  86.9426422  40.9434662  25.2718964
  21.4654140  16.5348969  25.2193661  22.3321991  16.9336185  25.2964306
  21.4778385  16.0974407  24.3680668   6.5326076  35.5067787  73.1161499
   6.3095012  36.4260254  73.2625885   7.4496541  35.4376602  73.3816299
  64.2734070  34.5554161  30.6971436  63.6167412  34.2948723  31.3430004
  64.4202271  33.7676163  30.1736431  31.2386456  29.0877190   9.1055346
  30.8394127  29.2193050   9.9654942  30.6922054  28.4225121   8.6870422
   4.4626350   9.0018301  34.8380089   4.3220015   9.8021870  34.3321609
   5.4037161   8.8395214  34.7727890  32.2050400  59.7626266  24.7544327
  31.6666603  60.3004494  25.3350563  31.6932716  58.9642105  24.6246071
  68.7870026  67.0006638   6.8065410  68.1769867  67.6848984   7.0821023
  68.9408493  67.1765823   5.8783083  15.6572437  46.3715591  14.1108007
  16.2998028  47.0332413  14.3667736  15.5011835  45.8676414  14.9095173
   6.7729793  50.4728661  87.2066422   7.3690300  49.9588547  86.6618958
   5.9869356  50.5758896  86.6702118   7.1412873  19.3358784  66.6227875
   7.5421553  19.1135883  65.7824707   6.4504099  19.9601269  66.4009018
  13.9021168  63.4919662  12.4255457  13.5658064  62.9715691  13.1551437
  14.2477789  62.8457870  11.8097534  12.9909601  24.9115105   4.3823671
  13.4839277  25.4094410   5.0345016  12.6402235  25.5755920   3.7888927
  46.7457352  60.2435265  68.0211182  45.8324547  59.9577637  67.9989395
  46.7177963  61.1571541  67.7369690  42.8592949  23.2833767  21.8302555
  43.5741615  23.8765965  22.0611038  42.6124229  22.8720684  22.6585732
  69.7662506   8.5968227  88.6003342  70.4064941   8.0257969  89.0248947
  70.1503983   9.4716778  88.6577072  83.0980225   6.3732457  51.3762093
  83.9566727   6.7909017  51.3090591  82.4738083   7.0937448  51.2897873
  82.3417969  21.0393257  53.1707382  83.0613327  21.1833344  53.7853622
  82.7728882  20.8565960  52.3358688  49.7120285  56.8686523  10.9807034
  50.0520401  57.0170174  11.8630934  49.2214127  57.6646805  10.7760906
  73.9341354  19.8359985  87.0742722  73.7821045  19.3546352  86.2610092
  73.1824493  20.4239197  87.1487122  67.0326614  48.5475731  81.9341660
  66.3285522  49.0456314  81.5189514  67.8123856  48.7629662  81.4224472
  72.7186661  65.0394516  51.9588165  73.4302139  64.4004669  51.9183731
  72.9192047  65.6655884  51.2631416  81.5536957  33.9894104  78.9875488
  81.7051697  34.3295670  79.8693542  81.8606339  34.6853104  78.4063950
  51.6865234  18.4697285  29.5826225  50.7857437  18.2328129  29.8032932
  51.6933060  18.5213909  28.6268425  16.2691727  54.6868553  39.2911911
  16.7196312  55.2297325  38.6441956  16.7509480  53.8597488  39.2869606
  68.8962097  45.0302582  28.0347919  69.4151230  44.9911919  28.8381844
  68.0399246  45.3507919  28.3180904  36.6878319  51.2341080  15.0633316
  37.0593796  50.4308929  14.6986008  36.7738800  51.8784027  14.3606873
  53.6211014  46.0864105  60.9396782  54.0297661  45.2427177  61.1330910
  53.0725212  46.2673950  61.7029190  27.9048767  31.8189850  18.4024410
  27.5126534  32.6346436  18.0908413  27.6704464  31.1712723  17.7378044
  68.9590912  11.5349712  14.3268757  69.7852097  11.0593109  14.4135504
  69.2197266  12.4300957  14.1099606  69.8971024  44.2296486  31.3484936
  69.3381042  45.0064507  31.3301392  69.9408951  43.9878922  32.2736244
  65.0893860  14.3453159  48.7999001  65.1580734  14.4584217  47.8518906
  65.6828842  15.0026083  49.1631546   0.4114304  71.2461243  76.7654114
   1.0723271  71.5124969  76.1262817  -0.4237577  71.3899384  76.3204346
  55.1015892  54.9596786  81.1335678  54.3539467  54.8672638  80.5430450
  54.7189598  55.2537613  81.9602127  79.4299774  35.4455299  20.4905167
  78.7849274  36.0125198  20.0678368  79.1890945  34.5612564  20.2143536
  56.5687904  29.0279274  28.3838596  57.1206322  28.8933983  29.1543179
  56.0565491  29.8098888  28.5897236  11.8423462  68.9956284  78.6108627
  11.7323942  69.9413300  78.7097931  11.3853731  68.7852631  77.7965240
  66.7902985   5.5312371  63.1377068  67.2601547   5.8944025  62.3869896
  65.9097824   5.3545117  62.8065071  40.8333054  69.8527374  55.2444649
  40.3085060  69.4636917  54.5448494  40.8389854  69.1908798  55.9359436
  21.6754894   2.2191398  69.7518158  20.7227917   2.1268127  69.7430954
  21.8474693   2.8626950  70.4392014   0.7676924  43.2681427   4.7915936
  -0.1411940  43.1454773   4.5175300   1.2218064  43.5480766   3.9968302
  79.7881241  22.8637314  23.9907837  78.9956284  22.4878273  24.3740253
  80.0858994  23.5043373  24.6366806  80.5364532  49.7529068  71.2080841
  79.7811737  50.2029381  70.8295898  81.0303726  50.4437790  71.6496429
  49.3825989  54.9503479  36.7708282  48.5445824  54.5568275  36.5277252
  50.0236320  54.2529869  36.6329918   3.5563450   5.6224270  19.8546104
   4.3074312   5.1807709  19.4583263   3.7133005   6.5528531  19.6936626
  81.1905670  47.4879532  21.2552776  80.2752151  47.2721863  21.4336510
  81.6798859  47.0507736  21.9521770  43.6121559  60.8490448   3.1824360
  43.1696396  60.0389824   3.4358246  42.9033699  61.4800148   3.0570025
  72.1192093  50.0815277  18.0384293  72.4173508  50.9457932  17.7548962
  71.7563858  49.6820641  17.2478466   2.9946859   6.6346292  82.3321075
   3.3828161   5.9259839  81.8188782   3.2655888   7.4337897  81.8802414
   8.5879431  25.9151306  61.6887474   8.7492104  24.9719162  61.6647987
   9.3544798  26.3000412  61.2639008  71.6476746  37.5525208  54.8156471
  70.7988586  37.8183327  54.4619827  71.4686737  37.3358612  55.7306595
   8.3232403  12.4879827  64.8948898   9.1398230  12.7295399  65.3320160
   7.6990213  12.3573561  65.6087036  65.7266312   1.1417316  42.8068237
  65.8710709   0.5349498  43.5329018  66.6046600   1.4295772  42.5569572
  62.4107895  50.7951279  56.2610703  62.7969437  50.2125206  56.9150429
  63.0344734  51.5173187  56.1856155  68.5777893  40.1434059  35.1211472
  69.4094009  40.5628586  34.9004402  68.5092468  39.4106674  34.5090790
  34.9882584  16.0904617  60.3268013  35.6862488  15.5587578  60.7093430
  35.4311562  16.8808174  60.0179138  24.8857937  55.9110756  62.6285667
  25.0573559  56.8122826  62.9017372  25.5908890  55.4014511  63.0277596
  42.8484955  27.0665741  32.5732880  42.3404541  27.3630791  33.3284111
  42.4204178  27.4754906  31.8211117  36.8863144  44.8626976   7.6207223
  36.8373146  45.1987839   8.5156403  37.8152695  44.6754875   7.4857130
  23.5302429  55.5405693  30.3586674  24.2452564  55.0852890  29.9140282
  22.7386532  55.0934410  30.0591774  12.6348372   9.2237940  64.8065796
  13.5012674   8.9845896  65.1356888  12.4990931  10.1187468  65.1178055
  43.9983749  66.7770157  41.3740768  44.2571373  65.8660202  41.2349510
  43.0840645  66.7264023  41.6528320  31.7799721   1.7888836  26.0347271
  31.1999550   1.0688435  26.2824249  32.1510658   1.5193347  25.1945705
  76.5879364  16.9018173  31.4887447  75.7156677  16.7413235  31.8487663
  77.0659790  17.3279915  32.2001419  83.5861588  25.9445858  74.4491348
  83.3743057  25.2507820  75.0736313  82.9908218  26.6595001  74.6743240
  73.4634476  13.8022709  82.5742035  72.8304749  13.6375980  83.2731094
  73.7950516  12.9348574  82.3421173  25.0861225   3.7020705  66.6924820
  25.5789890   3.0661674  66.1738892  24.2541828   3.2665217  66.8779678
  53.1119995  65.5722961  66.6667252  52.6496544  65.2192230  67.4268646
  52.4951897  66.1925507  66.2780533  29.1707268  53.2722664  36.0970573
  29.6121387  53.9599075  36.5955925  28.4416561  53.0021095  36.6553612
  10.8956718  19.4847488  58.0651321  10.4288845  19.9029961  58.7886009
  10.3366375  19.6322556  57.3022728  75.0195999  12.1597795   4.1482377
  75.0159454  11.7142773   3.3010390  75.9389496  12.3792219   4.2994928
  38.7840385  37.4399681   1.0120832  39.4449806  36.8610649   0.6322683
  38.3648529  37.8527832   0.2570359   5.9074936   0.3822719   3.7778907
   6.5381126   0.2737001   4.4897637   6.4462972   0.4634366   2.9909127
  26.3196278  61.3481903  59.0597382  27.2642517  61.1981087  59.0223961
  26.1474190  61.9681854  58.3510933  29.2437477  50.5251389  71.7355499
  29.2941074  51.0414619  72.5399780  30.1548290  50.3212547  71.5243759
  55.8695259  11.5905523  37.4090614  56.2850227  11.2254829  38.1902885
  56.1210060  12.5141163  37.4134331  64.9246368  31.0751190  27.5059662
  65.3859940  31.7965374  27.9336739  65.3289871  30.2855453  27.8655567
   2.6025975  29.3413906   1.9020908   2.2123713  30.1403141   2.2566028
   1.9263901  28.9778023   1.3304456  79.6311188  18.7969379  39.4644203
  80.2875595  18.1707497  39.7697182  80.0480957  19.2398682  38.7253838
  17.9000587   3.8791103  76.4942398  18.0574799   3.1113822  75.9446564
  17.7442284   3.5203729  77.3678894  64.3358841  39.4069672  83.9884109
  64.2274399  39.4684753  83.0393677  65.1023941  39.9482117  84.1774750
  73.3312683  20.4255390  56.4461098  72.8210754  19.6362743  56.6277504
  74.2229309  20.1072121  56.3052750  24.1914005  68.2242050  15.4138603
  24.5439148  67.6681976  14.7190104  24.9084110  68.8201065  15.6307268
  15.0739594  16.4186249  43.3178711  15.5225229  16.7709618  44.0865593
  14.8366613  17.1906872  42.8042145   6.8818607   6.4897256  80.1730652
   6.5656939   5.6481318  79.8444519   6.8961611   7.0575943  79.4026413
  30.3508167  16.2601032  57.5938911  30.4286785  15.4654369  58.1217918
  29.7959309  16.8404179  58.1150131  60.8745537   5.1297636  80.8906174
  60.6368599   5.7613082  81.5695038  60.4998283   5.4898190  80.0867691
   6.9684567  57.2650032  79.0642700   7.2744007  57.9451637  78.4642563
   6.8569837  56.4910469  78.5121841  69.8097458  41.6676292  51.7642517
  69.6802292  42.5788345  52.0272408  69.4369659  41.6170807  50.8840714
  43.3643570  57.3380394  71.9358444  43.4171524  56.6251450  71.2992706
  44.2717400  57.6167755  72.0590897   0.2921336  34.2533646  17.9395351
  -0.2632237  34.1094742  17.1733074   0.0903400  33.5214310  18.5224476
  43.7858543  17.7678661   4.3386168  44.0971642  18.6366215   4.5927477
  43.2602806  17.4745789   5.0829196  10.5696678  52.3794899  57.0376778
  11.4019051  52.7527428  57.3280182  10.8192225  51.6428642  56.4797020
  60.9112854  65.1560440  85.0493088  61.2869797  65.6363983  85.7871094
  60.0198631  64.9471283  85.3285141  62.6569939  42.9532890  46.0184402
  61.8868256  42.8399467  45.4614563  63.3992996  42.8795547  45.4186287
  12.4770317  68.1161652  19.1222687  12.0328560  68.7295380  18.5368519
  13.2613115  68.5840378  19.4090385  37.6447220  59.6213875   4.4362903
  36.9568710  60.2378845   4.6873302  38.4566231  60.1215172   4.5194502
  12.9779043  44.3292046   6.9600186  13.8085823  44.8022537   7.0093040
  12.7688456  44.3089676   6.0261464  45.2126045  57.7700844  50.0122566
  44.5299225  57.3157768  50.5059967  45.0114441  58.6991348  50.1246376
  22.5411339  61.8145599  39.4967384  21.9686909  62.5393448  39.2452812
  21.9628677  61.1967239  39.9440804  66.8137970   6.9607058  86.7312088
  66.9452286   7.8627834  87.0231171  67.6841812   6.5650005  86.7767487
  35.9544945   5.3870592  70.1407471  35.9413757   5.1596069  69.2110596
  35.0421906   5.5857100  70.3516235  43.9782257  12.7009916   4.3548932
  44.3773727  13.5512838   4.5390649  43.4659576  12.8442059   3.5590913
   4.1630692  40.3490562  76.1920929   3.3056304  40.0769882  75.8649673
   4.7344241  39.6012421  76.0172806  73.8642273  45.6287041  53.0034676
  74.1405258  46.0157318  53.8341904  74.3408890  46.1246948  52.3378716
  28.3840752  14.5863190  24.7175064  28.9159527  15.0168610  24.0481987
  28.8861599  13.8077173  24.9581833  42.6516113  62.5398216  86.2257919
  42.6717339  62.6641693  85.2769165  43.5146904  62.1851845  86.4392395
  75.2311630  28.4024200   7.6943307  75.2534790  28.4832687   8.6478491
  74.5364990  29.0008335   7.4194117   0.5981756  41.1166916  65.7368011
   0.2528179  41.6278763  65.0049210   1.5150141  41.3834457  65.8037338
  30.3216972  20.8617554  11.5553503  30.5260906  20.4756527  10.7036581
  29.8703899  21.6793976  11.3455591  32.6070518  59.2758408  12.7012072
  32.9552231  58.5120888  12.2411098  33.2663574  59.9568596  12.5679340
  81.1271210  56.8143082  87.7767105  82.0648041  56.8635712  87.5908127
  81.0784683  56.5252609  88.6879349  35.4619446  47.1962051  11.6297588
  34.6375961  47.5106392  12.0009899  36.0858727  47.9018784  11.7999640
   1.8801651  37.0174789  33.8397331   2.0736017  36.9286919  34.7729721
   1.6059660  36.1417007  33.5675888  60.8214493  13.5739317   9.2137871
  60.8412247  14.5302963   9.1790276  60.3373528  13.3157129   8.4294376
   7.4357705  22.1932259  54.8468170   7.4737983  23.0500851  54.4218712
   6.5226917  22.1011314  55.1189156  50.8418388  51.7989807  73.0279770
  50.3544502  52.4210091  72.4878311  51.0730667  52.2940559  73.8138962
  73.9888687  51.0199165   6.0197296  74.2407532  50.1221161   5.8035340
  73.0393677  50.9812393   6.1345267  24.0325108  54.8262711  82.8694305
  24.8238621  54.9544067  83.3924789  24.3336735  54.3597641  82.0897522
  40.5465240  15.2317305   1.6316242  40.7780151  15.9009466   0.9875788
  39.6412125  15.0013914   1.4228549  35.9628410  35.1429062   8.6654415
  35.0934181  35.4087524   8.9648781  36.5464897  35.8321419   8.9825182
   9.6229324   7.6010609  20.5181103  10.2653189   7.7123499  21.2189579
   8.7752190   7.6569457  20.9591198  36.3398781  19.9296207   8.2073727
  35.8034363  20.3732014   7.5503349  37.0994568  19.6100521   7.7203932
  39.4108810  53.3129044  52.2252502  38.8628426  53.5623322  52.9693451
  40.2983437  53.5554390  52.4894791  10.4723120  53.1138344  23.9985275
  10.0929279  52.6741753  24.7594471   9.8095541  53.0224113  23.3139668
  43.0798569  58.0538139  44.4655533  43.1290932  58.0905800  45.4207802
  43.6025238  57.2878761  44.2280884  78.9120941  47.0994377  31.5564594
  78.8203201  47.5831146  32.3773537  78.0184250  46.8438530  31.3278561
  19.8470039  59.0209427  46.1390724  19.4381714  58.6492805  45.3574333
  19.1285686  59.1115608  46.7650681  79.7759628   3.2842755  56.8483276
  79.0553513   3.3861532  56.2265778  79.8099747   4.1195879  57.3145103
  60.5602150  51.3033485  27.9749527  61.5097389  51.4060631  28.0388203
  60.2477379  52.1531067  27.6643066  12.4934006  12.7290697  -0.1826620
  11.6450491  13.1723785  -0.1856271  12.5947914  12.4119434   0.7147692
  65.4908829   4.6000514  44.1820641  65.3851700   5.2534857  43.4906273
  66.4223709   4.6307712  44.4002609  60.7417030  27.9446449  36.9674034
  61.5007591  28.0093575  36.3878517  60.9848137  28.4568882  37.7385941
  62.6382751  21.9925117  25.6890488  61.7093964  22.0819588  25.9021530
  63.0492096  22.7630634  26.0809879  56.7514229  51.3250084  32.8853989
  57.3063202  51.1822395  32.1186256  56.9668045  50.6022339  33.4748383
  12.8467293  46.4281082  19.0506496  13.5897646  46.9805069  18.8077831
  12.5940666  46.7356682  19.9211674  24.5408764   4.4975233  13.3780193
  25.0959358   4.6166463  14.1487007  24.5437737   3.5527203  13.2244911
  19.7723026   6.3292670  58.3096695  19.6508732   6.9894705  57.6273079
  19.8206711   5.4997606  57.8344765  49.6618729  17.0876980  70.0347443
  49.7440643  17.4922943  69.1711578  49.7191010  17.8198433  70.6486816
   7.6127067  25.2507992   6.0531836   7.4994783  25.2023296   5.1039405
   7.3757281  26.1507835   6.2770162  73.4775314   1.6986367  43.4830856
  72.9345322   1.1512226  42.9158783  73.3365860   1.3465897  44.3619652
  54.8306503  32.1821289  30.1436768  55.4405975  32.2385635  29.4081440
  54.8819275  31.2695293  30.4278698  27.6485901  39.9568748  17.4963551
  26.7531147  40.2847786  17.4136810  28.1849251  40.6085320  17.0447826
  70.1372986   6.9542255  50.2714005  70.2077332   6.2145224  50.8748131
  69.2215195   6.9497690  49.9928970  48.9833450  68.9430847   9.2144985
  48.3099098  68.3388367   8.9020882  48.9469643  69.6789703   8.6034527
   6.0607762  66.0899963  30.3217716   5.2164583  66.2863235  29.9157963
   6.7074018  66.3326874  29.6590443  85.1671066  15.6825275  71.3546524
  85.6921387  15.3127661  72.0644760  84.3541183  15.1774931  71.3699188
  33.6321411  68.9168167  55.8836060  33.4244843  68.0645981  56.2667999
  32.8677177  69.1317673  55.3491058  70.6602783   0.4044487   9.3164797
  70.2600479   1.2737185   9.2959747  69.9221649  -0.1967759   9.4162483
  55.8672867  69.9957733  11.1090727  55.6753540  69.4427338  11.8663979
  56.3772049  70.7227554  11.4664564  83.3522720  57.0376968  58.5170174
  82.7225571  56.3867836  58.2071838  84.1872330  56.7622719  58.1385841
  74.1576767  13.6246004  45.7038040  73.6671295  13.1980705  45.0011902
  74.5169754  14.4144621  45.2997513  81.9191818  13.1788206  62.8930931
  80.9794846  13.3378534  62.8041916  82.0261154  12.8725100  63.7936287
  43.5748024  65.1225281  56.5654716  43.8264160  64.2069778  56.4442482
  44.2949257  65.5043945  57.0672951  29.2147312  55.2312469  79.9258499
  29.5817547  54.6493950  80.5914154  29.8231239  55.9694138  79.8912201
  13.8680439  17.3286324  76.7460327  13.6581326  18.2603931  76.8092117
  13.8895750  17.0258751  77.6538315  74.5300751   9.9251957  74.4134903
  74.5225296   9.6121540  73.5089569  75.4100494   9.7212734  74.7301865
  70.7245560  48.7546539  62.6633797  70.1787262  48.9584084  63.4228401
  71.2874603  48.0387688  62.9581337  36.3062363   1.7450627  86.0731812
  37.1424675   1.4012842  85.7589188  36.4685860   1.9692165  86.9894943
  30.2302933   8.6875887  74.2803650  30.4368439   9.6035061  74.4665451
  30.7527790   8.4767475  73.5065536  74.7229080  36.5758018  86.0718155
  74.0296097  37.2045326  85.8711319  75.5037537  37.1138420  86.2022858
   0.7782912  13.7243223  85.7680588   0.1572884  13.3684883  86.4036484
   0.3948590  13.5160322  84.9161072  77.8621597  29.1047001  20.2764435
  77.5600052  28.2684555  20.6308861  78.8125687  29.0827904  20.3881378
  86.8404465  51.3686371   4.8638248  87.2922211  50.5933189   5.1970100
  86.0220642  51.0310440   4.4998159  12.1786747  30.8668919  69.2732468
  12.7339277  31.5572376  69.6356659  11.6208248  30.5999317  70.0038376
  33.0266647  13.1856756   2.9602022  32.6802940  13.8130522   2.3256497
  32.4585342  13.2799063   3.7247789  27.3015614  37.0871925  81.4225616
  26.9274940  37.8622055  81.0034409  26.5582848  36.6661873  81.8544464
  71.0764999  62.4797707  54.8515167  71.0904465  63.4109230  55.0728645
  71.9718628  62.2861404  54.5739059  72.8064499  32.8442001  69.8866425
  73.2665482  32.1517868  69.4121857  73.4506989  33.1742554  70.5129318
  85.0109406   2.8191826  80.1976700  85.6696777   3.1199586  80.8236389
  85.2302475   3.2716949  79.3832016  35.3658524  25.1121159  20.3165035
  36.3148422  25.0126076  20.2406788  35.0603790  25.1914082  19.4128265
  82.9395370  10.8639002  58.6439514  83.6432495  11.4627647  58.8937187
  83.1852341  10.0274897  59.0392799  57.3427849  51.8301849  11.8005991
  56.5177879  51.7020264  12.2687721  57.4325867  52.7804909  11.7292891
  53.5628510  48.9119225  30.0400562  54.0700111  49.2842216  29.3186569
  52.8608704  48.4221535  29.6115894  56.1892128  66.9329453  76.8611374
  55.4078865  67.4771881  76.7633743  56.6230087  66.9814377  76.0092545
  14.4405279   2.9943392   5.2158303  15.1807299   2.4266171   5.0012960
  14.0804949   2.6241834   6.0218039  12.3068619  59.8717880   3.6779678
  11.6126938  59.6969337   3.0425253  13.1175556  59.6851349   3.2045038
  46.9742088  52.2063980  59.9449310  47.9019051  52.0060120  59.8206139
  46.8152161  52.9638443  59.3816986  70.6830597  24.3372288  75.8169937
  70.3111725  24.8535137  75.1018829  70.4109192  24.7971249  76.6111450
  25.6397171   8.4533529  41.9671059  25.3067360   9.1797981  41.4401932
  24.8555336   8.0415249  42.3299904  57.8577003  15.1859894  15.4423752
  58.0514336  15.5300550  14.5704136  57.6884460  14.2546616  15.3002033
  56.1480179  48.1358185  24.3945961  55.2321892  48.0062599  24.1482143
  56.3202972  47.4535446  25.0434837  86.4108887  26.3704662  47.1421585
  87.0529556  27.0543079  46.9515114  85.5630493  26.7926998  47.0038681
   0.3761936  35.5516853  77.0575104   0.9966392  34.9283638  76.6796875
  -0.4846868  35.1872215  76.8518829  59.8594894  31.6882076  81.5958252
  59.7201996  30.7776318  81.3356628  58.9781761  32.0355606  81.7331543
  75.4656067  29.1028023  45.5374489  75.2519836  29.9323616  45.9645653
  75.8742447  29.3575916  44.7102089  60.1161804   7.2273340  37.8791771
  60.0200577   7.6559572  38.7296333  60.1599274   7.9483743  37.2511482
  52.0736847  51.8509407  34.2321968  51.9011154  50.9163361  34.3460770
  52.3579483  51.9328270  33.3218536  81.1597366  20.1846313  76.1542511
  81.3781433  20.1729259  77.0861282  81.9985580  20.3195286  75.7133255
  83.4233246  46.5798645  61.1970215  83.1129074  46.5963020  60.2916985
  83.0148239  45.8016663  61.5761909   3.3807676  59.4465065  19.6945076
   2.6815815  60.0632553  19.4777355   3.1420262  59.1073380  20.5571785
  62.6553993  35.4421997  78.2205658  62.4627838  35.2797699  77.2971268
  62.1542778  34.7757263  78.6905899  86.1472778  45.1313133  78.7885895
  86.3659058  44.2335510  78.5386810  86.4269791  45.2006989  79.7013779
  58.1536942  31.5041161   5.6980100  58.4625473  30.8438950   6.3184528
  58.1989937  32.3281937   6.1828589  36.5521698  53.2647324   1.1994935
  37.2749557  52.7707481   0.8124644  36.9494591  53.7367630   1.9313250
  41.9506226  11.5308962  60.6811485  41.9120827  12.0104322  59.8536263
  41.4759560  10.7176895  60.5090599  29.9113255  27.5757046  48.3121948
  29.2097359  27.7989082  48.9239006  30.1185074  26.6620274  48.5084229
  68.2036819   4.4456911  25.0304680  68.8072510   5.0640879  24.6187363
  68.5822525   3.5852692  24.8499470  64.7222977  53.5777664  86.0585022
  63.7793999  53.5381432  85.8984604  64.9117279  52.7910271  86.5697632
  30.7173290  69.6659317  31.1348572  31.5003262  69.5809326  31.6788425
  31.0047379  70.1795273  30.3799725  17.7109318  43.1745491  14.7423801
  17.8863907  42.3685265  15.2279444  16.7620487  43.1765900  14.6164885
  53.1662788  38.5361557  82.7974625  53.1989899  37.9278793  82.0591125
  53.7582741  38.1566200  83.4468689   8.2562075   9.1462545  84.9691772
   7.9734116  10.0110502  85.2664719   8.3241177   8.6277418  85.7708969
  73.9325790  27.0393276  87.9524765  74.3576279  26.5897293  88.6828384
  74.5486450  26.9504108  87.2253036  54.0466194  37.0331879  16.7698879
  53.1636429  36.7880249  16.4933414  54.3771477  36.2606888  17.2283936
  26.6399174  59.2378616  20.5981712  26.6769867  59.4409752  19.6635036
  26.9003468  58.3184624  20.6539898  78.5793839  47.5106773   3.0117779
  78.3634644  46.7957268   3.6104937  77.7394104  47.9314499   2.8284011
   7.8917608  26.9771500  54.5229530   8.6860094  26.4993744  54.2839317
   7.1852245  26.3426838  54.4025803  70.4344406  56.3146706  27.5574207
  71.1560974  56.8147964  27.1762333  70.4235458  56.5741692  28.4787102
  41.3151588  51.1870346  20.8985863  40.4488449  51.1909714  20.4915028
  41.3872643  50.3210449  21.2999477  62.4217606  19.9753456  29.4455357
  62.3801804  19.0194244  29.4723053  62.6562691  20.1796246  28.5402679
  21.4383602  16.7220154  52.7842789  21.7587433  17.5544128  52.4368591
  20.4849014  16.7988758  52.7490692  27.1258316  53.0543671  80.8595352
  27.4130306  53.6028786  81.5895233  26.9485359  52.2014236  81.2561264
  66.5538101  16.5030079  16.5417919  66.8129349  16.6464825  17.4520130
  67.3001022  16.0504131  16.1488075  18.5520363   2.2747552  78.9942245
  17.7564659   1.9571054  79.4213104  18.5711842   1.8179035  78.1532974
  63.5012321  41.9811172  13.9104691  63.2851372  42.4312134  14.7271357
  62.6674957  41.9166031  13.4446840  22.5186348  38.9523201  61.9757500
  22.5217953  39.6811409  62.5962677  22.4395599  38.1715164  62.5237694
  21.8806744  45.5370369  34.4401894  21.7146320  45.0169907  33.6539230
  22.7140408  45.2057953  34.7748680   4.3203912  46.0599899  28.9986382
   3.9049289  45.2833290  28.6239071   4.6043191  45.7829781  29.8697758
  17.5493412  37.7403069  61.9096527  18.3124886  37.6964874  62.4857750
  17.9176159  37.8302841  61.0307274  53.7660637  69.7168961  81.3513641
  53.5856972  69.4834366  80.4407578  54.0152855  68.8907242  81.7655716
  36.6401901   5.0960946  19.2720165  37.4110794   5.3583193  19.7752018
  36.8021851   5.4349966  18.3915997  38.9443626  62.8462791  70.2331696
  39.1450653  61.9833069  69.8709106  38.1587334  62.7072258  70.7620163
  44.9186592  71.2370987   8.5634260  44.8659630  71.0599670   9.5026159
  44.0262299  71.4777298   8.3146315  66.6987305  34.7023811  88.8490601
  67.1526031  34.6831169  88.0065308  66.0687790  35.4182014  88.7654495
  76.2090378  19.6109886  46.5233955  76.2594757  18.9791393  47.2406502
  76.9121323  20.2349205  46.7039566  35.7283401  16.2252178  33.3993721
  36.6445732  16.1705933  33.6709633  35.4217682  17.0584679  33.7570610
  86.9288940  50.2918091  67.4586258  86.9151230  50.6906166  66.5885696
  86.0632782  49.8944473  67.5536880  31.1097984  20.8621712  82.5613861
  30.3539715  21.4492092  82.5428391  31.5477638  21.0616608  83.3888016
  46.3287849   7.5207634  38.5740089  46.9094658   8.2092962  38.2500305
  45.4680328   7.7483239  38.2225075  61.3903389  27.4265404   3.7396858
  61.1727867  26.5660362   4.0980639  60.8342400  27.5109997   2.9651856
  11.9659405   6.6160188  17.0496159  12.0128832   6.3774357  16.1238155
  12.8476162   6.9213567  17.2632694   8.7416811   5.1435938  43.3707199
   9.2615957   4.5632486  43.9267044   8.4408665   4.5835648  42.6551018
  44.3882980  65.8575439  66.8101501  44.2192307  66.3139725  65.9859390
  43.9781723  66.4080048  67.4772568  66.3643570  61.0642853  21.8768158
  66.1418610  60.8521004  22.7832947  66.7274246  60.2523727  21.5229664
  10.4523172  16.7042751  28.5050106  10.8565884  17.5589561  28.6543980
  11.1536341  16.0749092  28.6731968  24.8981628   2.9325004  62.4626503
  23.9622269   2.7323246  62.4762535  24.9617500   3.8066452  62.8474350
  53.2229881  22.6402969  38.7445908  52.4666595  22.5268764  39.3202057
  53.6190987  23.4639473  39.0290680  34.9640160  65.6976242  18.8405075
  34.7261162  66.5815277  19.1204205  35.7201729  65.8233185  18.2672195
  46.1665230  44.7504120  11.5167379  45.2470551  44.8564415  11.7607994
  46.2225037  45.1107674  10.6317272   2.3675680  11.1197653  73.3428116
   3.1404452  11.3959665  72.8502579   1.6279832  11.4524412  72.8343124
  35.0335350  25.7665291  84.4086227  35.2388687  26.6899719  84.2625885
  34.1513405  25.6582375  84.0533218  21.1715717  58.2788124  21.0752945
  20.7986336  57.4968147  20.6683197  21.4422112  58.8264427  20.3383503
  63.0556755  38.6950912   6.7837243  63.0341415  38.2862282   7.6489410
  63.3839417  39.5796738   6.9449315  54.3073196  68.0071182  24.0534687
  55.1867332  67.9264297  23.6842060  54.0879784  67.1222763  24.3453159
  72.4664688  37.5005608  63.4979973  73.0722809  36.8174782  63.2105560
  72.9639359  38.3137550  63.4115524   6.4340725  42.4947586  28.0802498
   5.6138120  42.1504059  28.4335575   6.7886996  41.7771912  27.5553036
  61.6133270   7.9432769  58.6226883  60.9376030   7.4946980  58.1143494
  62.4380989   7.5909934  58.2882080  31.1561451  62.5833549  75.1919479
  31.9682446  63.0139694  75.4589539  31.3260612  61.6502838  75.3213272
  62.5648460  66.4336243  26.9984703  61.7227516  66.8298416  26.7745914
  63.1620941  66.7383652  26.3153477  10.1519508  31.6185379  67.3954544
   9.9862652  32.5542068  67.5107956  10.7581110  31.3938332  68.1013641
  22.6032448  68.2293472   3.6375451  21.8614101  67.9841003   3.0845811
  22.2365150  68.8469772   4.2702136  55.8498802  45.0525742   2.7978201
  55.1499557  44.8813896   2.1677110  56.4804382  44.3471527   2.6528850
  54.0824738  64.6367111  13.9714699  53.2701530  64.6840134  14.4755821
  53.8178291  64.2795410  13.1237555  70.8458710  30.2606087  44.7580414
  71.0022507  30.7201385  43.9330482  70.8485184  30.9510365  45.4210129
  27.5568657  53.3457832  41.4023590  27.9736824  52.5087509  41.6069984
  26.6969032  53.2934113  41.8194389  37.2907104  34.5839653  39.2421417
  36.5588799  34.8162346  39.8137245  37.8639221  35.3502541  39.2635689
  36.6920280   0.2090976   1.8048579  36.6658249   0.7875649   1.0426761
  35.8117104   0.2630107   2.1768332  39.6129112   5.9540458  12.5312338
  38.9657173   6.4476390  13.0349598  39.3663559   5.0377598  12.6571827
  11.1291056  50.0498352  65.8979645  10.5497360  50.8117523  65.8914108
  10.8723993  49.5604591  66.6795349  31.8250542  70.5313034  21.9667892
  31.4322052  69.9152069  21.3484573  31.3070107  70.4320908  22.7655506
  37.8115730  15.8992348  37.0131035  36.9618378  16.3350048  37.0785446
  38.2746353  16.3791924  36.3264847  74.6792526   9.7571535  79.2693024
  74.2432785  10.0554752  78.4710846  74.5301666   8.8117599  79.2846298
  58.5225372  14.4615698  10.9785528  57.6563225  14.8653126  10.9247751
  58.4955406  13.7505293  10.3382998  75.0330963  27.6544456  24.9676895
  75.1685181  27.7455215  24.0245037  75.9160919  27.5872669  25.3310528
  58.3290710  62.6394768  57.2419891  58.0494423  63.1538162  56.4846916
  59.1208496  63.0795555  57.5512581  24.1806049   8.5912333   2.8630307
  23.3511753   8.3968506   2.4265740  23.9316883   9.0996075   3.6349292
   8.1026955  10.6150627   8.9227457   7.5492492  11.2397585   9.3914499
   8.2369556  11.0125360   8.0623846  16.9191380  46.0102615  87.5665131
  16.8782921  45.8182678  86.6296539  16.5734234  46.8994713  87.6440735
  29.8191051  69.8202362  44.9782944  30.0595798  68.9223938  44.7496376
  30.6457958  70.3022919  44.9574852  63.9170914   1.0202984  31.7069225
  64.2058411   0.3470924  32.3230782  62.9910889   0.8282880  31.5590096
  28.7976952  51.7286186  78.7429581  28.3190460  52.3783035  79.2577820
  28.5933285  50.8928223  79.1623764  59.5522575  13.6636868  74.8649139
  59.9816704  14.4499035  74.5277252  60.2211571  12.9815235  74.8060913
  69.9669952  29.2484798  12.0605593  69.9539490  29.3274269  13.0144091
  70.4846420  28.4610653  11.8924580  85.0113220  64.9981308  39.3344307
  85.7426224  64.6398087  39.8374557  84.2384491  64.8061371  39.8655090
   3.6788373  54.5374107  13.8472967   3.7726731  53.6323586  13.5501308
   4.1632757  54.5700951  14.6722107  12.0320148  57.1838531  83.5242386
  11.9732027  56.4164848  84.0933762  12.0959597  56.8221397  82.6403275
  64.2283249  33.7707672  18.4123116  64.6472244  34.1479378  17.6386909
  64.4791794  32.8471985  18.3942165  49.2448425  11.7462854  38.6879959
  49.5117149  11.9671984  37.7956924  48.7389183  10.9391918  38.5937996
  49.0795326   9.0584335  79.4947281  48.6138611   8.6104097  78.7885666
  49.6733055   9.6603251  79.0459518  58.2226601  62.5366516  13.2276602
  58.7590637  63.0588226  13.8241873  58.2557869  63.0119743  12.3974771
  33.8593788  62.1796608  79.3173676  33.1084137  61.9682426  79.8719788
  34.5260315  62.4957809  79.9271851  37.3625565  19.1476307  30.8902512
  36.9993095  19.5089169  30.0816994  37.3489532  18.1999264  30.7564430
  14.4132166  51.6115150   7.4604630  14.5115261  51.3001366   8.3602467
  13.8890438  52.4085999   7.5387764  78.2307053   4.5380554   4.2899923
  77.4070053   4.7463198   4.7308807  78.7182007   5.3618112   4.2916512
  19.7202225  58.0383987  31.1274548  18.7925358  57.9375877  31.3406811
  19.7428932  58.7494774  30.4870758  83.8050690  32.4908218  63.0580750
  83.7603149  31.7519360  63.6649323  83.2294159  32.2420273  62.3349190
  13.1480722  42.7022934  45.6387253  13.9302483  42.6868896  46.1902657
  12.5503483  42.0801659  46.0533485  51.2587204  21.7983608  18.0755882
  52.0726471  21.3913460  18.3723965  50.9993896  21.2850494  17.3104153
  41.1914902   0.8192486  46.9655495  40.3553734   0.3855778  46.7950478
  41.0069084   1.4198660  47.6876450  10.0497427  31.2404289  21.7429638
   9.1371565  31.2565308  21.4545898  10.5559616  31.3891392  20.9443035
  45.5800591  55.9073715  38.6684494  46.2244034  56.6137924  38.6234131
  44.7577477  56.3467102  38.8852768  33.1817207  35.4130707   8.4895601
  32.4319191  34.8261719   8.3916817  32.7960472  36.2874985   8.5430975
  27.9956551  46.1456299  31.1041889  27.4983578  45.7601166  31.8255119
  27.7286587  45.6437798  30.3340645  67.2536469  43.1416626   6.2175736
  66.6872177  43.9020348   6.3488235  67.4329071  42.8211136   7.1015100
  83.5078354  66.7800598   6.5375419  82.6306381  66.9763031   6.8665462
  84.0317383  67.5427475   6.7826118  70.5878296  26.3715134  41.7179527
  70.0044327  25.6173630  41.6335068  70.2926254  26.9797535  41.0403633
  23.2541561  44.6823845  80.6593018  23.3434601  45.0396309  81.5428391
  24.0656147  44.9316635  80.2170105  78.6775665   0.8110775  54.9847374
  78.6870651   1.7535647  54.8178253  77.8533707   0.5085922  54.6033707
   0.2661283  21.1981487   8.1018600  -0.4209337  21.1758175   8.7679529
   0.8572144  21.8934422   8.3906784  49.7726402  63.0733643  81.2200546
  49.3936310  63.9115028  81.4848404  49.8252602  63.1251259  80.2657089
  20.0214996  52.4102097   5.4723821  19.1526871  52.0414619   5.3129420
  19.8589725  53.1777878   6.0206923  63.1001472  43.0978355  35.0806999
  63.6575546  42.3878593  34.7621689  63.2484360  43.1129646  36.0262222
  77.4049988  36.4432602  23.5545292  77.6139755  36.5450974  24.4830704
  76.4495850  36.4886894  23.5176697  16.0631618  45.2038918  60.1886978
  16.3262367  45.8742561  59.5581131  16.8722954  44.7338104  60.3900986
  80.2978134  53.2399063  54.4199753  81.2055893  53.1162453  54.1427002
  80.2017975  52.6730385  55.1852646   3.3896768  53.7919235  49.5875015
   2.7138329  54.4680595  49.6355591   2.9078984  52.9669991  49.6476707
  34.0261650   3.8638666  56.3688202  33.5606041   3.2703447  55.7795677
  34.9460449   3.6133215  56.2834663  20.5784302  60.0574837  40.2871552
  20.3731613  59.9821205  39.3552628  20.8568726  59.1781273  40.5429535
  34.3790359  58.8307533   7.1421084  33.6993332  59.4820175   6.9686356
  35.1025467  59.3334999   7.5162902  74.1419525  63.0716400  73.1143875
  73.6834869  62.3019066  73.4513550  74.3704300  62.8393898  72.2143402
  27.4771652   0.1066427  23.6448193  27.0107574  -0.1246176  22.8415661
  27.6825104   1.0360427  23.5434227  77.5698471  24.2808361  32.1163597
  77.5902863  23.3433743  31.9240551  77.8564606  24.3447533  33.0274010
  69.0371323  33.8854942  50.1617737  68.3032913  33.5617523  50.6841812
  69.5989227  33.1204453  50.0379791  83.6441727  55.2424240  35.2847366
  83.3997803  54.4149017  35.6991196  83.3047333  55.1729012  34.3924484
   1.9658784  66.4900055  61.8508949   2.4144664  66.0034332  62.5424500
   1.4521919  65.8286438  61.3872643  68.5446091  63.2719193   8.7019253
  68.6401825  62.4620514   9.2031364  67.8092575  63.1035805   8.1127291
  75.2871017  35.1734505   7.5614209  75.4007797  36.0220566   7.1334343
  74.5386810  34.7781105   7.1144276  70.6723328  71.0426331  13.5405130
  70.3343811  71.9247513  13.6951027  69.9636536  70.5916595  13.0815668
  44.1800423  26.5298538  13.1883106  44.0531235  26.7846012  14.1022177
  44.5894623  27.2934532  12.7814617  82.1063538  68.4872971  56.5150490
  82.3004150  68.0422516  55.6901207  81.1503601  68.4994354  56.5615196
  70.5900345   8.4325809  41.5066414  69.8156509   8.6593018  42.0215721
  71.3246155   8.5742140  42.1037712  68.5747757   9.5606155  53.2362709
  68.1945038  10.1458111  52.5811539  69.2242508   9.0498724  52.7529984
  10.7902174  68.5737152  16.4213047  11.4532261  67.9055328  16.2475700
   9.9564037  68.1109238  16.3387890  10.0168476   5.8908124  24.3469677
   9.1353369   6.1945662  24.1303940  10.5964060   6.5648208  23.9919224
  29.4655781  17.4730797  60.2888794  29.5635185  18.4046345  60.4859734
  30.0746994  17.0368843  60.8846474  11.8445692   3.7518795   0.5689360
  12.2255573   2.9748631   0.9779909  12.5955820   4.3121896   0.3733224
  27.9320087   4.4962716   7.6763515  27.0653286   4.6025391   7.2841730
  27.7580433   4.1495929   8.5514412  42.6409988  69.1421280  16.4792328
  43.0892143  69.9268265  16.7947941  43.0808372  68.4189682  16.9262390
  51.0273361   1.5554599  22.5868740  50.3800354   0.9648638  22.2016087
  50.5840034   2.4028151  22.6278458  23.9510117  24.1099339   6.6941271
  23.1593018  24.4012489   6.2418423  24.2926884  24.9003925   7.1120577
  51.5723190  16.7497120  21.7689838  51.9666367  16.0962772  21.1912575
  50.6407471  16.5299015  21.7786026  40.2500305  55.6435890   2.4925544
  40.3732185  56.4834099   2.0501108  41.0824318  55.4825859   2.9368768
   6.3608856  58.6035271   4.4101958   7.1942053  58.3317490   4.0255594
   5.7828417  58.7376595   3.6591263  48.3514023  42.0278549  79.5884171
  48.9842949  42.7281113  79.7475357  48.8872452  41.2446976  79.4628525
  51.0746269  22.2616730  30.1482124  51.1491547  23.1428795  30.5144806
  51.1350899  21.6810818  30.9068241  12.7447987  35.3367882  33.8078308
  11.8132238  35.1761742  33.6574898  12.7809162  36.2268906  34.1580353
  29.9178829  59.0084114  43.0715599  29.2087421  59.2061577  43.6833153
  29.9322910  58.0525780  43.0224686  44.6228561  50.1889496  10.7530947
  45.5470123  50.4326248  10.7002840  44.6269150  49.2317657  10.7488012
  42.3054810  15.9625664  74.9082184  42.8224449  16.0073128  74.1038666
  41.8046303  15.1509924  74.8261948  83.5811386  37.4674873  44.8990631
  83.2895126  37.7967987  44.0489235  83.6090927  38.2429390  45.4595299
  68.3959579  46.8194160  85.3808670  68.4528809  46.4164619  84.5144882
  68.2582932  47.7499428  85.2036591  75.1086349  69.2765656  66.0309677
  75.2543411  68.6810074  65.2959137  75.4392853  68.8014832  66.7933350
  17.8382587  61.1035957  72.7553635  17.9089336  60.2161140  73.1069489
  18.6912956  61.5000420  72.9325333  60.9578781  60.3043327  87.0013351
  60.3514824  60.9989967  87.2581482  60.5947838  59.9588318  86.1858444
  32.8027496   5.6732807  85.9770508  33.3766861   4.9128699  85.8842850
  32.5997696   5.7075353  86.9118500  77.4137115  12.4836931  59.3126564
  77.1224442  11.6116734  59.0462456  76.8351593  12.7181616  60.0382805
  65.7685318  56.7146339  41.8187218  66.3853760  56.4259987  41.1460953
  66.3228378  57.0199471  42.5368881  15.1743155  69.1373596  19.5694370
  15.9851847  69.4584427  19.1749420  15.4638815  68.5588531  20.2749271
  63.7285347  38.3930054  17.0452461  62.9693947  38.1159325  17.5582466
  63.9280434  39.2717209  17.3681774  37.6783295  55.1700439   2.5909479
  37.4160347  56.0424767   2.2971928  38.6256714  55.2330513   2.7126398
  28.6285782  64.7295532  26.1505985  28.2502022  64.1033478  25.5334053
  28.4296150  64.3656311  27.0132713  19.1102676  45.4208717  77.5341110
  19.9859085  45.1251030  77.7831116  18.7128048  44.6611061  77.1086502
   6.9461837   4.4664679  49.4719887   7.8965526   4.3523493  49.4691772
   6.6012883   3.6093407  49.2217636  28.9656296   9.0634460   0.4864166
  28.2439938   8.9995317   1.1120262  28.5679855   9.4356918  -0.3006942
  80.4750748  34.2377434   9.2448845  81.3888092  34.2090111   8.9611769
  79.9765320  33.9637604   8.4750652  62.6665077  19.4260139  26.5826092
  62.8138199  20.3427334  26.3498955  63.0843887  18.9300575  25.8785973
  37.6944771  12.4856482  79.5231628  37.9679871  13.3913174  79.3776093
  36.7380219  12.5183315  79.5043411  76.2547760  12.1764259  12.8548727
  76.7149963  11.3796186  12.5911922  76.7109146  12.8802576  12.3935757
  80.3388367  63.5276566  22.2562580  80.8609772  63.1511040  22.9646435
  80.4056549  64.4736328  22.3862209   5.8262739  64.1862946  84.3463440
   5.1538496  63.7839279  83.7966385   5.6908865  63.8001366  85.2116699
  52.2299042  67.9134598  40.7257576  52.0218048  67.8781509  41.6593933
  53.1865120  67.9241028  40.6938210  65.7290649  51.2068100  70.0073471
  64.8106461  50.9446564  70.0706253  66.0482864  50.7721024  69.2165451
   4.0317206  53.7018471   7.7397356   3.3041010  53.1667366   7.4227843
   4.4353013  53.1735916   8.4284306  12.7429123  69.6055145  57.3703537
  12.1880131  69.3281326  56.6413956  12.1290035  69.9340820  58.0271568
  83.7363052  61.2317772  58.3505821  83.2333755  60.5514030  57.9029465
  83.2188416  62.0284538  58.2332306  73.5466537  47.7608376  22.4502010
  73.1026611  48.1661453  21.7053318  72.9006882  47.1549683  22.8133545
  19.1261406  31.5676060  17.1190453  19.1406536  32.5225067  17.0543594
  19.0045662  31.3925800  18.0522213  82.8326416  13.1034584   1.0306668
  82.5532761  13.6166954   0.2725274  82.8165207  13.7241335   1.7591822
  85.2684631  30.6722641  45.5675316  85.1547546  31.3117695  46.2706223
  85.5093994  31.1964035  44.8036842   2.5002854  66.4633484  54.2364235
   2.8557556  66.1221542  53.4157791   3.2272775  66.9457550  54.6301270
  10.6661139   1.6643527  76.1884155  11.5013218   1.2018136  76.1197281
  10.0300417   0.9803692  76.3977203  78.6045456  16.9341850  17.8649426
  78.1057205  17.3627224  18.5604706  78.0445862  16.2127514  17.5782204
  58.3144379  71.3525772  79.4797134  57.9770508  72.2458267  79.4126205
  57.7156181  70.9151993  80.0849838  58.5010605  28.3051147  25.1662312
  59.3045807  28.4865131  25.6537571  58.7707176  27.6972942  24.4777012
  51.2198067  10.8171053  69.2128296  51.2249413  10.5855608  68.2840652
  50.8675461  11.7068310  69.2359085  58.5355453  15.5916481   4.0456266
  58.7509727  14.6713142   4.1966510  57.6058388  15.5857725   3.8179395
  36.0628929  61.3552589  47.7306900  35.5851593  61.3147278  48.5591583
  35.3970413  61.1943512  47.0621262  29.0156078  58.2480392  83.1534576
  28.2212524  57.8950500  82.7526703  29.5494480  57.4772758  83.3462601
  71.9580917   2.0393538   6.1482463  71.1181793   1.5825262   6.1939759
  72.0671005   2.4276743   7.0163217  34.5123634   1.5549335  81.8284149
  33.6666603   1.4377548  81.3956451  34.4159622   1.1057684  82.6681671
   5.9205470  49.3323860   0.3617955   6.3373871  49.7964516  -0.3642328
   5.9161720  48.4149895   0.0886699  33.9317207  63.2347145  32.6729279
  34.0326042  64.1817322  32.5769119  33.8588905  62.9094124  31.7756500
  66.0778580  34.3865433   4.9853959  65.9595108  34.4386635   4.0369716
  66.2319412  33.4575119   5.1568427  53.6567574   0.1644446  27.3397923
  54.3207855   0.5352534  27.9209976  53.3012009   0.9189512  26.8701859
  10.2130737  61.4111061  30.9406090   9.6621380  62.1907768  30.8712120
  10.6779203  61.3711395  30.1048145  58.1956787  63.9884949  79.5281906
  58.1952820  64.3269043  80.4235687  57.5134468  63.3170891  79.5255966
  10.4535789   7.3887434  30.2478123  11.1574154   7.3848987  29.5990963
   9.9918776   8.2132635  30.0953999  20.8356342  53.0918121  45.4956017
  20.0653286  53.6264114  45.6881256  21.5766296  53.6832924  45.6271744
   1.8218343  25.2896442  34.7126656   2.1171606  24.5120430  34.2390060
   2.3936565  25.9912968  34.4013214  69.6543198  64.2976379  42.9017105
  70.2975388  63.7092552  43.2970734  68.8139877  63.8598938  43.0375404
   3.8519673  59.6294022  44.2836533   2.9764254  59.7471390  44.6521568
   3.7371740  58.9698715  43.5994911  58.0520439  51.1165466   3.1384718
  58.2776604  50.8100090   4.0167441  58.8445015  51.5533562   2.8263185
  77.9663239  20.7134209  28.4674110  78.0307388  20.5340767  27.5293713
  77.1856079  20.2367306  28.7493362  58.1579247  54.8589287  44.2489052
  58.6809578  54.6818542  43.4670410  58.2057571  55.8085632  44.3590546
  72.1386566  27.0534744  15.7970104  71.9155579  27.9568501  16.0214424
  71.4002151  26.5370941  16.1199322  33.0467262  38.5833092  83.3528366
  32.5308723  38.2582054  82.6149750  32.4558029  38.5226212  84.1034088
  55.3352013  59.3326302   5.4489303  55.0865173  58.6239624   4.8554811
  56.2283440  59.1175766   5.7177863  31.3148327  60.1613541  49.6422615
  31.4741650  59.3973465  49.0880585  30.4095879  60.4090958  49.4541473
  14.2550259  37.0824738  11.9608917  14.3798113  37.0593529  12.9096422
  14.4854898  37.9772034  11.7107372   9.4275017  46.4375496  74.1123810
   8.7732420  47.1339188  74.1693573   8.9199400  45.6461678  73.9325867
  42.7838326  65.3148422  11.9187231  42.8286781  65.6789093  12.8028488
  42.1304207  64.6180038  11.9795017  59.1784210   6.0901837  75.5022964
  59.0129967   5.1500750  75.5734482  58.8751068   6.4504895  76.3356094
  68.8262100   8.3326044  37.3698807  68.1579361   8.8336916  37.8373680
  69.6317673   8.8348322  37.4926910   8.6336412  69.8615265  83.9834366
   8.1566248  70.2521667  84.7156143   8.7760248  68.9526901  84.2479706
   3.4944839  65.1689301  52.2099648   4.4220414  65.0540085  52.4165115
   3.3953521  64.7922668  51.3355904   3.4150712  58.7906036  31.2001076
   4.1073070  58.3130722  31.6572800   3.8575785  59.5508652  30.8227177
  26.7828217  57.4944191  84.8329544  26.6393013  57.2751694  83.9123230
  27.7173347  57.3415031  84.9727097  62.6623650  65.0390396  38.1407471
  61.7104683  64.9386749  38.1338348  62.9930077  64.1713638  38.3731995
  77.6645660  14.5791426  35.3088913  77.4276505  14.8916883  36.1820564
  78.3445053  13.9238310  35.4653816  30.8029919  63.1439133  30.2457447
  30.3592491  62.6102982  29.5865173  31.2977219  63.7879868  29.7391510
  36.4864960  35.1681557  86.9153519  35.7722206  35.4326019  87.4951096
  36.3151283  35.6334000  86.0965652  70.0180969  55.9051743  74.3303070
  70.5090179  55.6106415  73.5631790  69.7010498  56.7762833  74.0918121
  44.3110085  51.1868553  62.1537323  43.3569221  51.2526474  62.1939468
  44.5707245  50.9280243  63.0379219   8.3598251  71.1823730  31.2979507
   7.4485488  71.3998260  31.4942169   8.5573816  70.4402618  31.8693333
  18.3529682  34.4680939  84.5231400  18.3804531  35.4112053  84.6844406
  17.7311802  34.3663673  83.8025436  22.9677219  53.3744392  36.6686325
  22.0182915  53.2840843  36.7501640  23.0877151  54.1189651  36.0791283
   5.1160569   2.7999685  15.6770115   5.0405645   1.8991710  15.3622150
   6.0569854   2.9372985  15.7866735  19.3256664   4.5917320  62.9350166
  19.2222137   5.4062710  63.4270096  19.9020500   4.8233547  62.2067566
  20.4787712  55.2669983  30.5660496  19.9151287  54.8180389  31.1961079
  20.5227661  56.1687431  30.8840923  26.9046459  18.3884869  35.1171494
  27.3007183  18.7814808  35.8949127  27.5149155  17.6969662  34.8610191
  80.3840942  65.6969452   2.7573395  79.9570923  65.9122849   3.5865099
  79.6869125  65.3220673   2.2191634  46.8758812  16.6720810  44.4262161
  46.3660507  17.4376030  44.6913261  47.4202423  16.4714737  45.1875687
  12.8572769  16.3961639  82.6546707  13.6109238  16.9077816  82.3605728
  12.3006649  16.3223534  81.8794479  30.9736462  62.1728745  25.0662804
  31.6418343  62.7082405  24.6383305  30.1529293  62.4361801  24.6499577
  72.3773041  16.4425201   7.3618317  73.0057526  17.1564465   7.4695301
  72.1466064  16.4645710   6.4331102  16.3159046  56.7548714  27.4518871
  15.6823730  56.0419579  27.3705120  15.7804852  57.5370255  27.5852928
  21.9195614  53.3740578   3.7639823  21.4184284  53.3653145   2.9484935
  21.3604641  52.9188004   4.3935714   2.0688446  18.5176010  86.4664688
   1.7856776  17.6637363  86.1394119   2.9907324  18.3938427  86.6923828
  70.0201569   5.4901195  71.6767426  69.3977203   4.9456353  71.1947250
  70.8061829   4.9486594  71.7489853  75.9782944  11.6939802  17.0269222
  76.1715012  10.7595062  16.9516792  76.2386856  11.9212828  17.9195366
  83.7312851  59.5126381  50.4137115  84.6384277  59.2769241  50.6080208
  83.3053207  59.5518150  51.2700119  12.7686691  41.7850227  24.9411411
  12.0948696  41.5543442  24.3015976  12.5543575  42.6805954  25.2023849
  70.9087143  60.0029984  41.4860535  71.8408813  60.1365585  41.6576843
  70.8164444  59.0552101  41.3889961  26.5397644  70.7237320  77.7858200
  25.7025795  70.6412735  78.2425003  27.1850147  70.8268204  78.4852905
  14.8627396  33.5985222  34.6397209  14.0177555  33.8381233  34.2591591
  15.4691362  33.6039200  33.8991203  15.8791599  18.8088264  65.1102753
  16.5260658  19.2621861  64.5697098  15.2357903  18.4754372  64.4848480
   7.5233321  27.5011635  28.6502476   7.7652583  27.8652306  29.5018082
   6.5722852  27.6011429  28.6084671  27.1557293  25.9375992  87.7658005
  27.3546753  26.3995399  88.5802078  27.7329330  26.3384838  87.1159058
  36.1974106   6.3619537   6.8570714  35.2405548   6.3859167   6.8662744
  36.4583359   7.2708101   6.7083163   2.9893715  59.8569450  73.3784027
   3.3350837  58.9788551  73.2181625   3.5867255  60.2355042  74.0234528
  78.8793030  54.0871353  40.5348282  79.1558151  53.5012741  41.2394829
  79.6580505  54.6070480  40.3361511  25.0813465  52.1014442  13.8781433
  24.7589207  52.2777786  12.9942999  25.3518333  52.9576836  14.2096872
  29.6155777   3.5689557  14.7477083  29.8641815   3.6138480  13.8244467
  29.3934956   4.4705772  14.9800653  64.1916656  66.9614944  83.4502945
  64.8419266  66.4344940  83.9146805  63.9889488  66.4539413  82.6644669
  72.9005432  23.3243179   3.1619096  72.0266418  22.9395409   3.2288363
  73.4887314  22.5722980   3.0931158  66.4426041  38.0510330  68.3590622
  66.2413788  38.7182541  67.7028961  67.3356094  37.7744865  68.1533890
  33.7899132  52.6007462  19.5729694  33.1859741  52.5333939  20.3125343
  33.6964340  53.5035210  19.2688541   7.3313756  66.5385818  37.1072426
   7.7101088  67.4166946  37.0660019   7.7588320  66.1284485  37.8591080
  75.3133087  39.0076523  47.7607384  75.5421829  39.5429192  47.0009117
  74.9962616  38.1851807  47.3875656  54.9949799  39.6482506   4.1131201
  54.2535477  39.0682182   4.2865338  54.6699142  40.5228691   4.3266668
  10.9624596   4.0909595  85.8770676  11.4092426   3.3956890  86.3599930
  10.2885666   3.6365118  85.3715210  41.5201492  26.2429695  17.3417377
  40.7315102  25.9150944  17.7739162  42.1349220  26.4062996  18.0570087
  30.1622124  18.5157566  27.9270725  30.7842255  19.0626240  28.4069347
  29.3029919  18.8606701  28.1699848  85.0544510   8.9939957  54.2070160
  85.1099777   8.3133650  53.5362778  85.9528275   9.0937405  54.5219765
  60.2507744  15.1778517  60.4975319  59.4506836  15.1729383  59.9721146
  60.2531815  14.3281002  60.9381523  54.3709908  18.4545269  25.1682682
  54.6659431  19.3156300  25.4644756  53.5102615  18.6160202  24.7818775
   5.6830502  62.0078049  59.0449638   6.5003915  62.4391594  59.2942009
   5.8244901  61.0853424  59.2577858  65.9854584  69.2274399  81.2870560
  66.3235397  69.6088562  80.4768372  66.4850693  68.4185028  81.3976822
  77.7098083  15.6127987  78.9775620  78.4405212  16.1271706  78.6344757
  76.9292450  16.1000938  78.7139206  33.9060822  10.3909178  38.0032196
  34.5048409   9.8451014  37.4935112  33.8071709   9.9263716  38.8342705
   1.0511353  61.4538612  82.3092651   1.5813224  61.0404053  82.9905777
   1.2471019  60.9539146  81.5168762  41.2158775  63.3720284   8.6939383
  40.5068359  62.7829208   8.4361773  40.7746925  64.1024551   9.1275997
  20.5657654  46.4954262   1.5078222  19.8418598  45.9172058   1.7483512
  20.1477013  47.2251892   1.0507653  19.0836582  60.6927261  38.0078125
  19.4160137  61.5446815  37.7250671  18.8622150  60.2399483  37.1940651
  52.3076096  54.3924675  63.0877800  51.8024368  53.7740250  63.6155739
  53.0824165  53.8996429  62.8175392  37.9346771  46.2643547  17.2538738
  38.5570145  45.7988510  16.6950970  37.3038063  46.6460762  16.6435261
  66.2346268  17.0185680  19.3849945  66.4131012  16.4789047  20.1551533
  66.3602676  17.9177227  19.6882534   7.7435994  34.8015404  86.5036392
   7.9036164  33.9226913  86.8475266   8.5388060  35.2902412  86.7158890
  43.9232254   1.0167838  28.0184231  44.4317665   0.3415828  27.5692883
  43.8183937   1.7105060  27.3672752   5.6478457  42.0003319  24.8650017
   5.3719268  41.9146805  23.9524422   6.6042609  42.0053673  24.8265781
  37.9871941  11.6728659  24.9030437  37.7297440  11.1304426  25.6485176
  38.1829491  12.5282288  25.2854919  36.9349518  70.1146164  41.8235016
  37.0761681  69.9599686  42.7575111  37.8069725  70.3049850  41.4777145
  78.5282669   4.1840611  11.3154182  78.3255768   3.9848685  10.4013758
  79.1992340   3.5454326  11.5566244  47.6547623   2.6577744  78.9649658
  48.4751053   2.3015501  78.6238327  47.8282280   3.5922761  79.0783157
  84.2179794  64.0272446  14.1053457  83.5452576  64.5339432  13.6504374
  84.7600021  64.6852264  14.5406561  15.0654707  67.2522278   0.3341801
  14.7654104  67.1130829   1.2324202  14.3258381  67.6744690  -0.1027206
  30.1467590  12.8483324  21.4508133  30.2954559  12.2328873  20.7329350
  30.8448238  12.6583958  22.0775986  76.1582870  15.0115948   6.3766160
  76.1468658  15.7506075   6.9848614  76.8818207  15.2035542   5.7800531
  26.6984158  33.2195091  37.1213760  26.8583641  33.3035278  36.1813812
  27.4655170  33.6189842  37.5315056   4.8643184  25.7456207  53.5597534
   4.1866241  25.4732876  54.1784592   4.7441730  26.6913605  53.4738846
  10.3075809  27.1128616  48.7083168   9.4658594  26.6911240  48.5354691
  10.4882946  27.6201305  47.9169540  70.3285141  25.0944786  46.0981331
  69.4751358  24.7983398  45.7814598  70.8984375  25.0471039  45.3305588
  83.2245255   3.2391577  16.6305313  83.9800873   3.8182435  16.5304241
  82.9036179   3.1077228  15.7383556  59.5129852  27.9892406  44.0053635
  60.2023239  27.3278446  43.9453659  59.3071976  28.2039280  43.0955353
  56.0241547  60.3413544  50.9511719  56.2612419  61.2279396  51.2231750
  56.4822006  59.7709007  51.5684319  69.3377838  60.8962288  32.6912766
  69.2789307  60.0763893  33.1818161  68.5378571  60.9190559  32.1660843
  73.8983994  59.2710342  87.6603317  73.2531357  58.8265533  87.1105118
  73.4654999  59.3657646  88.5087738  57.3829155  37.4202614   9.4824467
  57.2246017  36.5113869   9.2272701  58.3010139  37.4367027   9.7527361
  67.8311081  35.8030624  48.3222160  67.1946716  36.0730209  48.9842606
  68.3317719  35.1037521  48.7423744  29.4482670  14.1502161  61.3966446
  30.0986996  14.1168375  60.6951790  29.5616169  13.3247824  61.8678551
  51.6318321  29.2402821  81.8592987  50.7933540  29.3633347  81.4142761
  51.8787460  30.1175976  82.1518402  31.2548351  57.5152931  18.7137947
  30.6867352  58.1396446  18.2624817  30.8454781  57.3949928  19.5706406
  76.0466385  43.5065041   8.8579893  75.3614578  43.5379219   9.5256481
  76.4122543  44.3910713   8.8481960  52.3989639  12.8015242  26.9345570
  53.3173447  13.0050945  26.7574368  52.4072189  11.8887424  27.2226429
  24.5875225  10.1803761  60.5118675  23.8818111   9.5636911  60.3171806
  24.6716061  10.7068853  59.7169151  71.4357834  36.7842941  65.7849274
  71.3391266  35.8366203  65.6911163  71.7423325  37.0798149  64.9276505
  46.2567368  31.7716885  15.5326900  47.1459770  32.0588760  15.3253031
  45.7687416  31.8966560  14.7187653  38.0745621   1.4983956  44.2158012
  37.4046593   1.0818332  44.7579613  37.7087364   1.4859459  43.3313522
  86.6468582  23.8662338  14.2675409  86.3231201  24.3180637  15.0468206
  86.7502594  24.5586834  13.6148129  25.8756771   2.6347182  87.2643738
  26.6591091   3.0094275  86.8618088  26.0848656   1.7075938  87.3779984
   1.0372338  13.2379942  27.5649281   0.8241820  13.7467337  28.3472481
   1.9315375  13.4993277  27.3454800  53.9324303  70.1640625  33.2367783
  53.2506828  70.5519714  33.7853928  54.3308754  69.4917145  33.7894249
  82.6818542  29.9362698  65.8758011  83.0491104  29.1915092  65.3996887
  82.1258545  30.3795605  65.2350235  46.1156845   0.8873703  67.5208130
  45.7446899   0.8382813  68.4018326  45.3858757   0.6692963  66.9411163
  79.3457031  57.3683701   9.4199009  79.4667130  56.6358414   8.8157558
  79.5432968  57.0028114  10.2821980   6.3705249   6.3480997  66.2546082
   7.0339322   7.0221291  66.4022751   6.8573408   5.5242071  66.2756653
  20.6162491   6.8655534  34.3844604  19.9827042   6.1713228  34.2030869
  20.1058903   7.5474076  34.8213120  70.4873810  36.4905586  25.8943024
  70.8897018  37.0383263  25.2202702  70.1438675  37.1130028  26.5352402
  82.9062119  36.2824898  25.3651295  82.8969421  35.4666176  25.8656273
  83.3097610  36.0465012  24.5298481  21.4711781  21.3588886  77.5473633
  21.6028919  21.9582119  76.8127213  21.6521835  21.8884544  78.3239136
  58.8437271  43.5089111  20.9684544  58.5846519  42.8843575  21.6459827
  59.1114655  42.9629669  20.2292023   1.6157919  51.6767769   1.1550200
   0.7278451  51.4114265   0.9154972   2.1642950  50.9345741   0.9010281
  58.4818230  13.6823444  70.5824280  58.1269379  13.8031778  71.4631577
  59.0839005  12.9429398  70.6661682  35.9782562  47.3014717  85.3130569
  35.4253426  46.9507217  86.0112610  35.9073029  46.6599197  84.6062241
  59.5207977   8.3542786  29.4391098  59.4279366   8.7227459  28.5605640
  60.3392982   7.8591185  29.4058743  67.6611176  32.2575073  79.0230865
  67.1998749  31.4615803  79.2876358  67.0720520  32.6789017  78.3972549
  81.0301590  68.4449921   4.6650319  81.4438782  68.2901306   5.5142021
  80.2827377  67.8471909   4.6501689  83.7199860  52.9415855  24.3977108
  83.6518097  53.4799194  23.6091785  83.3234634  53.4747467  25.0867252
  47.4064674   8.1333084   1.6094738  48.3380852   7.9958401   1.7809980
  47.0047302   8.1619368   2.4778163  68.5758591  12.5046825  65.3005753
  68.9266205  13.1427794  65.9218903  68.1507034  13.0351973  64.6267624
   2.5768912  25.5081081  58.1980362   2.7899859  26.1679821  58.8578758
   2.6839349  24.6722088  58.6519547  81.4761429  42.2761383  79.2558212
  82.1801910  41.8137932  78.8010864  80.6856613  41.7820396  79.0384827
   8.8569717  49.4572601  81.5843124   8.8338614  48.9161720  80.7950592
   9.7344742  49.8396416  81.5869446  71.8414307  49.7785454  49.0341339
  71.2823181  50.5511856  49.1157112  72.7097626  50.0822563  49.2986794
  39.4508476  60.7783775  82.7218323  40.0462189  61.0288429  82.0154037
  39.4882126  61.5104294  83.3374100  19.3239937   0.1720815  38.7103424
  18.5719395   0.5810105  38.2820587  18.9480705  -0.5446788  39.2213860
  18.0965652  64.8412857  69.0687027  18.6159325  65.3786316  69.6668243
  17.3866863  65.4170837  68.7845230  50.6986427   8.9263182  44.0756302
  50.2942200   8.7934494  44.9329643  49.9713440   8.8678436  43.4560738
  49.8294334  59.4561691   6.0946903  50.0122185  60.2010765   5.5220342
  49.0023346  59.6795349   6.5215912  30.0291500  68.3137817  74.6550674
  30.2692909  68.0495300  73.7669601  30.8567276  68.3169556  75.1360397
  14.6427670  32.7650337  66.9038086  14.6697016  32.5234604  67.8296356
  13.8328152  33.2665520  66.8106003  50.0459595  65.5958710  53.2438622
  50.7542267  66.0563431  53.6939163  50.4893265  64.9310150  52.7169609
  80.4660034   5.7326756  78.5867538  80.8018646   5.7156792  77.6905670
  81.2413177   5.6138358  79.1353836  39.4896126   8.4171200  57.2282143
  39.6436157   8.9497023  58.0085182  38.5860596   8.6121292  56.9796333
  36.2006836  25.3377018  28.2018719  36.3726883  24.8209248  28.9890099
  35.2908936  25.6202812  28.2949429  67.4487915  34.2206917  39.4804726
  67.6115036  34.6084023  40.3403778  68.2191010  34.4545746  38.9626427
  82.3617783  66.3161926  57.9390945  83.0161972  66.1151581  57.2701035
  81.9925690  67.1567001  57.6680412  14.8698797  30.2548027  86.3924484
  15.4488754  29.4944057  86.4452972  14.7709084  30.4157238  85.4540787
  45.0557938   0.7812125  36.9881210  45.3007355   1.6002433  37.4187279
  45.4458961   0.8430378  36.1162109  13.5185041   7.7228599  60.5068588
  14.1432171   8.3837967  60.8054047  13.1016836   8.1162529  59.7402229
   4.5461674  60.5519981   6.0211792   5.1548891  59.8549194   6.2656527
   4.6093874  60.6015778   5.0673571  10.8951101  29.6419277  29.6181278
  10.3126183  30.0217953  28.9603767  11.1633692  30.3851776  30.1583595
  61.7297363  70.9369659   5.7037201  62.6438141  70.8890457   5.4237256
  61.3048363  70.2022476   5.2611375  33.6615753   7.2963614   6.0868878
  33.1788177   7.6441817   6.8366866  33.0829811   6.6288605   5.7182403
  68.0854340  32.6944809  57.7302895  67.8194427  31.9606094  57.1762886
  68.1348801  33.4403229  57.1323738   4.6041503  31.3094177  17.9420528
   4.1818719  30.6736603  18.5197430   5.4268785  31.5233536  18.3820324
  17.3901215  11.8634491  36.2188644  17.6983204  11.0744019  36.6645660
  17.4226704  11.6411362  35.2884102   7.4679127  22.3026276  21.2549667
   7.0790334  22.4283791  22.1205235   6.8330541  21.7635460  20.7831841
  60.2047005  11.5250874  35.9399071  60.3320732  12.4480419  36.1593666
  60.9748230  11.0848846  36.2995796  67.9937820   1.5190803  36.4680939
  67.2800369   2.1509500  36.5549698  67.8282166   0.8746271  37.1562080
  82.2121201  35.1295280  68.2900391  83.0432663  34.7887497  68.6206589
  82.1051636  34.7121582  67.4352951  52.7500610  13.0865631   4.1856151
  52.7230034  12.1445131   4.0181589  52.3251839  13.4778128   3.4223089
  21.8364182  19.4106541  -0.0747837  22.0207958  19.2311096   0.8471711
  21.8117714  18.5469780  -0.4867162  78.4307251   1.1386890   5.9138703
  78.9861221   0.3638020   5.9994192  78.7526627   1.7394930   6.5858984
   1.4173931  18.4604740   4.2721968   0.5815830  18.2370319   3.8626521
   1.2892051  19.3468685   4.6099944  42.4150276  31.8792591  25.6356392
  42.8353653  32.1871834  26.4385910  42.2885475  30.9409180  25.7761688
  61.9201584  56.2145653  10.6525650  62.1882896  55.4473000  11.1581726
  61.0483704  56.4279480  10.9852610  56.3093376   8.5576677  18.8804588
  55.8767548   7.7429476  19.1360683  55.9006462   9.2279015  19.4281731
  23.4532166  55.5469093  12.5582552  22.7300587  55.6892891  11.9475155
  23.0303688  55.4481735  13.4112988  70.0981369  59.7491951  28.1387920
  70.5553741  59.4092255  27.3696461  70.7974930  59.9858932  28.7479858
  37.4174156  17.1857777  47.4525642  37.2816277  18.1322975  47.4960518
  36.6823616  16.8156509  47.9413681  61.2559357  48.0538750  79.8402252
  61.3492317  48.2939186  78.9183197  61.3320503  48.8829765  80.3124847
  13.2946234  49.4333916  38.6711082  13.0868664  48.4990082  38.6703491
  12.6453123  49.8226471  39.2568626  74.2522659  16.1264248  57.5657997
  75.1879654  16.3281765  57.5666695  74.2058792  15.2063284  57.3059883
  25.0400238  15.9087896  28.5983391  25.9905128  15.9959126  28.6705189
  24.8957100  15.5898380  27.7074547  71.6026230  12.3749866  27.1084442
  72.4283371  12.1415167  27.5326138  71.0678101  12.7432032  27.8117352
  26.3137512  63.3964653  35.4920921  26.7124271  62.7854156  36.1116943
  26.3456860  62.9399910  34.6513519  21.9907818  33.6676674   4.7219377
  22.6070366  33.8381081   4.0096087  22.4291058  33.0138283   5.2665439
  67.1149597  32.3961143  31.1230373  67.2609100  32.4100037  32.0689430
  66.9429474  31.4764919  30.9207077  33.4473763  49.1444206   8.6850624
  32.9872475  49.8259201   8.1950941  34.0750237  48.7821770   8.0597048
  80.7953339   4.9614058  60.5975037  80.4810944   5.1604886  59.7155457
  80.6512985   5.7688241  61.0910225  64.4995422  37.4971962  26.1120090
  65.3877487  37.6895790  25.8114967  64.4561005  36.5412445  26.1345234
  77.1255264  40.3765755  61.4046478  77.9945755  40.3604698  61.8055534
  77.2557831  39.9979362  60.5352249   6.7600474   2.0451431  35.5628319
   7.0677357   2.9276164  35.3559494   5.8165998   2.1442442  35.6905746
  64.5073624  67.3712845  89.3225403  65.3833084  67.4584732  88.9465714
  63.9494820  67.1418152  88.5793457  61.8844528  54.9798088  76.9683228
  61.5373573  55.8271790  77.2471008  62.1365318  55.1131172  76.0545883
  58.9863739  50.8479881  30.3844223  59.5684128  50.7640877  29.6291599
  58.1065521  50.8667412  30.0078602   4.5859175  49.2306137  41.5570450
   3.8390112  48.8964729  42.0537491   5.2392073  48.5329056  41.6084900
  77.0504456  32.9877510  81.0024643  76.1716309  32.6857491  81.2320480
  77.2754059  33.6147881  81.6898117  42.2048149  68.3014984  60.3377457
  42.9294739  68.0954819  59.7472763  42.0277977  69.2296906  60.1849174
  61.6494827  11.3856106  68.6234283  61.5770302  12.3038731  68.3630829
  61.0368729  11.2945185  69.3532486  18.2259350   1.1433609  76.6823502
  17.5339260   0.4846675  76.7413254  18.4850883   1.1366590  75.7609253
  62.4110947  23.6736794  76.2297287  62.5858536  24.0172329  77.1058960
  61.5392456  23.2839603  76.2947769   0.1052443  35.5718536  67.2574081
   0.4594169  34.8625450  66.7210541   0.5414162  36.3591766  66.9316635
   1.3675302  64.8594818  86.3783875   0.6832472  65.5288010  86.3770599
   1.8268147  64.9848633  85.5479813  68.7490540  42.3404083  74.9430923
  68.4861832  41.5477371  75.4108582  67.9437561  42.8523407  74.8679276
  76.4810944   0.5633996  12.8389931  76.3486023   0.6149776  13.7855749
  75.9095764  -0.1502793  12.5556860  86.3316498  71.5321274  43.2237434
  87.1381378  71.3220749  43.6945801  86.1681824  70.7652740  42.6747055
  29.3497028  55.3217773  40.5086708  29.7156658  55.7623291  41.2756233
  28.6123104  54.8169174  40.8516045  44.5571518  65.9012070  78.2500229
  44.3891602  66.4351501  77.4735489  43.6931152  65.7656250  78.6389847
  60.8161430  12.2401953  61.0066757  60.4344215  11.4880190  60.5541840
  60.3242455  12.3020544  61.8254776  28.8817329   0.2270009  85.7439499
  27.9733276   0.3392376  86.0240097  28.8601437   0.3704591  84.7978058
   5.2600975  43.5253792   5.4254465   5.9412928  43.4221878   6.0899439
   4.4722929  43.1643600   5.8319716  49.1623611  36.2356682  62.3455467
  48.3792992  36.7673721  62.2029305  49.8907356  36.8232346  62.1443748
  48.1005592  32.5839691  88.0607300  47.7328300  33.2975388  87.5393600
  48.7916489  32.9970589  88.5783997  66.7254639  40.7076340  84.2912521
  67.3703766  40.8705673  84.9795609  67.2242432  40.7681084  83.4765167
  24.3003540  16.9278755  34.4391212  24.2183723  17.1132469  33.5036278
  25.0467510  17.4554691  34.7233238  83.8842850  58.9732285  35.5085030
  83.9693146  58.2355537  36.1125183  83.4359436  59.6488533  36.0171852
  82.0471497  12.2907734  71.8761597  81.8908081  12.1177788  72.8045197
  81.4444504  11.7046604  71.4184952  81.0013351   3.4892037  35.8312950
  80.4639664   3.2760651  35.0683823  80.5258026   3.1128695  36.5718880
  72.8164902  30.1290398  46.6854362  72.3260574  29.7734585  47.4265671
  72.2889252  29.9041080  45.9190712  83.5355301  54.7889366  26.4288597
  82.7988434  55.2191887  26.8629227  83.6072998  55.2319374  25.5833836
  13.2291527  53.6925850  33.2454910  12.9916582  54.2950821  33.9503517
  13.6418657  52.9529915  33.6914787  79.1114273  69.2201843  68.7246933
  79.1629715  69.9656754  68.1265182  78.5161743  69.5088882  69.4164658
  52.4348869  43.6797905  15.0934563  53.2836418  43.3036537  15.3266220
  52.4644852  44.5713158  15.4406376   0.5158732  65.0073624  65.2704163
  -0.3643772  64.7600555  64.9871750   0.3885280  65.8119507  65.7730637
  49.2067909   3.4918289  25.7213249  48.3232574   3.1435952  25.8410683
  49.2204933   4.2946086  26.2424679  75.4637985  55.0622406   1.0934348
  75.6922607  55.9054375   1.4846568  75.2636032  54.4980507   1.8403246
  36.6952057  54.1738625  73.7808456  36.5375366  54.1593704  72.8368301
  37.5002022  53.6691589  73.8969955  75.4753036  13.5105038  33.9503212
  76.2095184  14.0536842  34.2368698  75.5530396  12.7097521  34.4689598
  63.7847366  19.8417377  55.1722221  63.8629990  18.9231949  54.9145699
  63.1196556  20.1996155  54.5841522  46.8705711  25.6410275  27.0115299
  46.7298889  26.3226719  27.6686459  47.0228729  24.8450642  27.5209198
   5.0954499  54.7588272  87.7051392   4.6949725  54.3642654  86.9304352
   4.8367233  54.1856232  88.4267502   0.9914990  63.7506866  37.2079163
   0.7608947  63.7073364  36.2799225   0.3724137  64.3791199  37.5794487
  23.5102386   7.9000177  28.3429241  22.8249168   8.4627895  28.7032757
  24.1109905   7.7560377  29.0740871  34.6609192   9.5276127  18.9086151
  34.1335030   8.7661648  18.6672382  34.3113403   9.8020954  19.7563686
   0.5570601  29.1475487  77.8207245   0.5590805  30.0526638  77.5092850
   0.0907726  29.1826801  78.6559296  21.4658527  69.1532135  22.4273796
  21.1103230  69.5968781  21.6573219  20.7174301  69.0596542  23.0167389
  11.2207994  38.9566765  31.5011997  10.9350758  39.6018257  30.8543816
  12.1677990  39.0819550  31.5622730  21.6832256   4.9740024  82.0091324
  20.9704514   4.4058895  82.3014221  21.3889732   5.3114467  81.1631012
  21.7949219  17.5657387  17.0623436  22.5448265  17.7496033  16.4965973
  21.0533543  17.9769669  16.6182728  19.4081287   1.5727051  74.2303772
  20.2393017   2.0427382  74.1636429  19.4770126   0.8711945  73.5827942
  73.1540375  32.1187706  56.9885254  73.3728180  32.6218681  57.7729073
  73.9846115  32.0309296  56.5209160  80.3573761  65.5681305  84.8100433
  79.7941132  65.0645676  85.3977509  80.2298965  65.1641846  83.9516678
  35.0403252  62.3078575  17.3209362  34.4656792  62.4836998  18.0659828
  34.4479294  62.2412872  16.5720253  19.2425823  59.1400299  77.4498978
  18.3762589  59.5391083  77.3695908  19.6033630  59.5108109  78.2552490
   1.2495401  19.6680393  55.2317581   1.7317983  19.1620979  55.8857346
   0.8796625  19.0091152  54.6441841   5.7219386  66.2207336  80.3922958
   5.8045850  66.2004013  79.4388885   5.0419869  65.5759354  80.5875702
  70.1898422  55.4603004   8.2849560  70.8452301  56.0878258   8.5897722
  70.3609238  54.6685524   8.7949553  82.3123398   2.3319690   0.1570376
  81.5626907   1.7934564   0.4105245  82.7797089   2.4929245   0.9767274
   7.0218024   5.4437685  70.7628250   7.4865642   6.2804875  70.7514572
   6.1170702   5.6751642  70.9729385  17.3592529  52.4555054  62.1434212
  17.7939262  52.5290794  61.2937889  16.8789959  51.6288681  62.0959740
  37.9167633  14.9437780   0.5594946  38.1098824  14.5833445  -0.3059677
  36.9831543  14.7749386   0.6863846  61.5411530  18.8105659   8.3044977
  61.9869423  19.5604382   8.6984482  61.0444450  18.4218559   9.0245104
  14.9200668  26.6767883  62.2164040  15.5876160  26.0440407  61.9513702
  15.3914318  27.3093033  62.7585945  39.9624557  60.8354263   5.6392961
  40.9122086  60.9507637   5.6693163  39.7561989  60.3398399   6.4318123
  54.1662750   3.9398348  18.3815861  54.9799042   4.1656237  18.8324261
  53.4785309   4.1269689  19.0205097  64.3359451  39.7686462  80.9434052
  65.1901169  39.7189102  80.5142746  63.8244705  39.0667686  80.5409241
  27.9189873  37.7529831  11.4279861  27.2772408  38.4571991  11.3359327
  27.5889034  37.0529938  10.8646994  60.0330086  60.0957222  11.3327951
  59.8445778  59.1572647  11.3375683  60.6304016  60.2238197  12.0696421
  74.2651978  29.1259975  49.9930687  73.9826050  30.0368271  49.9108467
  73.4570770  28.6174622  49.9255257  66.6708832  68.6126785   5.5446310
  67.1719818  67.9531021   5.0649509  65.9020309  68.1420517   5.8665099
   8.4662762  47.1254845  13.9026117   9.2508984  47.0760345  13.3565760
   8.6950293  46.6399155  14.6951551  54.4229965  65.4160919  74.0365524
  53.7556419  66.0977020  74.1157684  55.2543526  65.8873596  74.0912170
  16.4411564  69.3781128  43.5955124  16.2019768  68.9549026  44.4200821
  16.5262928  70.3051987  43.8179932  56.5425072  53.3989792  29.3422146
  55.6015205  53.5743942  29.3394699  56.9064789  54.0538177  29.9379902
  71.3199692  29.8369083  57.5098305  70.9657516  29.1640491  56.9284325
  72.0897751  30.1705360  57.0490417  11.9558516  47.2682800  14.1561031
  12.8540583  47.0334778  13.9230261  11.5257368  47.4323883  13.3168764
   5.2432499  20.4240494  75.2632217   4.5706468  20.5646400  75.9296036
   5.4429216  19.4895039  75.3178864  24.6649647  60.9472046  81.8387222
  24.6221466  60.0431061  81.5272675  24.7320461  60.8697510  82.7904282
  30.6786251  51.7553558  32.0969963  30.3968410  51.4476128  32.9584618
  30.6107864  52.7087212  32.1492538  32.3900986  14.8299637  82.0684738
  32.1972809  14.0876694  81.4957123  33.2832031  15.0852051  81.8373032
  60.9129448  67.1811905  58.8665009  61.0304260  66.2556915  59.0806770
  59.9992104  67.2488098  58.5894623   3.4349298  58.3020782  27.0410423
   3.9046371  57.8776855  27.7590237   4.0937228  58.8502808  26.6147804
  28.8040428  62.4864693  12.0929661  29.3787498  63.1208153  11.6645422
  28.6264534  61.8306122  11.4187660  64.7437973  11.0406742   3.0988941
  64.3406525  11.9073563   3.1495411  64.2663651  10.5949535   2.3991640
   1.2460244  49.1821976   6.1011786   0.7829763  49.3123055   6.9287596
   2.0543230  49.6858444   6.1972318  19.4390640  34.2199478  16.8670483
  19.9616337  34.3898277  16.0832787  18.6702499  34.7816277  16.7687016
  68.4675217  26.5672779  33.5599174  68.7183533  26.9950047  34.3786774
  67.5199432  26.6912136  33.5054626  48.7212715  64.1071472  24.2651863
  49.4086456  64.7576599  24.4086666  47.9512749  64.4721832  24.7011738
   1.9723607  21.6439533  86.7043228   2.7957582  21.7916737  86.2391052
   1.6252391  20.8360138  86.3262100   7.7211485  66.9712906  34.2353706
   7.6408167  66.6713638  35.1408157   8.4806604  67.5538025  34.2425079
   3.8329611  16.4537506  35.3808327   3.9204824  15.5055952  35.4786835
   4.6322093  16.7225761  34.9278793  27.1059456  54.9190674  56.8489647
  27.2842007  55.2323608  55.9622269  26.7128048  55.6699486  57.2937698
   5.3384290   9.2284889   7.8067055   5.6146383   9.2641726   6.8909178
   5.7551064   8.4389229   8.1519556  84.7652817  28.8961086  59.2055130
  85.3247528  29.6727562  59.2124519  84.4071274  28.8509979  60.0920334
  62.2014732  53.5287132  13.0239573  61.7885208  53.2048721  12.2234383
  61.5083542  53.4912262  13.6830587  31.3192596  69.3212433  54.3751564
  31.0536957  68.7136154  55.0654449  30.6653118  69.2019348  53.6864281
   4.7019367  15.7450485  16.6627388   5.4137206  15.9590311  17.2659035
   3.9681182  16.2845116  16.9572258  73.8710175  53.6798897   9.1192932
  73.8721466  54.6370621   9.1124182  72.9775314  53.4432144   9.3680906
  73.0696793  16.1391449  52.3255882  72.8721771  15.4018469  52.9031830
  73.1466827  16.8903084  52.9138527  20.6821289  11.4031258  14.2808657
  20.2858849  11.9952888  13.6416740  21.0609112  10.6999674  13.7533016
  49.1245270  53.6768303  85.0099335  49.3440857  54.3745842  85.6273193
  48.9398346  52.9174042  85.5625534   7.1477509  10.7408714  23.4836960
   7.9296427  11.2066231  23.1871281   6.4185877  11.2300587  23.1025791
  50.8943291   5.2245259  13.1606712  49.9637222   5.0037827  13.1221943
  51.1402931   5.0672812  14.0722666  47.6250343  71.2182388   5.3313160
  47.8025856  71.3016281   4.3944311  46.9088097  71.8318329   5.4949012
  71.9080811  31.7980022  82.6568909  71.1627274  31.2290039  82.4647522
  72.1996765  32.1084213  81.7996597  69.1972733  58.2046890  47.4622803
  68.3748474  58.5871696  47.7681618  69.5876923  57.8179932  48.2460289
   9.3355913  64.9900131  60.3589630   9.8655224  64.3812637  59.8443527
   8.6284885  65.2501602  59.7685699  61.6266899   2.2901492  61.1427078
  62.4507141   2.1157231  61.5974503  60.9832764   1.7447628  61.5952644
  57.8719597  65.4012985  68.3892441  58.5453987  64.8279877  68.0231476
  57.0718689  65.1591339  67.9229355   2.3274806  62.1455879  21.6634808
   2.3096678  62.6138344  22.4981422   2.3421025  61.2203140  21.9081974
  74.2759399  41.8042564  16.3707294  74.1769943  42.7540283  16.4369011
  74.5928192  41.5358009  17.2331390  55.4777756  46.9880028  59.0523300
  55.3068504  47.8523750  58.6783257  54.9391060  46.9583740  59.8430214
  65.9958420  27.4736080   8.4284344  66.6303024  27.1911297   7.7697229
  65.1459656  27.3795643   7.9982181  31.2770786  60.6488342  83.7866745
  31.6066685  59.8117332  84.1135864  30.3250065  60.5500603  83.7923355
   9.8552914  32.4543457  79.0429153   9.5019999  33.3334694  79.1791534
  10.6433315  32.5917168  78.5172195  56.7831230  55.2128410  66.2779999
  55.9149132  54.8371811  66.1319656  56.7177429  56.1058121  65.9395370
  61.9576950  52.9453545  40.0278206  62.4814034  53.7216530  40.2261086
  61.0643196  53.1914444  40.2677231  73.0197296  19.6225185  17.8701935
  73.5982513  19.5446911  17.1115875  73.2095718  20.4897060  18.2282124
  46.6386566  62.2360382  54.5229225  46.2064781  62.6121407  55.2897339
  46.3329773  62.7700882  53.7897224  47.6059303  43.9169998  21.6366730
  46.6957855  44.1674347  21.4780788  48.0898476  44.2953529  20.9025726
  67.8187714  20.0838337  44.4334068  67.4398804  20.9373608  44.2232437
  68.7479019  20.2631721  44.5775490  53.2643776  51.3748856  18.5788383
  53.4088707  50.6836243  19.2249889  52.4585800  51.1187210  18.1301727
  79.9127731   6.7489104  47.0201607  80.4123383   7.0057731  46.2451172
  79.5455551   7.5686445  47.3509407  24.2070103   3.5990164  31.9416485
  23.4976006   3.2359872  32.4719124  24.0503960   4.5433059  31.9462509
  53.5826836  37.7840157  26.7586060  53.2507248  37.2647781  26.0261936
  54.1070023  38.4709587  26.3469849  37.0599327  64.4763794  83.1874313
  36.6550446  64.9686203  83.9015732  37.8453674  64.0919418  83.5766983
  75.7590561  37.9544945  38.1940155  75.0345459  38.3344536  37.6970825
  75.3477478  37.2905426  38.7473869  68.4897690  48.0798302  70.5154953
  68.4524994  49.0209007  70.6864548  69.3999100  47.8404884  70.6903915
  73.9431763  17.5589943  80.3657608  74.3064041  17.0856285  79.6172791
  74.6998215  17.7446060  80.9218750  29.7044334  66.8067780   6.2072191
  29.3726234  66.8559418   7.1037216  28.9305191  66.9325409   5.6581559
  77.5400772   1.7836391  79.3697586  77.9440613   2.6508245  79.4016647
  77.4126511   1.6129578  78.4365616  58.6480751  16.0700054  46.4854889
  58.9432106  16.6570778  47.1815300  58.7888756  15.1911573  46.8376732
  69.9097443  51.6131630  49.6445198  70.2976761  52.3964844  49.2544594
  69.0159454  51.8738174  49.8668098  34.0869255  18.1761799  87.1067123
  34.7286835  18.8720989  86.9650192  33.7560806  18.3319492  87.9913025
  51.3308067  70.3887177  28.5838985  52.0824242  70.1019669  29.1026268
  51.6866646  71.0526657  27.9933338  71.1937790  31.7651081   7.9714341
  70.4752731  32.0127411   7.3894925  70.8295288  31.8524723   8.8522978
  53.2482224  19.3115482  10.7822437  52.8661804  18.8584175  10.0306139
  52.5332565  19.8452988  11.1288910  50.8759422  43.2270470   4.1378250
  51.1582489  43.4264450   5.0304480  51.2084274  43.9553337   3.6131463
  67.7436371  35.1663971  26.6187973  68.4852142  35.7589569  26.4956150
  66.9741135  35.7342796  26.5791035  56.1567345  61.0890961  13.9064369
  56.8995590  61.6461525  13.6737795  55.9091949  60.6645584  13.0850201
  30.0754528  27.6204910  23.0829163  30.1907101  28.1529808  22.2958946
  29.1558590  27.7398167  23.3202782  72.4433212  62.7922745  83.8981400
  71.7429810  62.9419327  83.2630386  73.1384125  63.3953438  83.6347351
  73.2699203  70.9140167  83.7356415  72.9016113  70.0430679  83.5872040
  74.2053299  70.8115616  83.5603180  34.1336441  11.2280464  87.8377533
  34.3245468  10.3137913  87.6281662  33.6695480  11.1901846  88.6740646
   5.1107631  20.6307869  25.8249226   5.4632907  19.8358707  26.2250042
   4.2055783  20.4082470  25.6073246  11.8875828  41.4348450  81.6465988
  11.5146570  40.6805534  82.1028976  12.3680105  41.0559578  80.9104843
  85.1685257  12.1731863  86.3505402  84.3611145  12.1681833  85.8364487
  84.9874802  12.7720070  87.0750122  50.4134521  58.9340668  84.7079239
  49.9526596  58.4818954  85.4146347  51.1013947  59.4313660  85.1502609
  52.8577957  20.7228146  33.5840225  53.4377594  19.9766216  33.4321213
  52.1019135  20.5572567  33.0205841   0.2092095   3.4983616  69.3340073
  -0.2267454   3.6358423  68.4930115   1.0558165   3.1148636  69.1050568
  53.1366081  66.4685898  32.9702759  52.7696152  66.5713501  33.8483353
  52.8942757  65.5793304  32.7119637  25.5914860  14.8058128  48.2758102
  25.7037659  14.5958672  47.3486900  25.5884628  15.7625294  48.3060799
  16.2538834  43.2535286  20.2977982  15.5972252  43.5340462  20.9352474
  16.3668003  42.3180351  20.4661388  11.1984396  29.9090862  82.7626266
  11.6213350  30.6487064  82.3263321  10.6469746  29.5155468  82.0864334
  17.1273994  52.3966217  52.3112144  16.8521023  51.4854927  52.4126282
  17.8385429  52.3621597  51.6714325  65.8008499  38.2085495  15.6789188
  65.0130692  38.1282272  16.2166767  65.9888992  39.1470337  15.6682472
  54.1742325  70.8063812  14.2565556  54.2931213  69.8966064  13.9837875
  54.5845375  71.3204880  13.5611610  77.0008316  21.5052967  66.2978210
  76.6319199  21.7676392  65.4544220  77.9176178  21.3070278  66.1069717
  52.2672005  18.3592720  88.1355057  51.7803078  19.1831360  88.1559448
  51.5915375  17.6813717  88.1483078  15.2550097   3.0256987  55.9576111
  15.1381302   2.0772369  56.0123024  15.4280529   3.2980580  56.8587837
   8.4072227   2.9248190   7.3458710   8.0360079   3.7645910   7.6164517
   8.3952732   2.9547753   6.3892145  41.5301208  61.8148308  81.0609283
  42.2428017  61.2030106  80.8765640  41.8886375  62.4083176  81.7208328
   7.5278549  18.7031536  21.1232872   8.2015877  19.0149212  20.5190392
   6.9903369  19.4748592  21.3015423  62.7186852  69.6941299  63.2463112
  62.8553886  70.5055618  62.7573166  63.0681915  69.8781433  64.1182175
  46.9165916  39.1023178  73.3529358  47.0637817  39.6579437  74.1183472
  46.5625458  39.6958275  72.6906509  68.9401169  25.1133499  57.8228683
  69.5094757  25.1684399  57.0553818  68.1632309  24.6486206  57.5118942
  70.0767975  22.2248516  26.7234669  69.3539734  22.5572491  27.2556992
  70.8158035  22.7927132  26.9417095  23.9597244  66.1453934   9.6915874
  23.1300049  65.9097824   9.2765150  24.5872326  66.1805038   8.9696236
  11.9311790  15.0418911  78.0322571  11.6669254  15.9618788  78.0273514
  12.3981009  14.9224024  77.2052460   6.2478557  33.6497574  14.8918772
   7.0549369  33.7861366  15.3881159   6.3051224  34.2710762  14.1659870
  12.2363195  10.3236685  59.3093109  12.2290430   9.7774792  58.5232735
  11.3156080  10.5366430  59.4615135  44.9717216  67.3274307   0.6319706
  45.6321602  67.9525757   0.9307258  44.3099976  67.8667221   0.1989405
  54.5486717  14.2697515  24.1940422  53.6968842  14.6921959  24.0834312
  54.6703606  14.2206783  25.1422062  75.8029480  53.4108772  17.7505016
  76.3126907  53.6012497  18.5380020  75.1060562  52.8277664  18.0514278
  18.7279072  14.6883240  57.6720009  17.9683151  14.9096231  58.2107735
  19.4622707  14.6784554  58.2858772  15.7335930  15.8025265  16.9352589
  15.5533762  16.5811729  17.4620056  16.4383430  16.0702190  16.3454285
  79.4153671  40.3107719  67.2221527  79.4667053  39.7813911  66.4263229
  78.8886032  39.7862434  67.8251648  54.4334831  39.5462189  15.5020981
  55.3631706  39.3191147  15.4838448  54.0079842  38.7825317  15.8919277
  49.3458557  37.9023170   4.9543643  49.4276428  38.8529587   5.0306664
  48.4565506  37.7638206   4.6284995   4.2535973  38.1870270  11.7881403
   4.6111994  37.3118134  11.6386452   4.9372005  38.6447029  12.2774782
  72.3442383  65.1757050  71.6864319  72.9412384  65.4109879  70.9761810
  72.9188385  64.9050217  72.4025345   7.5046544  68.0060959  17.2137604
   6.8071303  68.5712128  16.8815956   7.5239139  68.1775894  18.1552773
  31.8947544  34.6252785  25.5846233  32.3528099  35.0992355  26.2787323
  30.9691868  34.8193092  25.7326393  12.9364109  23.3316441  66.6961975
  13.3993902  23.8489895  67.3551712  13.6308575  22.9588223  66.1530838
   2.4510608  12.1131439  12.1494942   2.9225936  11.6715183  11.4431973
   2.1366270  12.9268141  11.7554083  15.1077881  17.0500488  73.2969742
  15.6767368  16.6210976  72.6578140  14.3425922  16.4782543  73.3582687
  22.6626148  11.4129696  62.2469978  22.8612022  10.9130077  61.4552689
  22.6600399  12.3259382  61.9594002   2.4331174  50.6548271  49.5767021
   2.2969251  50.9588394  50.4740639   1.6125960  50.2203484  49.3438835
  56.8552895  71.5280838  33.9053383  55.9605751  71.3911285  34.2167282
  57.3900604  70.9531326  34.4527740  26.6586323  42.3074417   0.3090254
  26.2642269  42.4060287   1.1756029  27.2040005  41.5241737   0.3817907
  22.0472488   0.5807973  57.4153442  21.7150459   1.4526720  57.6291389
  22.5844498   0.3376390  58.1693459  45.7988052  42.4428825  64.9120865
  46.2772102  43.1410599  65.3591995  46.4785309  41.9247360  64.4811249
  82.0966568  16.5946388  37.7688980  81.2487869  16.7582169  37.3558578
  81.8792419  16.2955666  38.6518021   6.6940675  40.0198631  71.2448425
   7.6400642  39.9635429  71.1101151   6.4745660  40.9256363  71.0266113
  30.7137604  54.9790154  37.8608780  31.5734005  54.8000870  38.2419739
  30.1680851  55.2277184  38.6069450  57.2723351  33.4920731  19.9671974
  57.7610664  32.7558022  20.3349972  57.9232712  34.1871490  19.8703213
  50.3668175  68.6718826  62.8379669  50.0118217  69.5559616  62.7451096
  49.9639282  68.1759262  62.1252708  77.7824402  30.6770229  45.0081444
  78.3821335  30.0660362  45.4362679  77.2782059  31.0602474  45.7258606
  20.0627861  32.1354523  83.5873413  19.6418648  31.2769451  83.5423813
  19.3883038  32.7146149  83.9421310  20.4650116   9.6183147  34.1654625
  20.8120079   9.9767332  34.9823875  20.4020920  10.3732309  33.5803375
  82.3929672   4.4959354  76.3054352  81.5799255   3.9924524  76.3467102
  83.0771027   3.8648410  76.5288467  59.2864304  69.9488754  27.5600700
  59.2417564  70.7436066  28.0917110  60.1557884  69.5901031  27.7381992
   7.8038292  45.0678444  35.6416473   8.4855518  44.7494354  36.2333374
   6.9961562  45.0063667  36.1516609  75.5364456  35.3571663  12.4769840
  76.1516037  36.0748100  12.3259983  75.4268341  35.3316536  13.4275446
  82.8768463   5.8618956  48.3958626  82.2105637   6.5414705  48.2934990
  83.1488647   5.9291058  49.3111305  52.8912659  46.4214821   9.7955122
  52.2654190  45.6973457   9.7821550  53.0966606  46.5775642   8.8737297
  67.2341080  11.5446262  27.5601463  67.6384811  10.7976675  27.1188183
  66.9799423  11.2066059  28.4188499  54.6008339  44.1922607  17.8607712
  53.9831963  43.5899696  18.2754974  55.4502678  43.7588577  17.9435883
  42.2154350  19.4061642  22.6046219  41.6552849  19.8744125  21.9855824
  43.0683670  19.8335114  22.5264320   0.2955810  45.8216057  73.7899857
   0.2091736  46.0006676  74.7263107   0.4966938  44.8869820  73.7424316
  17.9480534   8.6131105  71.1360245  18.1127357   9.4419146  71.5856857
  17.2465668   8.2018852  71.6410446  67.6217499  55.1805344  14.4050188
  67.7087402  54.7888908  15.2740879  68.5211182  55.2606201  14.0872869
  58.3783493  31.0688610  33.1197205  58.5038528  30.1825027  33.4586182
  59.0617065  31.1709919  32.4572792   9.4421730  15.6492043  38.7581558
   9.9591608  15.5664902  37.9568367   9.8684292  16.3534679  39.2465744
  62.9547844  27.3819160  60.7135544  62.5907173  28.2110863  61.0236549
  62.9847565  26.8270874  61.4929771  68.7749176  17.4562378  13.9171457
  68.4889221  18.0794601  14.5850029  69.3121414  16.8237247  14.3941650
  14.7258539  38.8076477   5.3274927  14.6613111  39.4502373   6.0339932
  14.0704765  39.0876083   4.6884823  44.3263588  58.6124420  63.4104271
  45.0285149  58.1243782  62.9803162  43.5298042  58.3349800  62.9579353
   8.8002739   9.4363518  29.5464344   8.5040770   8.8209763  28.8757534
   8.9310417  10.2593164  29.0754128  41.3863373   4.4750495  86.5455170
  40.7082863   4.2346082  87.1769180  40.9802513   4.3297453  85.6909943
  82.9018021  14.8111582  60.8104553  83.6630478  15.3910160  60.8327065
  82.8069611  14.5056744  61.7126312  82.2759094  49.2748260  87.3744202
  81.8973236  50.1535149  87.4027786  82.2673035  49.0401535  86.4464722
  21.3871822  55.8558540  40.0207443  22.2078648  56.1653862  39.6374664
  21.1407890  56.5396729  40.6435699   7.5700297   0.7946944  60.5412025
   6.7569757   0.4226431  60.8828926   8.1278143   0.0356539  60.3710060
  20.5628204  69.1218338  41.0831833  20.8184910  69.9077377  41.5661163
  21.1121025  68.4276428  41.4473572  69.0091629   3.3928037  54.2480583
  68.7370224   3.0290558  53.4055252  69.9018936   3.0701220  54.3711281
  41.4768982  32.4982643  78.7159348  40.9144783  32.8531914  79.4043655
  41.1827736  32.9358444  77.9170303  76.9735794  31.5177917  23.2887878
  77.2589340  32.4294128  23.3500233  76.0403976  31.5722504  23.0827618
  60.2196541  13.3092403  12.7138901  60.3373222  13.5816269  13.6239405
  59.5511208  13.9022503  12.3709154  56.0187683  13.8826523  31.1913872
  55.6406746  13.2572670  30.5731907  55.8066483  13.5251703  32.0536194
  64.5620575  42.5618057  78.1170502  64.0104141  42.4461975  78.8907166
  65.4550934  42.5844002  78.4608612  40.8583107  62.7242966   2.7947052
  40.2224426  62.2061577   3.2880931  40.4360161  63.5755882   2.6797969
  16.6073265  68.2314224  57.4150581  17.1704712  67.4776382  57.2392273
  15.7434063  67.8523788  57.5769272  14.8718100  32.9463730   1.5773081
  14.6009102  32.7211304   0.6873019  15.4687443  32.2425461   1.8313324
  15.3425789  21.4500885  26.4602795  14.9774075  22.1692696  25.9448586
  14.6194267  21.1641178  27.0184059  21.0256195  50.0659332  88.4843445
  21.9206772  50.2809372  88.2219009  20.4981499  50.7937241  88.1552124
  50.6810951  13.6892796  69.6884003  51.3450508  13.6273041  70.3750916
  51.1362114  14.0963182  68.9512253   0.3671876  40.0964890  22.3040657
  -0.1297333  40.7622986  22.7794590  -0.2111429  39.8310890  21.5889931
  18.4352665   0.9524994  65.3378601  19.0779476   1.6487516  65.2021179
  17.6277618   1.2936429  64.9534302  49.0761337  16.8451614  21.1359749
  48.5969467  17.6028748  21.4713593  49.0300140  16.9347534  20.1840935
  60.4481544   7.0376496   6.9497247  59.7928925   6.8208938   7.6129594
  60.2503624   7.9413795   6.7039957  56.5043411  55.1503601   1.7743462
  56.5707970  54.3026505   1.3348023  57.4105339  55.3936691   1.9636894
  68.9129181  65.7931824  84.8383331  69.3662033  66.4890900  84.3624344
  68.1487427  65.5920715  84.2981339  44.9841919   2.0538437  78.2902069
  45.9239426   2.1316752  78.4546509  44.7396202   2.8916626  77.8971710
  18.0349693  42.3477936  67.9129944  18.9177914  42.2422485  68.2675629
  18.0684204  41.9219894  67.0563736  48.8963776  66.3108139  35.9230614
  49.4665833  65.5461884  36.0033798  48.6731720  66.3464890  34.9929314
   0.7578292  53.0753365  87.3050079   0.1068588  52.9107208  87.9871902
   0.6009278  53.9809799  87.0377579  23.3039722  10.1757650  77.3631439
  24.0631618  10.7426357  77.4992294  22.7184849  10.6891003  76.8064346
  11.8115110  15.0698814  31.6298447  12.2451696  15.8072701  31.2003918
  12.4164886  14.8072004  32.3235550  35.2947235  68.1753540   5.3670330
  35.5733337  67.3299866   5.7191205  35.6567001  68.8193512   5.9756970
  58.6425209  41.2909546  52.4602394  58.7312660  40.3424759  52.5537376
  58.6468277  41.4398613  51.5147018  64.7194214  30.7004566   8.1890535
  63.7713318  30.7551098   8.0691862  64.8302078  30.4196320   9.0974026
  81.7721786  15.6196079  74.4010696  81.4055862  15.4175148  73.5402527
  81.6405869  16.5623188  74.5021210   4.8995829  24.6103916  46.3455353
   4.0742211  24.2197056  46.0585251   5.5510693  24.2721939  45.7311897
   8.4595327  20.4290447  13.7283468   8.2044296  19.7325363  14.3333521
   8.2790871  20.0697479  12.8596830  15.2997332  12.9806776  83.3090744
  15.1738873  12.0437946  83.1585922  15.4406548  13.0548487  84.2529297
  18.5629082  24.9618778   0.2057125  17.6871529  25.3319683   0.0947327
  18.5439777  24.1470833  -0.2962667  79.1068039  15.6552563  41.5711136
  78.1902313  15.7273893  41.3048058  79.4414902  14.9066668  41.0773163
   8.3475904   0.4265141  52.8481522   8.2683916   1.3648192  52.6762695
   8.8342819   0.3739367  53.6707077  17.9903584  10.9376259  41.7466545
  18.1533585  10.2702255  41.0801430  18.7570457  10.8974705  42.3183289
  67.9710617   9.3439550  62.1336288  67.7760162   9.6192455  63.0293999
  67.1144180   9.1631441  61.7467270  62.5898323  62.2777786  39.0183411
  62.6858101  62.9409485  39.7018814  62.1087189  61.5662498  39.4408150
  60.0232315  45.1255493   3.6546686  59.1467056  45.4931335   3.5414553
  59.8738022  44.2684708   4.0538197  45.3224220  60.9152451  15.1784372
  45.8486633  61.1253242  14.4069672  44.5737267  60.4293671  14.8325930
  32.5734787  16.1300468  21.8433685  33.4846611  16.3458939  22.0418472
  32.5696297  15.9483061  20.9035892   1.1924151   2.1582499  53.7819214
   1.0997432   3.0264618  54.1741600   2.0984702   2.1297698  53.4745369
  62.7714424  39.2811089  68.2350464  62.5202103  38.3599701  68.1671371
  63.6083450  39.2675056  68.6994247   9.4218283  15.0326338   3.2200825
  10.2087688  14.9915800   2.6766939   8.9452906  14.2288351   3.0125949
  16.3572788  34.5382309  32.5121727  15.9170341  34.1159058  31.7745705
  17.2612667  34.6515236  32.2185707   5.3908949  71.3331604  25.5344124
   4.9447856  70.9748230  26.3017559   4.7720251  71.2042542  24.8156528
  52.4798775  20.9053898  73.9061508  52.9035873  20.1221542  74.2572098
  52.5041313  21.5344200  74.6272354  15.2473612  19.4513359  24.0992393
  15.3089523  20.2668839  24.5965538  15.7110662  19.6335926  23.2819309
  46.3758278  16.3767071  74.5527115  47.0707054  16.9479923  74.2255859
  45.9752274  16.0110493  73.7640152  66.6452866  20.7411919  61.7757988
  66.8446350  20.7523041  60.8396530  65.8633957  20.1937332  61.8476944
  61.1513329  22.1509800  22.9262199  61.5274277  21.6721325  22.1876469
  61.7675819  22.0063095  23.6442318   2.8647211  68.0059128  15.6886473
   3.6192889  67.7447891  15.1607542   2.1220531  67.9541397  15.0869865
  40.9042320  66.9406128  45.9870033  40.2972603  66.4615631  45.4228020
  41.7709160  66.7310562  45.6389008  80.5224533  17.0411415  57.2003403
  79.6605530  16.7376156  56.9153137  80.5587845  16.8195324  58.1308212
  59.0275040  67.0250015  64.8966980  58.7721672  66.1496735  64.6054382
  59.5199051  66.8747711  65.7036667  16.9913692   7.5964713  49.7040558
  17.5099812   7.0245404  50.2698898  16.5850983   7.0035305  49.0719185
  43.2420502  56.7524605  47.4256821  42.3171577  56.5906639  47.6117630
  43.3719826  57.6757431  47.6422424  67.7962189  53.5532837  55.1407890
  67.2665863  53.9192238  54.4324036  67.2247772  53.5849800  55.9080467
  70.2043762  58.5541344  45.0390968  69.7736130  58.4302864  45.8848724
  70.3342438  57.6668701  44.7042503   3.7422566  15.1000032  61.1640892
   3.2088959  15.7613058  61.6050415   3.9859619  14.4872513  61.8579025
  39.0756149  58.8440132   8.4051199  38.9629898  58.3803940   9.2349415
  38.6336212  58.2917023   7.7602768   6.7796459   4.6071429  74.3262482
   6.2665501   3.9232590  73.8958206   7.6749477   4.2685356  74.3296204
  34.5209160  50.0310707   3.9408932  34.7306061  50.8603249   4.3705440
  34.5548439  50.2307358   3.0053647   7.7782869  59.5082397  42.0844917
   8.3667507  59.6433525  41.3417358   7.3549643  60.3571930  42.2121964
  60.7166023  15.7309885  17.4539547  60.8071594  16.6787643  17.3552094
  60.4674530  15.4221468  16.5828781  74.6414261  50.4758644  50.3769684
  74.6125031  51.2976456  50.8669357  75.2197418  49.9113846  50.8899460
  56.9816628  19.9345741  76.7298660  57.3749962  20.2274609  75.9078369
  56.5205688  19.1276779  76.5006409  15.3642645  19.7892132  50.2367134
  14.7979460  19.8795757  51.0031013  15.6453114  20.6828041  50.0398865
   8.8365812  49.8658791  15.3628855   7.9444747  49.7285881  15.6815214
   9.0540552  49.0551033  14.9029131  68.0941696   6.4668179  48.1048698
  67.3879623   5.8207817  48.1169548  67.7870712   7.1461558  47.5045166
   2.8019872  57.2574959  83.5792389   3.0082307  57.4237175  82.6594162
   1.9051957  57.5750732  83.6847916  37.7714424  13.0251503  46.4002571
  38.3500748  13.7869883  46.4321899  36.8897858  13.3908367  46.4722862
  54.5299377  63.3690987  34.3055267  54.1493683  62.5379181  34.5893250
  54.0806732  63.5703316  33.4846115  52.4272614  56.9439163  57.0467224
  51.9608192  57.7729683  56.9402542  52.8599739  57.0200500  57.8971329
   0.8563744  54.1548347  13.7165890   1.7555743  54.4772682  13.6557074
   0.4215137  54.7683563  14.3088045  67.6494446  37.2785759  22.6054802
  68.3280258  36.6035233  22.6134663  67.0998840  37.0568733  21.8537712
   1.9719826  26.3470707  86.2695999   1.1583098  26.5062809  85.7912445
   2.4306719  27.1869373  86.2481766  30.9077435   8.7483940  38.9358635
  31.1778431   9.4955320  38.4019508  31.7051029   8.4791822  39.3919106
  36.3235779  54.0189743  29.5960770  37.1824455  53.8322716  29.9751816
  35.9597549  54.7063408  30.1541004   1.2374887   6.1060357  21.6506786
   2.0353529   6.6348500  21.6509228   1.0569192   5.9453669  20.7244968
  42.2891159  61.1895752  64.5746002  42.2465820  62.0714951  64.2049484
  41.8265839  60.6415672  63.9405823  19.3317204  58.1688004  83.9060745
  20.1261005  57.6960678  83.6576538  18.6846752  57.4819870  84.0668564
  29.0218792  65.4295425  58.8676033  29.8230362  64.9086304  58.8125572
  28.7221832  65.5044632  57.9616203   7.4121284  70.8482056  35.6156082
   7.2485900  71.7422791  35.3154182   6.6428494  70.6273499  36.1406479
  14.7635727  38.4929962  19.3562374  15.2580643  37.7276039  19.0631809
  13.9095888  38.1433945  19.6106415  19.9764366  61.3870430  13.3375731
  19.3502445  61.4914131  12.6211777  20.2139835  60.4600639  13.3149052
  13.8319721   5.4255147  81.7994766  13.2428980   4.6710496  81.7972183
  13.2904997   6.1530766  81.4933853  66.6465454  29.0746250  13.4300032
  66.4519577  28.4718456  14.1476555  66.0125580  28.8491211  12.7492371
  11.5982685  50.5775375  40.1765022  10.9182024  50.0853767  40.6364098
  12.1843719  50.8812332  40.8696709   7.3932376  26.3473949  77.6700668
   8.0008221  27.0274010  77.3790894   7.5404024  26.2825184  78.6136551
  57.8024101  45.8861504  16.0376987  58.3581543  46.1723366  15.3127985
  58.1358414  46.3629036  16.7978058   9.9455891  15.1742945  51.1734772
   9.9822483  14.4271088  50.5763130   9.3524380  15.7928209  50.7470627
  79.7665253  16.0794754   1.6601324  79.0521088  16.2654514   1.0508296
  80.0142441  16.9363403   2.0074823   9.6155529  57.1003799  63.0009460
   9.9657440  56.9997635  62.1158028   9.1833754  57.9544106  62.9918938
   5.5073295  13.2911739  29.3179760   5.2709093  12.7837515  28.5415363
   5.4319081  12.6698914  30.0422363  12.2739706  71.4651260  82.6955338
  12.0252132  70.9874191  83.4868317  11.5205317  71.3717422  82.1125793
   4.9037938  36.1871490  46.4829063   3.9898987  35.9227295  46.5883141
   5.1804452  36.4481659  47.3612938   5.7105064  63.6221313  47.6240196
   6.1903434  64.0736465  46.9296722   4.9676471  63.2164383  47.1770248
   2.8979073  32.8243866  20.7839832   3.0569286  32.0204391  20.2893963
   3.0011926  32.5664673  21.6999760   9.7091360  15.2934160  33.7099495
   9.1317453  14.5301943  33.7284889  10.1897135  15.2102318  32.8863258
   8.0776987   6.4129562  56.8127213   8.1129551   7.1884360  56.2527046
   8.9050236   6.4272137  57.2939301  73.4558029  46.0226021  85.2021484
  72.8727417  45.9729042  84.4446564  74.3337326  45.9155579  84.8360672
   5.4591064  26.7659912  61.4784164   4.9025006  25.9970932  61.6017799
   6.2412415  26.5814056  61.9984398  33.6450768  28.5723419   8.2692928
  34.2457199  28.5024643   9.0113010  32.7757950  28.6136284   8.6678782
  23.5588436  64.5365982  40.1914177  24.4100437  64.6599426  39.7713280
  23.6507416  63.7209587  40.6838799   5.6696892   9.3521996  59.4282227
   5.7843547  10.0180035  58.7501450   4.7771792   9.4863110  59.7470818
  27.3343353  59.8429413  31.5276413  26.8158855  60.1423073  32.2745132
  26.7811565  59.1903687  31.0982513  29.1781139  65.5596542  30.4462738
  28.5337105  65.2847214  31.0984898  29.6733608  64.7646561  30.2489510
  70.2813644  67.1156693  40.2575378  70.1320496  66.2114944  39.9811363
  71.0169601  67.4116669  39.7213364   5.1742902  45.0586624  74.9815750
   5.0552893  44.2296066  74.5181808   4.4448452  45.0940323  75.6003571
  65.7260513  67.8633194  60.2276917  65.6883698  68.2202606  61.1150513
  65.7804260  66.9158783  60.3527412  60.7191505  11.0208941  11.3757048
  60.3006401  11.7620811  11.8135653  59.9907455  10.5003500  11.0370445
  25.5347652  14.3594961  81.2961426  26.0822792  14.4810753  80.5204620
  24.8632622  13.7357674  81.0199585  52.7032623  67.2163086  11.7560835
  51.7761116  67.2468109  11.9920855  52.7951775  66.4090042  11.2500753
  16.8655777  70.4482498  34.3900261  17.6200218  70.1686249  34.9085426
  16.1626549  70.5588150  35.0302658  48.7738533  51.8646126  14.0012550
  48.3700333  52.3706360  14.7063093  49.6702461  51.7109680  14.2997665
  40.8174286  15.0725822  49.1859436  41.7487831  15.0282288  49.4023819
  40.6624756  15.9949913  48.9825172  19.6102276  52.3680954  74.3634491
  20.4571095  52.2409973  74.7910767  19.3179684  51.4836082  74.1432266
  48.7233849   8.6376448  41.9092865  48.1699600   9.2887592  41.4780083
  48.1591225   7.8706393  42.0069733  63.4523735  51.5934868  83.6147919
  63.1887321  52.4979286  83.7842331  64.3638306  51.6590729  83.3298721
  70.3654099  37.3749733  37.1042595  70.1921997  38.0723801  37.7365952
  70.8553925  37.8039818  36.4027596   7.2694860  30.6500092   0.6423766
   8.0849009  30.2860794   0.9871743   6.5801449  30.1791439   1.1107012
  86.2980957  13.5379715  47.0151482  86.2733307  14.3935766  46.5867119
  87.1873550  13.4697981  47.3627167  38.1446228  38.7764435  13.9364357
  37.3366737  39.2736588  13.8090439  38.3856773  38.9406357  14.8481188
  53.4672699  66.1805420   8.6928968  53.1539764  65.3917084   9.1354103
  54.2004013  65.8790359   8.1563864  21.1368179  51.9763756  31.0007343
  21.3765144  51.0545692  30.9056129  21.9300213  52.3971100  31.3324604
   8.5552969  51.9468193  11.8589687   9.1627913  52.6852188  11.9031153
   8.0446634  52.1039276  11.0647383   1.6068184  71.4453049  21.8371029
   2.5353072  71.2962036  21.6584682   1.5176386  71.2992554  22.7788811
  13.3271151  14.8315697  36.3414574  12.5635538  14.4500656  36.7746582
  13.4058447  15.7065334  36.7215538  40.1889534  65.5835876  33.9594421
  40.2488708  66.2627945  34.6312408  39.2490654  65.4608459  33.8260994
   2.9967828  66.9879684  68.0595779   3.8358665  67.4331818  68.1776962
   2.7703989  67.1429901  67.1425400  24.5990887   7.1785746  -0.0343791
  23.9482327   6.4802222  -0.1045384  24.2731457   7.7399673   0.6690633
  13.6454573  48.3907623  10.8404932  13.1262321  47.8193321  10.2747183
  14.4392500  48.5697708  10.3364286  35.7353439  58.0663376  59.6373062
  36.2729836  58.7475357  60.0412178  35.1608124  57.7657356  60.3414268
  12.5630226  36.1819725  49.3255348  13.4582014  35.8467941  49.2751465
  12.6278830  37.0856285  49.0166206  25.8727245  10.0137777  75.3218689
  26.4006023  10.6461535  74.8343430  26.4633102   9.6781616  75.9962616
   4.6222639   8.8511810   4.0474968   4.3444142   9.7641010   4.1223826
   5.5384994   8.8561897   4.3244791  44.9248276  40.2161789  88.9856491
  45.1201363  39.3932457  88.5374680  45.7170219  40.4098511  89.4868011
  31.1083946  51.0794220  73.8800354  31.7549858  51.7602081  73.6938019
  30.9987469  51.1068230  74.8305359  74.9651489  49.0493774  83.1051178
  75.5480423  49.7925224  83.2606812  75.4392853  48.2955284  83.4560242
  40.8821640  62.7495651  20.4062157  40.1596489  62.1228676  20.3680820
  41.6599731  62.2312126  20.1999226   5.6151528  57.4309692  32.1706810
   5.6560550  56.4827499  32.2949295   6.4653606  57.6602516  31.7954369
  49.7088623  35.6330872  89.0312271  50.4385109  35.6810951  88.4135361
  49.8172379  34.7865257  89.4646072  46.9811974  63.4187813   1.2862244
  46.6825333  62.6356392   1.7485210  46.2052879  63.7337112   0.8225302
   1.5061672  22.7112198  24.1555042   1.0271415  22.6092300  24.9779186
   0.9397497  22.3090878  23.4969521  75.5473022  11.5762691  35.6266899
  75.7690887  10.7760649  35.1505432  74.9701843  11.2832127  36.3318748
   5.4958539  15.4149780   3.6114142   4.9383135  14.6853189   3.8815577
   4.9326878  16.1857300   3.6822548  29.7524338  44.0482445   9.1558151
  30.4530983  44.6682243   8.9535103  29.7046566  43.4812813   8.3860750
  83.7446136  70.3728790  73.1328735  84.3684845  69.6469193  73.1324310
  83.0108566  70.0584335  72.6047058  67.4213104  52.4497337  87.0294876
  67.7912445  51.9663010  86.2907944  67.6230545  53.3662643  86.8410645
  38.5675049  65.4746399  14.8051863  38.4946671  65.0338745  13.9586334
  39.0015793  66.3043442  14.6066637  57.0471878  50.6093330  87.7761459
  56.9367752  51.0584984  86.9381180  57.7643547  49.9936028  87.6252136
  85.3838806   5.9833779  35.7849121  84.6459198   5.4463711  36.0734863
  85.3752518   5.9093437  34.8306160  84.8318329  25.1462021  28.4602108
  84.3104095  25.6438694  27.8303871  85.7275620  25.4567242  28.3280182
  85.0993347  16.1903744   2.1685708  85.0286255  17.0348167   1.7234335
  85.9512024  16.2197952   2.6040964   9.5345354  48.7092400  43.4397392
   9.2854109  49.1878090  42.6490822   8.8160172  48.8676796  44.0519981
  57.4347610  71.2309570  15.2272816  57.1474266  71.5488663  16.0832043
  57.4634819  70.2789536  15.3226671  15.1155338   3.1438885  17.5890675
  14.8260937   3.5550885  16.7745914  14.3526649   3.1907654  18.1653175
  17.8506374  55.0794296  68.2560196  17.1246681  54.7345428  67.7361603
  18.0903931  55.8970222  67.8197937  49.6867180  43.4624977  32.1156807
  50.2862206  43.9765396  32.6565971  50.1819496  43.2789764  31.3173733
  20.3434772   7.5548258   8.8542252  19.6465855   8.0221367   8.3935776
  21.0399284   8.2034855   8.9563341  35.7129631  14.9805489  46.2417107
  35.8931274  15.7055693  45.6432800  35.3644867  15.4001741  47.0282936
  43.2895699   4.0603447  41.2953568  43.3493462   4.6003771  40.5073051
  42.6320076   3.3980980  41.0825768  67.3784790  45.4773483  87.7189941
  67.7796478  45.5377922  86.8520203  66.5926666  44.9479942  87.5829163
  80.1716461  35.2571373  13.2030239  79.3468170  34.9833527  12.8018551
  80.4064713  34.5343475  13.7849665   7.5670142  26.4177246   2.0189402
   7.0624137  26.3148136   1.2120825   8.4484005  26.1232510   1.7894294
   2.9371786   4.5518665  32.8037796   3.3264887   5.4263191  32.8054161
   2.4920013   4.4863048  33.6486168  25.7609005   5.5745130  41.9519615
  26.0628567   6.4538236  41.7242126  26.5647240   5.0689554  42.0724297
  19.8777313   1.6480491  35.1067963  19.9656811   2.2928298  35.8087616
  20.5085373   0.9635489  35.3299026  19.3589077  20.6512852  70.7541504
  20.0200195  21.1960201  71.1812592  18.5242558  21.0486774  71.0024719
   5.6942015  22.1309299  13.9187899   5.2685232  22.6997871  13.2773600
   6.4437642  21.7620029  13.4515848  19.8424816  55.3067780  58.0110817
  19.3501759  55.5233727  58.8028870  20.2217236  54.4468536  58.1925583
  79.4931107   5.5583210  58.2913208  78.5894547   5.8722281  58.2582817
  79.9900513   6.2059278  57.7914352   9.1876125  38.2249527  47.3565483
   8.7610855  39.0743675  47.4696732   8.9502020  37.9539375  46.4697456
  72.4523315   1.3117394  62.5920982  72.5302582   2.2650666  62.6285172
  71.9455338   1.1430269  61.7977905  81.8214264  49.5490112   2.0348148
  81.6462631  49.2254486   1.1511536  82.0713577  50.4644699   1.9095100
  11.2037430  66.1503220  66.1902771  10.2635632  66.2171021  66.3571167
  11.3978825  65.2176590  66.2834854  12.2402344  30.7022667  61.5441551
  12.5769863  30.1804237  62.2725182  12.1593409  30.0802326  60.8211327
  86.4170914  43.4508743  64.6214447  87.1921463  44.0089874  64.6849976
  86.0767136  43.6129684  63.7416153  53.7026100  24.6139050  36.2109795
  53.2451859  24.3966045  37.0232468  54.1783791  23.8152199  35.9829941
  68.3433151  46.9713402  61.7762604  68.3760223  47.1937294  62.7066917
  69.1175919  47.3917809  61.4021454  20.9056988  15.0545588  31.4818821
  21.8421097  15.0846920  31.2857761  20.6869564  15.9488468  31.7438622
  54.3338242   8.9948969  20.7259903  53.3896408   9.0824099  20.5952435
  54.4264565   8.2369366  21.3031788  56.0550346  57.2463913  64.5585327
  56.4186325  56.8796577  63.7525940  56.3445816  58.1587448  64.5584717
  13.1796913  27.9038391  13.0519209  13.5938578  28.6071510  12.5518713
  13.8620205  27.6026001  13.6518488  55.7512550  30.8758755  74.6382294
  56.4120178  31.5509605  74.4836807  56.1882591  30.2376156  75.2020416
  29.4292927  22.6795616  81.7514954  30.0443630  23.3241291  81.4015579
  28.8548470  23.1845055  82.3270569  77.8844757  31.1666012  34.2085304
  78.4392700  31.7251740  33.6640701  77.1782837  30.8888817  33.6250992
  78.2590790  30.5698891  84.2986450  77.7568817  30.6015224  85.1129074
  78.5979996  29.6754971  84.2608643   7.2266459  14.2010202  13.9256516
   7.4656887  14.1897497  14.8524542   6.9478378  15.1018181  13.7611494
  71.2546539   6.8284578  84.4324265  72.0384979   7.1205254  83.9671173
  70.5667267   7.4274507  84.1422577  12.5976791  37.3710327  88.6294403
  12.6920958  36.5535660  88.1404953  12.1643934  37.1145287  89.4435120
  63.9250526  52.7484856  52.9272079  63.9361496  52.1471443  53.6718521
  63.6989326  52.1975746  52.1778069  36.6860580  56.5470505  78.8096848
  36.4957504  56.9124908  77.9457016  36.3352852  57.1911659  79.4247513
  14.6638308  10.4266214  39.1925316  14.7259884  10.4949188  38.2397995
  14.8361826  11.3137541  39.5080070  26.3597317   6.3747530  72.5176163
  26.6906910   7.2299972  72.2432938  26.7488823   6.2328892  73.3805618
  63.1110992  51.5785370  34.0245628  63.2844200  51.7967567  33.1088257
  62.2022171  51.2783432  34.0313606  50.9565201   2.2980628  81.4170990
  50.7900581   2.3283081  82.3592300  50.8501930   1.3756413  81.1845779
  23.6472721  28.8994446  26.4674206  24.2362537  28.2491894  26.0846691
  23.4008141  28.5297337  27.3152447  70.6102295  63.0618896  18.2213917
  70.2366791  63.1286697  19.1001587  71.1109772  62.2462387  18.2353497
  44.1771355  29.3553448  28.4033546  43.4761276  29.8484974  28.8295212
  44.7875633  30.0249176  28.0946789  20.1948414  21.0145187  29.5424652
  19.4667416  21.4222546  29.0735760  20.2842579  20.1502056  29.1409702
  54.2082024  67.5119247  82.8481216  54.5766029  66.9233093  82.1893005
  53.9425888  66.9342804  83.5636673  50.7704544  23.6630802  26.2380257
  50.5376701  23.5495319  25.3165321  49.9314156  23.6634674  26.6987267
  56.5696831  32.2469444   8.4432230  57.1464043  31.8186531   9.0758286
  56.5742645  31.6654205   7.6829329  33.2581749  61.1903305  29.3906002
  32.9847679  60.3315582  29.0681267  33.0710869  61.1644897  30.3289833
  31.4485550  10.7064505  58.9270859  31.2151794  10.6132441  59.8507118
  30.8428402  11.3678379  58.5925636  63.7556648  42.5105324  52.6053848
  64.5071182  41.9663353  52.3700104  63.0139198  41.9055367  52.6101151
  13.6636095  32.4702034  79.5366745  13.7956696  33.1489143  78.8747482
  14.5206099  32.0534554  79.6266937  35.8576317  37.6892509  80.2754364
  36.4482880  38.0796509  80.9195938  36.3471565  36.9472923  79.9203339
  47.8553047   5.7627296   0.1198588  47.7257614   6.4967065   0.7204656
  47.4465027   6.0471373  -0.6975921  38.5935478   1.8483107  18.9781151
  38.1445999   1.0487339  18.7036095  37.9538422   2.3073452  19.5224476
  15.2762232  14.8982134  49.8407707  14.8183250  14.3242140  50.4548454
  14.5773258  15.3243475  49.3446007   6.0299659  62.1797676  37.0308876
   6.3816457  61.3997116  37.4599152   5.4565563  61.8378754  36.3449249
  75.1833420  35.1091919  32.6709785  75.9965897  34.8499298  32.2378006
  75.3436508  34.9439659  33.6000824  19.2326241  27.8428612  87.1799164
  20.0660706  27.5513573  86.8102875  18.9892292  28.6031494  86.6517563
  35.0150909  59.5395851  78.4569244  34.5284805  60.2279167  78.9104080
  34.3787766  59.1530037  77.8553543  26.4417553  49.9976921  71.6219330
  26.0826912  50.3187714  70.7947617  27.3762207  50.1988525  71.5715332
  66.0376205  26.4409924  64.0938644  66.1712189  25.5201569  63.8692627
  65.8876953  26.4376202  65.0392456  51.5205917  46.2209206  15.7859535
  51.5506020  46.4614830  16.7119465  50.5914154  46.2575569  15.5589657
  37.3260193  12.9350824  65.1677704  37.4066620  13.5884418  64.4729004
  38.0688210  13.1077585  65.7462692  78.0708847  62.7984657  70.8722458
  78.3387833  62.2391815  70.1430969  77.3086472  62.3561630  71.2458725
  77.4381561  40.6227341  12.7647533  77.2810898  40.6278458  11.8205423
  78.3845749  40.5072403  12.8494959  17.9501801  65.4816971  74.6100235
  17.5318871  66.1020737  75.2070084  18.0248852  65.9581680  73.7832031
  55.9743385  52.8398247  71.6448975  55.1493721  52.4580345  71.9447250
  56.4397926  53.0667801  72.4499283  55.9623451  13.8892651   5.2550907
  55.6925507  13.6049585   4.3818135  55.5946541  13.2315216   5.8453526
  15.3104286  10.3088131   2.3513739  15.4337025   9.6021376   1.7176200
  15.3865919  11.1105223   1.8339825  48.6458893  41.5391998  74.6867294
  48.7351379  41.3712692  73.7486115  47.7018051  41.6075783  74.8290558
  14.9370518  58.1400566   2.3578944  14.9552813  59.0902367   2.2436249
  15.7313175  57.9432640   2.8545289  15.5149784  52.7045517  68.8802338
  16.3738289  52.3248520  68.6946640  14.9165001  51.9575424  68.8742752
  50.4909210  54.6569901   9.6405640  50.8018188  54.0064316  10.2701244
  50.2166519  55.3993645  10.1789799  23.1956367  22.8901501  18.1662483
  23.2690353  23.1016064  17.2355881  22.9178276  21.9742966  18.1825886
  14.0495453  29.4660034  80.7059021  14.2511282  28.5447750  80.8700256
  14.0446587  29.5438385  79.7518845  22.3523712  27.4384079  88.0406342
  23.0507050  27.1074867  88.6054840  21.9840584  28.1782532  88.5235519
  73.5633774  54.7803688  75.6555176  73.6371536  54.0896301  76.3140564
  73.2660599  55.5472755  76.1450958  72.4627991  34.2327881  17.3545456
  72.3808594  34.4453659  16.4248524  73.3632584  33.9227562  17.4508953
  43.6349792  52.9520912  72.6895142  43.6326714  53.3457375  71.8170090
  42.7312889  53.0376091  72.9932556  20.1089916  25.6961384  34.6311035
  20.4564552  25.2863274  35.4232864  20.8235588  25.6358223  33.9970779
  80.3133163  70.0076370  65.3751450  80.4452515  70.1435394  64.4368744
  80.5975266  70.8279648  65.7782822  20.7021713  49.4591827  75.0303421
  20.6880951  49.3721313  74.0772171  19.9019432  49.0227470  75.3225555
  21.1292267  70.2703705  53.1022148  20.3949451  69.6690826  52.9776344
  20.9597836  70.6831207  53.9490662  74.1535187   0.2390181  65.9735260
  74.5068817   0.5772567  66.7963028  74.4237213  -0.6790918  65.9562683
  68.3577347  49.4436989  16.7478943  68.6563187  49.8227730  15.9212246
  67.4332047  49.6856384  16.8022327   8.7920294  13.1996469  40.3202553
   8.9833946  13.9091215  39.7068558   8.1621685  13.5772171  40.9342155
  30.3753090  58.2304878  38.5339241  29.8299541  57.4485321  38.6197357
  30.5005379  58.5349731  39.4327240  66.1918945  34.6177940  16.7605610
  66.9632034  34.8960114  17.2544308  66.5085831  34.5072060  15.8640604
   8.6276083  57.7049255  38.4403305   8.3706989  56.9154892  37.9638634
   8.7994757  57.4014015  39.3317146  68.7955933   4.1404543  64.0855255
  67.9872818   4.5249753  63.7463989  68.7850418   4.3464150  65.0202408
  37.2687950  10.3241329  21.4922562  38.0083580  10.6354303  22.0141506
  37.6586151  10.0572319  20.6597672  72.7529755   8.0256996  14.0565376
  73.6856232   7.8756375  13.9019985  72.6651077   8.0257578  15.0096960
  21.4999657  68.4310989  78.6413422  22.3234673  67.9549103  78.7477264
  21.7581310  69.2774506  78.2762756  57.4112396  25.9834461  76.8743362
  56.6886482  25.6640606  77.4147873  58.0497818  26.3202076  77.5028992
  27.3447227  27.4125996   4.5527873  27.8548565  27.9597931   3.9556487
  27.8691120  26.6186523   4.6571665  61.9325333  66.7181396  12.3315735
  62.0955887  66.8053513  13.2707434  62.3098297  65.8692474  12.1007891
  66.8180313   9.3668146  29.8353786  67.6160278   9.0255289  29.4316959
  66.2888336   8.5895376  30.0143185   1.5202922  46.3005714  35.8398209
   1.2574868  46.3756943  34.9224739   1.3935493  45.3754349  36.0502853
  57.9137688  25.7151604  57.9472542  58.1622467  24.8004074  58.0803490
  57.6112328  26.0086517  58.8066521  77.1595840  43.4724998  84.2359390
  78.0302277  43.0766144  84.1973038  77.1174698  43.8743019  85.1036987
  78.6578903   8.8578253  21.1753006  79.0808716   9.3189325  21.8996582
  78.1410751   8.1715775  21.5974369  32.8635864  10.2697649  26.8142853
  33.0599899  11.1415758  27.1572189  31.9836044  10.0776110  27.1382332
  71.5205536  15.5238371  59.8774261  70.9401474  14.8159056  60.1570549
  72.2750397  15.0773420  59.4932022  41.3274078  60.8191490  72.1190872
  40.8885384  60.9398918  72.9611359  41.5121498  61.7079887  71.8156586
  48.8495750  12.6790810   5.2358060  49.1623993  13.4809732   5.6545448
  48.2543716  12.2905865   5.8769293  46.7455254   1.6376001  25.7818565
  46.7326775   0.6819046  25.7297688  46.2062149   1.9248945  25.0450802
  49.9697990  33.2102509   1.1623660  49.6280327  32.5252266   1.7369677
  50.9133682  33.0515594   1.1354115  77.3302155  53.3148727  87.0449677
  77.6905212  52.5618782  87.5133820  76.4306717  53.3873787  87.3640060
  77.3075790  48.4717293  36.1139069  77.2515869  47.5349197  36.3022919
  76.8391190  48.8897476  36.8364258  56.2459564  23.8969498  31.4973450
  55.5462914  24.1000443  30.8764954  56.0907898  22.9849529  31.7431412
  75.6729431  35.0581703  15.5236006  76.3343430  34.6827736  16.1048565
  74.9553833  34.4247894  15.5366182   8.8633041  13.6056194  74.4193878
   8.1384268  13.9317684  74.9526901   9.1727190  14.3741961  73.9400330
  49.3660011  27.4847698  21.5958328  49.8386574  28.3145466  21.5302315
  49.8223076  26.9006748  20.9901505  61.2926712  70.4142532  29.3812943
  61.1132317  69.8481750  30.1320229  60.9824104  71.2780304  29.6530724
  73.9871216  61.0747452  39.8843231  74.4008408  61.0664101  39.0211906
  73.7380905  60.1636047  40.0393715  84.2978210  52.1829834  42.9903831
  83.8587341  52.8716965  42.4912758  84.1802597  51.3929138  42.4629326
  56.8137360   6.5122023  72.1099396  56.6099434   5.7235217  71.6072693
  56.7685738   6.2319279  73.0240707  57.9382362  14.5152330  29.4053478
  58.4192848  13.6931190  29.3107109  57.3076324  14.3445787  30.1049519
  41.1421242  65.3333588  85.8290176  41.8911018  65.2890854  85.2346268
  41.5317688  65.4055939  86.7003326  53.6812019   2.6556184  80.9328232
  54.2473984   2.1789992  81.5398560  52.8271255   2.2321737  81.0193024
  37.8604927  21.2844486  15.8755045  38.5269241  20.6195297  16.0486565
  38.3403130  22.1126461  15.8850622   8.6037483  67.3461456  47.6510010
   8.9582958  67.8441544  48.3875580   8.1860209  68.0044708  47.0957069
  45.4256287  62.7296829  50.4852333  46.0872345  62.0621567  50.3037949
  45.7992935  63.5385513  50.1354675  35.2219925  16.8844986   1.3195782
  34.5020866  17.3472157   0.8907911  35.1288719  17.1033440   2.2467604
  82.6164932  52.9771919  45.1673622  82.7733841  53.7083511  45.7648773
  83.4403915  52.8764381  44.6906319   4.4240055   7.3023348  62.3406410
   3.9466972   7.6157551  61.5724106   3.8123579   7.4206486  63.0673599
  21.0845222  49.3645554  11.9663849  20.1982040  49.7259140  11.9758673
  21.3842716  49.4415512  12.8721743  65.9947662  48.7913208  25.9612484
  65.2235260  49.3240280  25.7672329  65.8748322  47.9974785  25.4400368
  61.3639832  40.7582092  26.7652912  60.9908714  40.0011864  26.3136959
  60.8953705  41.5092354  26.4011612  86.5128098   7.7003002   4.6421428
  86.2701416   8.6152458   4.7843347  87.3772507   7.7425451   4.2332482
  67.2803650  41.0744820  58.7818375  66.3861694  41.3084259  58.5329971
  67.5006638  40.3345909  58.2159195  81.2965698  10.1686554  46.6185493
  81.6385193   9.7959394  45.8059082  81.9092331   9.8753777  47.2929840
  28.3159008  48.1246338  17.6864529  27.7159290  48.3244820  18.4050121
  27.8916302  48.4919167  16.9109974  27.5636158  59.1311340  56.6197319
  26.8984795  59.8189201  56.5918999  27.2738914  58.4913063  55.9694138
  64.3438034  55.0224304  71.6178589  63.4618492  54.6960716  71.4393005
  64.3382111  55.9207802  71.2874451  86.3337479  13.4731436  20.3332844
  86.6534500  12.6093493  20.0727444  85.5120697  13.5790539  19.8538361
  47.6261559  48.2312126  14.7502413  47.8237686  47.4501152  15.2670240
  47.1744652  48.8141747  15.3604574  77.0323563  49.2037239  78.3849335
  77.0865555  48.3105164  78.0451202  77.9304199  49.5319176  78.3401794
  80.8007431  46.2865143  55.8622627  80.0356369  46.8333817  55.6839790
  81.1320267  46.6045647  56.7021027  55.9254723  11.1337433  57.8592072
  56.2936325  11.9287367  58.2447968  56.1040916  10.4496756  58.5044823
  54.4786682  33.3297386   4.2207623  55.1417465  33.9787941   4.4558916
  53.9822311  33.1914597   5.0273991  29.8263130   9.2108078  14.1352577
  29.0859051   9.0506992  13.5501127  29.4245205   9.4114494  14.9805613
  13.5589676  67.1148911   2.7535136  13.4177008  66.6423874   3.5738902
  12.6847448  67.2015762   2.3734457  78.4136581  58.3246460   2.4182789
  78.4359055  57.9431267   3.2958770  77.5058365  58.2185822   2.1339483
  23.5228882  53.1214752  40.2423058  23.3254795  53.6285019  39.4547882
  22.6924610  53.0829659  40.7167969   9.0810566  11.2607832  70.5898666
   8.6307459  10.9160347  69.8187561   8.9727478  12.2097015  70.5261841
  39.1130447  22.3384132  84.7676086  38.7776642  23.2276020  84.6531754
  38.3674622  21.7733078  84.5651398  27.9721165  48.0160141  14.2143316
  28.6843319  48.3831177  13.6906738  27.7498207  48.7092705  14.8357935
  20.1904907  53.8573036  13.8419580  20.6906986  53.3007126  13.2451057
  20.0785236  53.3244095  14.6291809  41.9505577  65.2631073  79.5386429
  41.4296303  66.0653687  79.5738525  42.0005112  64.9698410  80.4484406
  86.0791550  28.8768139  80.2422791  85.2944641  29.2451553  80.6482544
  85.9904099  27.9315033  80.3637085  61.2899323   4.4917817  35.2526016
  60.5830193   4.0590115  35.7313690  60.8968735   4.7368941  34.4149513
  21.6552048  55.0901451  87.7509918  20.7545357  54.8415604  87.9589157
  21.5668106  55.8177795  87.1353912  69.4673080  11.8443041  55.3896751
  70.2515259  11.3214931  55.2226486  68.8021927  11.2042255  55.6429672
   4.5541902  50.2784081  85.4026108   3.8774347  50.2114563  86.0762177
   4.0724816  50.2534828  84.5758286  39.7044678  61.2967262  23.5087147
  38.9843445  61.0326424  24.0813484  39.6713715  60.6762695  22.7805882
  66.3653564  48.5590172  53.4621010  65.4525986  48.7515945  53.6766090
  66.6803894  48.0385590  54.2010956  35.7209549  64.1671829  42.3745461
  36.3628387  64.5151291  41.7555504  34.8842010  64.2334137  41.9144554
  40.1457100  44.5144310  85.7058792  40.4860268  45.1866188  86.2962875
  40.4526176  44.7795334  84.8388367  26.1531391  15.0921669  42.4254951
  26.1874847  15.3930588  43.3335228  25.8508415  15.8544960  41.9318352
  18.0340271  58.6222572  57.5983124  18.2823124  57.9390831  58.2210960
  17.3474407  58.2219810  57.0648232  12.1632862  39.3955040  44.9117661
  13.0031567  39.2295303  45.3399048  11.6981888  39.9763870  45.5138397
  26.0260582  10.7877913   7.2311330  25.4361591  11.4275627   7.6298084
  25.7266884   9.9433870   7.5681653  78.8004150  55.6168785  54.6158524
  79.4346237  54.8999786  54.6236572  78.0240402  55.2544937  55.0426407
  82.0833130  15.6310110  43.6805725  82.0638275  16.5205898  44.0334244
  82.1965408  15.0711184  44.4486427  57.5177307   9.8687639  30.3199043
  57.8182106  10.4515429  31.0172653  58.3124123   9.4314175  30.0142231
  27.7838573  69.2169037  37.9846497  27.1185150  69.6736374  38.4993782
  27.3037033  68.5206604  37.5363922  49.6547241  31.9688740  12.7039299
  49.6692543  32.9130974  12.5475302  50.5403748  31.6767216  12.4882832
  27.2760963  57.5924149  87.8603668  27.2772026  57.0453033  88.6457901
  26.5543461  57.2515488  87.3320465  85.6368332   0.4764447  32.6288490
  84.7692871   0.4692238  32.2244415  85.4864502   0.8126613  33.5123520
   4.6179814   5.1396980  22.6124439   4.6475697   4.1848178  22.5527821
   4.2419777   5.4202719  21.7780991  68.4002991  25.2558308  87.1346588
  68.3490143  25.0090790  88.0580826  68.8157425  26.1181622  87.1398849
  59.7839928  63.5363922  71.2772751  59.8207130  62.6701431  70.8716965
  60.4469643  63.5062027  71.9670486  27.0911942  62.3097382  50.1845207
  27.1920376  63.2186012  49.9016342  26.2943020  62.0097961  49.7472229
  62.9512901  49.9692955  11.2417517  62.9456291  49.0464439  11.4958153
  63.1154022  49.9571190  10.2988033  62.8760414  38.6223145  13.7690992
  63.5095367  39.1510353  14.2542524  62.0889435  38.6320267  14.3137226
  44.8472900  17.8960495  24.2805805  45.5304070  17.2792568  24.0176182
  44.0648651  17.5993309  23.8158245  33.9114876  66.9942780  86.5255432
  33.3721008  67.1315231  87.3042984  34.7543602  67.3913269  86.7449722
  85.3978500  24.8840656  65.4213791  85.5616531  25.7294769  65.8393250
  84.5436325  24.6123981  65.7571487  84.1605072   5.7417784  54.0793495
  83.8929596   4.8766379  53.7692146  84.4655914   6.1943216  53.2929916
  27.1567593  70.4323578  62.9754410  26.6005497  69.6681824  63.1267357
  26.9787159  70.6824570  62.0688057  68.3446884  17.7795029  30.9219151
  68.1497040  16.9532738  31.3641338  69.1688004  18.0711613  31.3117847
  73.1524963  41.6554871  25.1524277  73.2457504  41.7736397  26.0977192
  73.5558472  40.8054695  24.9763489  79.8231583  35.6325569  60.7792931
  80.5063553  35.3236771  60.1842575  80.1644363  35.4451294  61.6537209
  18.5103779   5.2017689  46.3242722  18.9195156   5.8431754  45.7433777
  19.1669292   4.5117621  46.4194794  74.1912842  41.5188866  73.5579071
  73.5705566  41.7336845  72.8616409  74.9073944  42.1432610  73.4413757
  72.8187256  47.7931175  41.2214165  72.5371399  47.8334656  40.3074646
  72.9348221  48.7082596  41.4768944  45.9400330  16.0903740  39.1263275
  46.6482277  16.1608791  39.7664223  45.7925987  16.9892769  38.8322716
  40.8632889  71.0209656  34.9388847  41.3441086  71.1252670  35.7599602
  41.4852257  70.5940170  34.3496971   1.5169140  39.5107040  28.0437164
   0.7672412  39.8293228  28.5464153   1.1438717  39.2338791  27.2067947
  25.0299168   8.0970211  30.6739006  25.8011837   7.5901136  30.9277210
  25.1425762   8.9403267  31.1125069  40.4455986  48.9146233  39.4917984
  40.4180107  48.0853500  39.0145378  39.5265732  49.1594620  39.5998650
  70.0626450   8.1397152  28.2089462  69.3012695   7.6748819  28.5560284
  70.7944870   7.5389071  28.3491802  81.3266068  34.3235435  37.4527283
  82.2331238  34.6235008  37.3858261  81.3865128  33.3690910  37.4119415
  63.0848427   1.8708994  42.9687080  64.0282440   1.7906055  42.8280602
  62.8786659   1.1872162  43.6061249  47.7757416   4.2412429  34.0984764
  48.5141716   3.6667221  34.3006592  47.2547150   3.7477107  33.4650841
  32.7036972  61.8457794  15.8629246  32.4120178  61.9384193  14.9559660
  31.9006577  61.9071159  16.3802242  44.2056465  39.7946701  38.4001770
  44.5311279  40.3166313  37.6667938  44.9237671  39.7968636  39.0330505
  75.6758575   5.2808981  64.4306335  76.2856445   5.6374364  65.0765915
  74.9610062   4.9157672  64.9520645  45.0084686  37.0264435  26.9170322
  45.4876442  36.9558868  26.0914135  45.5692139  37.5664101  27.4740181
  77.2455368   0.5197409  61.5610008  76.5812912   0.4139412  62.2420425
  77.2545395  -0.3205188  61.1026154  75.4592438  33.3330536   9.7664137
  75.1677704  34.1060982   9.2830153  76.1387939  32.9470940   9.2137089
  19.5728474  37.5408173  63.5470085  19.9718533  36.6869087  63.7139435
  19.8884373  38.0961418  64.2599258   0.1535749  41.2511101   1.2903315
   0.8642430  41.6626053   1.7821155   0.5902835  40.6100502   0.7294751
  14.5783777  59.0415077  57.1995850  15.0123844  59.8736191  57.3878937
  15.1435080  58.6173668  56.5538559  33.6981773  27.9605522   1.0803846
  34.2008018  27.7780018   1.8742821  34.0856743  27.3914433   0.4154115
  77.6351471  32.8529205  27.6442814  78.5537109  33.1216278  27.6604462
  77.2196503  33.4570999  27.0290070  86.4824295  38.9805145   3.8482113
  86.2739410  39.2640800   4.7383547  86.3157654  39.7515335   3.3060052
  52.7960472  27.9811974  66.6868820  52.9872169  27.4965744  67.4898911
  53.6369209  28.3590622  66.4292374  83.0321045  23.8808308   1.3113731
  83.8567047  24.0597343   1.7633306  83.2192459  24.0631123   0.3905133
  71.5602112   5.8899360  45.5755844  70.7245026   5.4287758  45.5037270
  71.9699707   5.7781796  44.7177734  22.2659454  36.8273926  83.5640945
  22.9113026  37.3184357  83.0555420  21.7039585  37.4991226  83.9503326
   5.1208358  36.0542221  55.6280098   5.2929020  35.6133614  56.4600334
   4.4878941  36.7384338  55.8458977   2.4379048  17.6008053  17.1951485
   2.1572425  18.4088116  16.7655163   1.6369399  17.0834560  17.2790337
  51.8081017  70.7303314   4.3057933  52.1449051  70.6840897   5.2005887
  52.5738258  70.9432983   3.7723658  37.9768562  23.9546165  87.0505829
  37.4234161  24.1198368  86.2872772  38.8162537  24.3581524  86.8296661
  28.6196709  61.6047745  29.7742443  28.2313576  61.1137161  30.4983349
  28.8301754  60.9393044  29.1192093  62.6371231  13.7014771  11.3585405
  61.8998375  13.8763256  11.9434099  62.2433281  13.6410885  10.4881897
  53.7932930  32.8982162  19.5203457  53.3686409  32.0408897  19.4905148
  53.4242706  33.3214417  20.2955437  84.2050095  28.2315712  11.0995989
  83.5342941  27.7255077  11.5581560  83.8689957  28.3219223  10.2078791
  25.4552402  10.7532024  51.7440948  26.1710224  10.1189251  51.7043343
  24.8096104  10.3496923  52.3242455  18.2133846  10.6750870   0.4928813
  17.5244637  10.2311277  -0.0016087  19.0268402  10.2835417   0.1747432
  84.4942093  60.2788887  87.7933960  84.5141754  60.6652985  86.9178848
  83.8763428  60.8232307  88.2814178  72.8805923  68.7707596  21.6898022
  73.1147079  69.0351562  22.5794735  72.5902252  67.8629684  21.7783031
  19.1108341  47.1264229  20.8430824  19.1615314  46.2247772  21.1604042
  19.8892155  47.5512772  21.2034321  31.3571491  12.3412771  48.5052872
  31.6169491  12.6327076  49.3792458  30.4219398  12.1529770  48.5837593
   4.9513078  17.9583740   8.4399080   4.9923387  18.4445515   9.2634249
   5.8281074  18.0460701   8.0660572  17.9793472  40.8618927   5.4962888
  18.0606346  41.7367935   5.1165833  18.3160362  40.2747955   4.8193927
  37.8111496  32.9211769  43.1292496  38.7474747  32.8982887  42.9317589
  37.5658913  32.0018616  43.2338486  66.5118942   0.3397643  70.5732269
  66.0868759   1.0003303  70.0261993  66.5623398   0.7428918  71.4399261
  13.4094410  14.1050920  20.1187153  13.5288668  15.0476389  20.0022106
  14.0933161  13.8518438  20.7387257  83.7593613   5.2021508  33.5880585
  84.3416519   5.5575352  32.9165840  83.5809860   4.3066468  33.3008499
  54.5080338   3.5141234  39.9760056  53.5866394   3.3150971  39.8097000
  54.9622612   3.2242217  39.1848907  -0.3586352  59.2481689  22.4584560
   0.2920767  59.0210686  21.7942028   0.1370773  59.7194481  23.1280804
  67.2838974  64.4605103  13.1134005  67.3847580  63.8449783  13.8394718
  67.2222900  65.3183975  13.5334826  76.7367935  56.9869347  11.2130585
  76.7960434  57.9391632  11.1357250  76.3789825  56.8395348  12.0885468
  48.5682068  69.5238647  22.4301567  48.0989265  69.6180038  23.2590961
  48.7536240  70.4221878  22.1565304  15.2657967  31.3994064  20.8790169
  15.9182186  31.0195732  21.4674931  15.7158909  32.1364059  20.4661274
  62.7818146  68.5159225  87.0159225  62.4577904  67.6187134  86.9368210
  62.0006599  69.0615768  86.9248886  20.2075481  61.7765236  74.1676178
  20.9309578  62.3651352  74.3831329  20.4591808  60.9369240  74.5523071
  81.2882233  56.7678566   1.8930359  82.0990829  56.8227768   2.3987281
  80.6930542  57.3786774   2.3276699  38.0137062  26.5722466  17.4626865
  38.2613258  26.6886368  16.5454254  37.2256088  27.1053009  17.5675125
  26.2101574   1.1910744  52.6594887  25.8708954   2.0660405  52.4708939
  26.5787773   1.2617782  53.5400276  60.7285538  24.0588608  70.0401840
  60.2051163  24.8556957  69.9547501  60.8634186  23.9607925  70.9827499
  20.0744381  68.8079300  17.4267693  19.5171089  68.0786362  17.6983318
  20.1066952  68.7422562  16.4723701  86.7030029  11.2533560  30.4809303
  86.9752808  12.1496582  30.2841129  85.9677277  11.3536968  31.0855198
  50.5952263  16.4928341  65.3321609  51.1724586  17.0806751  64.8448410
  49.7549400  16.9504528  65.3593063  26.0504284  56.2206497   3.9341867
  25.8046398  57.0292473   3.4847541  26.5454922  56.5129738   4.6994915
   9.7699051  36.3870850  10.0969830   9.3233986  37.2223282  10.2356539
   9.4780140  36.1002235   9.2316837  54.5564690  19.7579346   4.9304471
  53.7889481  19.1860905   4.9187393  55.2328987  19.2419701   5.3691378
  60.8185349  51.1733856   7.2289152  61.6787376  50.7794800   7.3742399
  60.2403412  50.7187424   7.8414693  73.4095459  24.4380894  81.9570618
  73.1084518  23.7015724  81.4249725  73.3984985  25.1856709  81.3593750
  21.5495243  55.8922348   9.4924889  20.8162479  56.2637482   9.9829121
  21.1704884  55.1514015   9.0194864  86.6695862  16.7682228  60.8164139
  85.8743820  16.6783676  61.3415909  86.4565506  16.3447208  59.9848518
  73.3824234  13.5879908  70.9244232  72.9823074  14.2120123  71.5300140
  73.8749084  12.9903717  71.4870453  66.7247391  29.6402645  51.9495773
  66.0264359  29.3671856  52.5445862  66.4642944  29.2897949  51.0977707
  66.4610825  16.9084568  84.0606918  66.8428345  16.9067116  84.9384689
  65.5402145  16.6872177  84.1995621  27.8991127  54.0509644  13.1958218
  27.1284180  54.1891060  13.7464380  28.0656452  53.1098442  13.2486582
  65.0794678  56.1956215  16.5686779  64.5657349  55.4491081  16.2604179
  64.6393738  56.9595375  16.1958733  35.6828041  29.1581421  34.5438919
  35.0349312  29.6033649  33.9977493  36.5239067  29.5108585  34.2534332
  70.3187637  14.4557695  56.3102417  69.6666641  13.8066092  56.0464439
  70.7998505  14.0358944  57.0233269  73.6522522  45.4580116  73.2276688
  73.5349808  45.0867882  72.3532104  72.7726974  45.7255058  73.4942398
  52.9640770   4.5864563  15.9899235  53.3852310   3.9147546  15.4535675
  53.2860184   4.4219203  16.8762150  37.2920265  58.0687714   2.2509332
  37.6189651  58.3533783   3.1043632  36.8881226  58.8514214   1.8760281
  21.9470501  10.8933010  53.7056007  21.0382690  11.1111193  53.9127350
  22.0239391   9.9624529  53.9149818  12.7130508  50.0278740  75.0521011
  12.6482134  49.2197189  74.5432663  12.3856983  50.7082558  74.4637527
  24.1228218  42.8721924  86.4950256  24.1412868  43.7572250  86.8591766
  24.0491562  42.3003197  87.2590714   3.6866813  57.1635704  18.2937393
   3.0743489  57.6317749  18.8612461   3.4045312  57.3816071  17.4054356
  58.0406532  43.3945618   1.3342148  58.5053902  42.9414101   0.6307178
  57.8538971  42.7106018   1.9772954  28.3053150  58.3761978  25.2654171
  28.6258907  58.8458214  24.4954071  27.4837608  57.9777718  24.9781227
  34.4049606  25.9923820  13.4333315  34.1339073  26.2661572  12.5570841
  34.0222321  25.1216984  13.5413237  46.9261818  32.9749374  35.8644028
  47.8574524  32.7558289  35.8334312  46.5857430  32.6944008  35.0149155
  76.5581436  66.0129166  26.4052773  77.4812851  66.2614594  26.3576450
  76.4896774  65.4990082  27.2099152  58.9016953  67.8281326  84.6596756
  59.0055237  67.9552383  85.6027069  57.9915581  68.0673141  84.4845352
   9.6577559  23.4181938  38.6022148   9.6349897  22.7916965  39.3255501
   9.7308807  22.8752422  37.8173027  68.2890778   7.9436574  81.1614075
  67.9380417   7.1098413  81.4740677  67.5334015   8.5309839  81.1460266
  60.8357773  47.2101936  72.9471054  61.4432411  47.7962379  73.3985138
  60.4786873  47.7388191  72.2334747  59.4409866  10.3807001   3.1674769
  60.2568665   9.8814182   3.1315341  58.8156891   9.7880516   3.5846128
  14.0957375  35.2171021  82.6103973  13.9872541  34.7467690  83.4369888
  15.0035229  35.0498848  82.3570328  35.5535507  61.3226852   5.0729551
  34.7222710  61.2704887   5.5446367  35.3119392  61.6120872   4.1931233
  20.4565029  53.0811348  21.2647686  20.4694653  53.2545166  22.2060452
  19.8532715  52.3446388  21.1651764   8.1221247  36.9467659  49.4828987
   8.6532221  36.3398361  49.9984665   8.7601118  37.5016861  49.0342712
  58.0239754  32.3082809  74.6909714  58.3942451  31.4352055  74.5610886
  58.3739243  32.5937309  75.5349426   0.8582504  35.0670891  49.2507057
   0.1087834  35.5435066  48.8935585   0.9467322  35.3957405  50.1453514
  84.2725220  33.8490219  16.4767590  83.6287460  33.8390160  17.1850510
  83.8519440  34.3499413  15.7778835  59.0237579  67.1856689  55.2643929
  59.1639671  68.1216736  55.1213112  59.7123222  66.7595596  54.7539558
  60.5976257  33.5736237  41.1146393  61.1248360  33.3507614  40.3474274
  61.0843506  34.2774963  41.5434647   8.7233591  65.2668762  26.5422478
   8.7808781  65.5145874  25.6194477   8.5421438  66.0878830  26.9997807
  49.4904213  21.1951046  65.9382553  49.6327057  20.2780094  65.7038956
  50.2649460  21.4352913  66.4468307  51.9149971  13.4826164   7.2200847
  52.1790314  13.2888527   6.3206553  51.2765312  14.1906815   7.1350141
  17.6551857   5.3204393  22.1652374  17.1926441   4.9892526  21.3954315
  17.7180252   4.5653510  22.7501507  48.5016251  62.6896172  72.8214569
  48.4047432  63.4488182  72.2465973  49.0610580  62.0875130  72.3308029
  16.8816280  21.7469044  70.8859253  16.4002705  22.5368538  70.6399460
  16.2201843  21.0550194  70.8903885   7.1548920  15.1829195   8.5535078
   7.0795403  14.4585037   9.1746159   6.8271270  14.8258057   7.7281165
  24.8792210  16.0782261  55.7105865  24.6443481  15.5841980  54.9250908
  24.5093975  16.9490681  55.5653267  62.2364388  32.8392220  50.2371254
  62.0186462  33.7696419  50.1813011  62.7043877  32.6535072  49.4230194
  67.5614243  50.1281052  20.9147911  68.4449692  49.8481064  21.1539268
  67.6965027  50.8746414  20.3311214  78.6485214  65.6336594  87.9530563
  78.3107605  65.5222244  88.8417206  79.6001282  65.6306915  88.0563812
  71.2870483  31.5201244  13.9123516  71.7937469  30.7844639  14.2562952
  71.2123184  31.3419819  12.9748478  13.2560978  36.1715240  59.3841400
  13.2680893  35.3139877  58.9590225  13.4407396  36.7913017  58.6784363
  68.1292114  56.3888321  67.4862137  67.4615707  56.2646027  66.8116302
  67.7274323  56.9905472  68.1129074   1.4333376  66.8093643  24.5583820
   1.2122152  66.5487518  23.6642799   2.3552563  67.0628052  24.5129204
  52.8642349   6.9362416  84.0105667  53.5758362   6.4227180  83.6282730
  52.1249275   6.3294735  84.0491638  13.3243475  23.6310215  55.1652451
  12.3925638  23.5245113  55.3567352  13.7663918  23.0845909  55.8150482
  41.2299385  57.8234138  19.7259426  41.3854294  56.9166603  19.9902306
  42.0830803  58.2483368  19.8144169  57.4180450  57.0039253  73.4200439
  58.0012703  56.8227882  74.1571121  57.1850471  57.9269180  73.5201950
  17.9667282  65.7830124   3.6875510  18.5061779  65.0343170   3.9418762
  17.9559174  65.7564316   2.7307813  44.6840897   4.2578459  27.9622459
  44.5568237   4.4109268  27.0259762  45.4695435   4.7587376  28.1822453
  14.9010496  12.8546925  39.7126923  14.1843214  13.4870329  39.6609306
  15.6331825  13.2858915  39.2719231  26.6844578  43.6837540  12.5739822
  26.2060375  43.2794456  13.2977772  27.2452812  42.9848251  12.2375145
  37.6463089  14.3447313  49.4644852  37.0758820  15.0552664  49.1712494
  38.5309715  14.7035646  49.3948784  78.4021912  34.4604797  11.2710009
  77.5083008  34.3481865  10.9476175  78.9343109  34.5447655  10.4798117
  80.4448624  56.6473961  62.5915833  80.7996445  56.6762886  63.4801369
  81.1876755  56.8683891  62.0297890  54.2044029   8.6657019  13.1789732
  54.3825150   8.4125319  12.2732067  54.5832405   7.9604549  13.7037029
  45.7761383  14.4185600  87.4060440  44.8948479  14.0893564  87.5826492
  45.7413254  15.3420134  87.6555557  17.9238586  62.4756126  32.9853439
  17.7209396  63.1747131  33.6068802  18.8519115  62.5959167  32.7841530
  62.3083458  51.4563332  74.8416672  61.8411522  52.1826019  74.4287643
  62.1856575  51.5956078  75.7807007  35.9662781  47.4450264   2.1747680
  35.2945824  46.8221931   1.8970417  35.6377945  47.7988167   3.0013037
  42.2421913  58.9542427  27.3244534  42.0753365  59.8594551  27.5870914
  41.9526291  58.4307938  28.0717068  63.8312263   4.9639635  11.6261616
  63.1746254   5.6591177  11.6694221  64.3637924   5.1847429  10.8620520
  73.4542389  46.8577728  44.9192467  73.1733170  47.1332283  45.7918472
  74.3653259  47.1450615  44.8591423  42.6521187  56.8745384  83.2781982
  43.4701576  57.3696022  83.2339706  42.7477989  56.3226891  84.0544281
  57.0262413  42.1045647  49.1886559  56.2637863  41.8881378  48.6519508
  57.3597488  41.2572441  49.4837112  82.5067825  65.7923660  66.7557755
  82.4521637  64.8612747  66.5405426  81.7273254  66.1770020  66.3548660
  39.2945023  18.1298199  32.6144867  38.5101967  18.4491844  32.1682777
  39.7571678  18.9235420  32.8831482  59.9626274  39.4826851  79.1985321
  60.1256676  38.6655235  79.6695938  60.5766754  39.4626236  78.4645157
   5.0476737  13.0358181  69.0192413   5.2010984  13.9384499  69.2984314
   5.2404981  13.0390501  68.0816650  31.9851971   2.0590487  52.8081360
  32.9064980   2.1730421  52.5748100  31.5696182   1.7550162  52.0012360
  48.7851639  12.4030781  66.7627869  49.1937637  11.5618582  66.9668121
  48.7755013  12.4389391  65.8063049  80.4863586  10.2997570  26.8389626
  79.6818314   9.7812223  26.8292332  81.1242981   9.7608824  26.3711205
  17.0199585  22.4147663  73.8137741  16.9307575  21.9609680  72.9757156
  17.0531273  23.3427219  73.5813293   9.3004026   2.4367125  84.2221527
   8.4416876   2.3668284  83.8050690   9.2862711   1.7733569  84.9120712
  83.5797043  67.4712143  43.4269218  83.0115738  66.9661179  42.8452492
  84.3684769  66.9361725  43.5152550  27.9918499  36.1572266   4.4249859
  28.5133171  35.7147446   3.7552748  27.3434525  35.5059776   4.6927266
  71.7681580  28.7450008  81.2523956  72.0077438  29.5808258  80.8521118
  72.0586166  28.8226643  82.1611557  11.9059925  18.4513969  47.9618874
  12.3391943  19.0851536  47.3901215  11.9080400  18.8664246  48.8244324
  74.1503143  39.5235138  88.7704468  74.9458084  39.2575417  88.3092728
  73.5856094  39.8829193  88.0862198   3.3152950  49.4835777  29.3464260
   3.3734059  50.4207611  29.1605759   3.6728671  49.3919182  30.2295876
  34.8427391  35.4976540  14.6507587  34.6245956  36.4279747  14.7068968
  34.3541183  35.1825333  13.8903780  85.4183731  61.2438126   7.4171276
  84.5019760  61.3085098   7.6859608  85.4467545  61.6672974   6.5591736
  65.6752167  10.7826338  40.7419167  65.1152725  11.5335407  40.5448608
  65.1900101  10.2890034  41.4030724  39.5164871  11.7065907  35.4926872
  40.4261665  11.7636890  35.7850151  39.0163879  12.1496649  36.1781197
  76.8120346  62.3804588  81.3096466  76.2476349  63.0914192  81.0059662
  77.6663055  62.5705528  80.9219360  28.2627029   4.1833863  47.2406883
  28.9161129   4.6073642  46.6843300  27.6259575   3.8179741  46.6264725
  10.9642496  31.8418064  31.8980980  10.6284523  31.7062187  32.7841492
  10.3795938  32.4975777  31.5181293  10.8907280  66.2091522   1.9881945
  10.5433922  66.5255661   1.1542461  10.9840488  65.2644119   1.8657821
  72.0672073  54.9960251  42.0699425  71.8121490  55.2329674  42.9615898
  71.4942627  54.2634010  41.8436127  53.6192017  58.7464256  12.3018913
  54.1962013  58.3334007  12.9443188  53.3175392  58.0238113  11.7513828
   9.2960749  60.7369194  47.3109169   8.8606873  60.6591110  46.4620247
   8.7673311  61.3719978  47.7939644   0.3766820  29.4883080  18.8688011
   1.0008481  28.8189850  18.5883465  -0.2096005  29.0313988  19.4719067
  32.7473907  11.8836088  75.1575546  33.5074844  11.8211927  74.5791092
  32.8023415  11.1040144  75.7102280  79.0449600  13.0552483  53.6963387
  78.2719040  12.6357431  54.0740051  78.9230728  12.9747162  52.7503510
  30.7995892  60.3138008  40.6588745  29.9129581  60.5329170  40.3723373
  30.7072430  60.1112366  41.5898247  48.0331230  11.0882797  41.2250671
  48.1348076  11.7622089  40.5529709  48.5727158  11.3938637  41.9542389
  70.8098907  34.6692085   5.3583789  70.7290955  34.6861839   6.3120117
  70.6042023  35.5630684   5.0846324  34.8392258  23.2865753  86.1776657
  34.2880516  23.6768074  86.8560104  34.4296761  23.5520153  85.3542328
   1.1819751   3.2082756   4.0676455   2.0577903   3.0248969   3.7277160
   0.8315113   2.3490934   4.3026199  20.7322674  20.3752594  74.4134064
  19.8747101  20.3973713  74.8380661  20.9377937  19.4435062  74.3370895
  36.2361069  12.5703459   5.9678798  36.5313148  13.4774065   5.8883533
  37.0319099  12.0492430   5.8612237   6.1181107   9.5335388  25.5814686
   6.5388341   9.7719994  24.7554188   6.3657074  10.2324152  26.1868610
  64.8557816  36.7840157  42.5786171  64.9663086  36.3353386  43.4168892
  64.0709915  37.3195038  42.6952095  67.3116608  50.4542656  32.8085213
  68.2018814  50.7362175  32.5981865  66.8757324  50.3839912  31.9592533
  85.3762054  28.4848595  16.5656891  86.2943344  28.2227879  16.6334019
  85.4024353  29.4407940  16.5240459  19.3218784   3.8193996  88.0969467
  18.6453171   3.8108900  88.7740173  19.6173496   4.7292953  88.0650253
  31.4563580  22.8535595   6.4505115  30.7106686  23.3011551   6.8503103
  32.1379433  22.8769321   7.1221704  -0.0352259  55.3176880  70.1937485
   0.8214886  55.7223320  70.0576172  -0.3514505  55.6965561  71.0139313
  41.0060310  70.3905182  20.2001419  40.9097710  69.4540482  20.3733025
  40.2916260  70.5973511  19.5975876  82.3534622  35.5229836  30.6815624
  81.7203217  36.1761818  30.3837433  83.1905518  35.9871559  30.6898232
  73.0208282  18.2836227  54.0464096  73.0757141  19.2374268  54.1053848
  72.7447891  18.0051498  54.9196129   4.5338273  60.6428299  54.9185486
   3.8120058  61.2713318  54.9048424   4.2443995  59.9588242  55.5223694
  63.6275139  43.2961960  88.0719757  63.0473442  42.8849983  88.7127151
  63.0439110  43.8160629  87.5193634  27.5243340  18.2964134  20.8902702
  27.6483059  18.4070244  21.8329411  28.3925304  18.0653515  20.5600014
  70.8122864   5.6133256  62.4112129  71.4959488   5.0347281  62.0734825
  70.3114700   5.0651779  63.0153236  73.2181854  24.4305744  64.1223679
  73.0172882  25.1355743  64.7378693  72.4271622  24.3444996  63.5902939
  37.6870346  18.8876438  10.3621550  37.4095535  19.4603577   9.6471500
  38.4033928  18.3720093   9.9917688  16.1958866  26.3113575   5.4177022
  17.0102310  26.3925858   5.9141665  16.1775341  25.3968410   5.1356463
  33.5165520   1.5995684  55.1153336  33.9008560   1.2936553  54.2937737
  32.5717087   1.5592233  54.9674377  34.1497269  44.1191101   6.6948714
  34.0442924  43.2604980   7.1046290  35.0116997  44.4183388   6.9841700
  76.4734116  40.1169968  36.5769577  76.2874985  39.6230545  37.3755112
  76.3301239  41.0311508  36.8219490  56.3972473   5.4300284  16.8068714
  56.3079071   5.6591916  17.7319298  56.1721611   4.5005002  16.7675686
  16.9794960   1.7047702  37.4787025  16.7784939   2.2261510  38.2558708
  17.0924473   2.3495705  36.7803421  79.3171692  34.1484680  68.4415588
  80.2679520  34.0430717  68.4751282  79.1835938  34.9658051  67.9616089
  57.4059525  24.6698532  14.1693716  57.8456573  24.9653072  13.3721275
  56.4739151  24.6973057  13.9530640  64.1110458  41.8078346  48.2242317
  63.8347816  42.4767914  48.8506546  63.7795868  42.1175270  47.3813477
  22.1063766   2.1653562  61.9275665  21.6796780   2.7872615  61.3381653
  21.7454453   2.3672128  62.7908249  73.3217545  51.3705940  74.5313110
  73.3629532  50.9530144  75.3916321  74.2367401  51.4625130  74.2656326
  31.1235638   8.7681122  30.2487030  30.3756981   8.9465332  30.8188725
  30.9660416   9.3049278  29.4720135  61.0315170  46.1810837  83.5794144
  60.8097954  45.7345695  82.7622833  60.6010513  45.6632957  84.2597275
  16.3260231  23.6234035   4.0700855  15.8206167  23.0117264   4.6054821
  16.0643177  23.4270725   3.1705317  29.5682125  62.2084923  73.1402740
  30.0751572  61.4530182  73.4377594  29.8632793  62.9291420  73.6968994
  66.2382355  62.3237343  85.3493500  65.7369919  61.5941391  85.7136002
  66.8996658  62.5154572  86.0141602   8.8764544  42.6626740  47.9583931
   9.2557659  43.1864624  48.6640854   9.0098219  43.1897697  47.1706009
  49.6907730  21.5056095  74.1421509  50.3764610  21.1806374  74.7256393
  50.1654968  21.9359322  73.4310303  76.0899734  19.0858192  29.5663509
  76.5820923  18.4072304  30.0284805  75.6170273  19.5507355  30.2565727
   3.1242678  55.4235191  51.7671356   3.0608120  54.4777679  51.9004250
   3.7550998  55.7162933  52.4248314  37.7187119  65.1045990  60.0337906
  38.5116196  65.2802124  60.5404282  37.7005310  64.1521912  59.9398575
  73.8007202  30.1911411  13.4266291  74.2726593  30.8844929  13.8879004
  74.3471756  29.4134102  13.5395460   4.0500741  27.0226688  33.8566055
   4.2416234  26.6536827  32.9944038   4.0447469  27.9694901  33.7161217
   8.0699310  61.2330093  12.0317163   8.8646040  61.4381256  12.5243139
   7.4677420  61.9471931  12.2403870  81.4591064  56.8749580  56.1894035
  81.8546371  56.4504013  55.4281273  80.5167084  56.7668877  56.0611916
  80.4468994   4.2338581  18.2304230  81.1988754   3.7946680  18.6277599
  80.5434647   4.0721450  17.2919369  58.5625381  24.5669746  41.4783669
  58.3603325  23.7469597  41.9288368  57.7449646  25.0639477  41.5071144
  53.0634384  33.7162361  11.3148813  53.5734634  34.4481430  10.9678717
  53.5403023  32.9362373  11.0312653  82.5021210  54.0486794  16.0930862
  82.6170197  54.2844429  17.0136547  81.5588150  54.1151047  15.9447699
  53.8004150  16.2881145  17.5738544  53.4487038  16.4737091  18.4445362
  54.4262352  15.5776758  17.7147789  43.9218330  39.7394753  18.9529133
  43.8475380  40.5017242  19.5270996  44.7274551  39.8897858  18.4583340
  26.2355690  32.5349083  14.8789806  26.4318390  33.3568039  15.3286467
  25.7886963  32.8021202  14.0757771  26.0777225   5.9780164  83.6746521
  27.0087128   5.8425059  83.4982224  26.0350971   6.1530795  84.6147385
   9.7321777  69.2582932  87.6244278   9.1507721  68.9703140  88.3281860
  10.0728521  70.1008453  87.9248810  65.4891510  67.7865524  56.7143822
  65.4730148  68.7141266  56.4786301  65.5699539  67.7832108  57.6681595
  69.1168594  30.5156765  52.7377701  69.0130463  31.2197094  53.3779182
  68.2278824  30.3386345  52.4301796   1.4342866  57.1871948   0.3503745
   2.2371225  57.5692368  -0.0042133   1.7044475  56.3336029   0.6889359
  76.0759506  23.0125637  68.6364899  75.2318726  23.2831497  68.2751923
  76.5270462  22.5937080  67.9034805  69.5578461  39.7262993  41.1267624
  70.2392807  40.3737564  41.3075142  68.7403946  40.2231598  41.1604233
  74.6218033  45.6792946  61.8390045  74.8680496  45.2906532  60.9996300
  75.4456711  46.0013428  62.2047272  58.0475998  21.5412941  78.7536926
  57.8774605  21.2246952  79.6408539  57.6798782  20.8659058  78.1837234
  33.7189674  46.9602814  86.8703995  32.9551392  47.2509651  86.3721008
  33.6376610  47.4046059  87.7143173  71.0182266   9.4366531   2.9341378
  71.3079224   8.5308933   2.8250136  71.7981491   9.9029675   3.2349818
  66.2873230  25.3893909  18.3263988  67.0810318  25.7851906  18.6863995
  65.7502365  26.1338558  18.0552101  61.5638847  39.7837029  73.8735809
  62.5205231  39.7976494  73.9032211  61.3073578  39.2883301  74.6514206
  79.7117310  26.2552757  23.5073795  79.9706497  27.1232281  23.8169785
  80.0032272  26.2292633  22.5960159  72.7008743   3.5073459  28.2921333
  73.4539413   2.9642553  28.5248756  71.9550705   3.0724902  28.7055435
  19.6023464  30.6363430  76.7890472  19.4656067  30.6565838  75.8418808
  18.9901352  31.2866268  77.1333771  69.5814133   3.2236907  12.8838453
  70.4277267   3.5380230  12.5657625  69.4698639   3.6530108  13.7320623
  38.0046692   8.9663649  37.7494431  38.8678322   9.3639679  37.6350288
  37.8832397   8.9263563  38.6980667  52.4124832  41.3976059  62.6395798
  52.1960068  42.3257446  62.7286034  53.1498070  41.3810921  62.0294037
  67.3979874  41.2823753  16.0185795  66.5755920  41.3069496  16.5077610
  67.9958115  41.8299866  16.5274582  16.0056667  26.4215374  70.3387222
  15.9173965  26.2613354  71.2782898  16.7274837  27.0463276  70.2690659
  49.3850517  41.7916298  21.3167610  48.6865082  42.4451675  21.2828007
  49.0531120  41.0590591  20.7977371  43.1480827  56.6587944  76.3092194
  42.4294281  56.9744530  75.7613754  43.0050964  55.7143593  76.3711014
   6.4419432  24.5195961  44.1249886   5.6468625  24.1564865  43.7348213
   6.5186810  25.3937645  43.7426605  37.3620758  10.8726997  76.4030533
  37.0563850  11.7138186  76.0634842  36.6538734  10.2612238  76.2011108
  55.1402016  13.6724634  18.0036907  56.0808029  13.7506685  18.1630230
  54.9182739  12.7921429  18.3070335  27.0475349  54.5468178  75.6424713
  27.3087292  53.6310349  75.7391739  27.8732643  55.0240746  75.5610580
  25.7959194  38.0392227  87.5450592  25.3640079  37.7693253  88.3555145
  25.1209354  37.9489288  86.8723907   6.3460279  17.7364597  41.4205055
   7.1470761  18.1502228  41.0990219   6.2165618  18.1102600  42.2921371
  78.2290497   7.1393051  61.2775803  78.2800064   7.9113498  60.7140350
  77.2928314   6.9502568  61.3407516  77.0552139  28.7266235  10.8634682
  76.3552246  28.5468082  11.4910898  77.6270294  27.9608307  10.9165344
  35.0439644   8.1204243  21.9853916  34.5194626   8.9200106  22.0277042
  35.9162979   8.4194975  21.7288322  58.2858772  64.5219345  86.0992584
  57.9630928  65.4128113  85.9636536  57.5379486  63.9619484  85.8913040
  63.0527916  50.9744606  51.1096268  62.6656609  50.5182419  50.3624802
  62.8130569  50.4402847  51.8668671  41.9416084  12.1162500  11.5569792
  41.2803879  12.3954296  10.9236727  41.4397430  11.8663273  12.3327999
   8.0451641  55.5770226  75.3445511   7.6588817  54.7091484  75.4620895
   8.5782452  55.7100639  76.1283569  12.7144337  26.9966888  66.4260941
  11.8225155  26.9302101  66.7671127  12.7611828  26.3255062  65.7452393
   1.7403786  46.9383049  24.3779907   1.1296002  47.6010513  24.7004013
   2.6063604  47.2901649  24.5841446  64.2077866  56.2296982  80.3416367
  63.8696785  55.3376465  80.4201202  64.8146744  56.3213043  81.0761566
   8.3560162  55.5489273  37.1541252   7.5247788  55.6371231  36.6877594
   8.2800198  54.7185326  37.6241302   3.3477738  58.3411827  41.8971634
   3.2387671  57.3960342  42.0022621   2.7326677  58.5774879  41.2028732
  62.3760757  30.7684116  48.0749817  63.3233795  30.8591270  47.9719391
  62.2681389  29.9915829  48.6237221   6.7713766  22.9548779  80.1453781
   6.7855544  23.6735287  79.5132599   5.9407482  22.5082417  79.9816589
  74.8656693  15.9290981   3.9648638  75.0476990  15.3184109   4.6791172
  74.3600845  15.4162836   3.3342783   3.6812918  54.6674423  61.9200554
   3.6433792  55.2878914  62.6479530   4.5836821  54.3482132  61.9241982
  77.9864883  29.6303558  36.6235657  78.0846634  28.6939297  36.4512253
  78.1430283  30.0475063  35.7763824  74.3880692  13.7058372  79.8668518
  74.3379059  14.1540356  79.0225601  73.6970749  14.1081924  80.3930435
  13.1023817  52.4536972  83.5022659  12.3047104  52.5839958  82.9894562
  12.9583883  51.6273117  83.9633331  37.1977081  24.5969257   0.5889931
  37.3017998  24.2446461  -0.2949167  38.0909271  24.7788582   0.8810410
  84.2500229  46.3303108  44.3493195  84.2433701  47.1865387  44.7771759
  84.3343811  46.5291786  43.4168167   2.0046446  66.1157303  73.0265579
   2.8949940  65.7741699  72.9438248   1.4708819  65.3469543  73.2273407
  11.8160887  12.3395023  25.6773148  11.2263536  13.0813999  25.8115940
  12.4511290  12.6519232  25.0328388  42.6058464  48.7188263  13.6443520
  43.2379303  48.0737648  13.3271790  43.1422615  49.4025879  14.0455542
  80.6202621  62.9648895  26.7615051  80.9638290  62.4691658  26.0182323
  81.3676071  63.4734955  27.0761871  59.0074196   7.6968527   9.3189583
  58.3725204   7.3247509   9.9310675  58.6985245   8.5900021   9.1669693
   7.8800306  33.5415382  54.3194618   8.4745665  32.8089981  54.4811554
   7.0569272  33.2771645  54.7303619  65.4436569  41.7779617  37.2744446
  65.3363495  41.2503471  36.4830284  65.0483398  41.2511024  37.9689751
  62.0890312   2.8760867  54.9094887  61.7980537   3.0533743  54.0149879
  61.3989830   2.3267586  55.2813835  56.5160217   2.4666803  16.7440872
  56.7562599   2.4483144  17.6704674  57.2954216   2.1490037  16.2881851
  63.0622749  37.0609779  80.8751678  62.1264000  36.9320450  80.7210541
  63.2025871  36.7511520  81.7699051  12.7324877   7.5607457  46.9535294
  13.1982498   8.3936405  46.8787994  11.8241978   7.7742395  46.7398376
   2.0775611  42.3063316  69.3963470   2.1317244  43.1090736  68.8777924
   1.1612079  42.0383110  69.3278427  82.1949081  14.5319033  87.8423157
  81.8015518  14.9815111  87.0944138  82.9644852  14.0928078  87.4801407
  59.5513115   6.0697231  54.4589386  59.7838440   6.9557934  54.1813774
  60.2291031   5.5130377  54.0756187  10.7792425   8.6153698  14.2418547
  11.3010445   8.7661123  15.0300379  11.2900219   9.0130939  13.5367651
  25.5307827  43.6040459  15.4669895  25.6907845  44.5307732  15.6453381
  24.7614536  43.3880692  15.9939775  13.8833342  40.6144753   7.0914216
  12.9389000  40.7701454   7.0980825  14.2536860  41.4054031   6.6996222
  53.1735611  47.7480583  32.9058456  52.9737778  48.3337479  32.1755791
  54.1288185  47.6872444  32.9096756  36.7946129  61.3500824  27.6883183
  37.0584221  61.1872292  28.5939217  36.0859261  60.7265701  27.5294819
  30.4308472  45.5347633   3.8650544  30.6530437  45.1793213   4.7255902
  31.2114849  45.3800507   3.3331697  40.4979897  70.8404465  13.8229427
  39.6113167  70.4837799  13.8761930  40.5578308  71.4449234  14.5627127
  19.9275246  46.6562881  30.2581291  19.0298767  46.3501854  30.1286697
  20.0045815  46.7791367  31.2042809  49.8449631  34.2506828   8.4109116
  50.0791016  34.4937515   7.5151839  49.2529373  34.9448662   8.7004833
  14.4478493  52.8075600  51.5478897  15.1009836  52.2210693  51.9295654
  14.4290876  52.5736504  50.6198997  34.9823151   3.2832775   1.6121713
  35.0259247   4.2206059   1.8012375  34.1192360   3.0152245   1.9275584
  57.7317009  20.2124863  46.1377831  57.2858200  19.3770409  45.9983025
  57.1063042  20.8711281  45.8356209  70.8051834  36.8446388  17.5408516
  71.7349243  37.0610390  17.6113949  70.6470795  36.7713127  16.5996513
   0.8105775  43.2644348  32.7976303   0.2806804  43.5528145  32.0544739
   1.6953595  43.5666237  32.5925064  28.0878296  39.8162537  86.6134262
  27.6498356  40.2393761  85.8749390  27.4639359  39.1562653  86.9157562
  45.9253731  70.9486084  52.7046394  45.2053490  71.2405548  53.2637177
  45.8543739  71.4916229  51.9195747  62.1130600  22.4931068   6.4465208
  62.1947021  21.6042156   6.1009188  63.0135384  22.8135319   6.4984665
  84.1940689  54.2383842   8.4740448  83.4290924  53.7854843   8.8289022
  84.5316086  54.7503319   9.2090311  80.9063416  11.5271082  60.5802574
  81.7393799  11.1464138  60.3021164  81.1543274  12.2651091  61.1371193
  48.4036903   8.5102892  58.0059776  48.5702209   9.0154238  57.2101517
  47.8920364   9.0990982  58.5607224  53.2490158  41.3458977  75.0020828
  53.1646194  41.0608330  75.9119415  52.6982193  42.1265640  74.9436035
  36.4126663  59.3115540  44.8167496  36.5145340  60.2577171  44.9198494
  37.0452042  59.0750656  44.1383705  22.7506428  23.8688965   2.0721436
  22.2067318  24.4966373   1.5963975  23.6423244  24.0519371   1.7761171
   5.1352434  36.6331902  33.2164574   5.5650043  37.3473129  32.7457542
   5.7433400  36.4108963  33.9214668  82.0124969  64.1530991  62.7116699
  82.5244980  63.6099281  62.1124649  82.1939774  63.7899666  63.5785217
  39.5608559  67.5601578  85.2688141  39.9515419  66.7663803  85.6342010
  40.2684288  67.9670868  84.7688370  52.6094704  68.4220810  46.5561523
  52.2201271  67.6232529  46.2004509  51.9555779  68.7537842  47.1714821
  80.6010666  37.8971100   1.3773222  81.3067856  37.7995148   0.7380524
  80.9912262  37.6255188   2.2081316   0.1043789  48.3683891   2.5193172
   0.9944836  48.7186050   2.4833536  -0.4427623  49.0676384   2.1616640
  42.1421623  48.4556160  74.7103806  42.6672554  48.3438034  73.9179077
  41.4221153  47.8329048  74.6104355  29.8333454  20.2945614  50.4663734
  29.6631603  20.4886379  49.5446358  28.9678192  20.2956867  50.8751450
   1.2127912  26.7572899  71.0840454   0.5235866  27.3655052  70.8170166
   1.3983592  26.2450886  70.2969971   7.6924925  31.6692562  20.4191017
   7.3998203  32.5042152  20.0538330   8.0134878  31.1767349  19.6637096
  62.1707497  33.7742462  67.4704742  61.2335510  33.8349533  67.6554108
  62.4053612  32.8786850  67.7136917  80.3411560   5.0811696  51.4737167
  79.8992386   4.8758478  50.6498337  81.2342758   5.3095584  51.2160149
  60.8846855  69.8566055  35.2916451  61.5468063  70.5398865  35.1869659
  60.3802567  69.8853378  34.4786530  39.8311119  28.4320507  25.0287685
  39.0007858  28.7789440  25.3550453  40.4998550  28.9436550  25.4840393
  13.4031706  59.1801453  26.0108738  13.0200653  58.8678398  25.1911640
  14.2960491  59.4334831  25.7767372  54.3972282  31.4765034  10.5255518
  54.5842896  31.6080856   9.5960760  54.0207481  30.5976772  10.5720263
  75.2759552   5.8742933  84.6800461  75.5889893   4.9926052  84.4778900
  74.3991699   5.9106779  84.2977600  16.7261238  31.6828842  83.2377472
  17.3890133  31.0746803  83.5646973  16.2241344  31.1715469  82.6031036
  55.8285027  27.4867325  10.2544994  54.9567642  27.8450565  10.4215450
  55.8856087  27.4305134   9.3006601  69.0047684  42.9120522  18.3618145
  69.1135559  43.5429878  19.0733719  69.7969589  43.0082436  17.8332138
   9.3422680  64.8349762  48.6459770   9.2758827  65.7425308  48.3490410
  10.2256098  64.5648727  48.3950195  60.8169212  45.4066963  43.4407654
  60.4780502  45.8558655  44.2151299  61.6152687  45.8848839  43.2166901
  56.0703392  12.9589682  81.9853973  56.4806900  12.6599512  82.7968369
  55.4849548  12.2440662  81.7354507  45.4559097  18.2251663  27.4035378
  44.6739731  17.7085571  27.2088051  46.1625824  17.5813046  27.4513550
  56.8363152   7.6698089  84.8138809  56.5633202   6.8704348  85.2641068
  56.1968384   7.7785387  84.1099777   8.7153339  62.9483757  62.1363907
   8.9748917  63.7006340  61.6044388   9.5422325  62.5658379  62.4298744
  33.3445015   1.6267180  73.7160645  34.2629128   1.5898304  73.9832611
  33.2251778   2.5192373  73.3914108  12.3881102  11.6768732  71.4564285
  12.4944715  10.7438059  71.2712173  11.7730207  11.7070055  72.1892242
  15.7353125  47.0642891  30.8203793  16.3168411  47.6103897  30.2913914
  14.8728065  47.4675484  30.7219086  26.6519299  36.3962708  15.4307919
  27.4330368  36.4865952  15.9766359  25.9523029  36.1810188  16.0475731
  10.7324209  66.4034805  79.8958282  11.2120991  67.1897888  79.6353455
  11.3733282  65.6963882  79.8217163   8.1287813  59.3994064  67.7357788
   8.0426683  60.2969933  68.0569611   8.4542799  58.9058495  68.4885712
  58.0806351   1.7138296   6.1204243  57.9601173   1.0686488   5.4236827
  58.7698288   2.2925577   5.7943563  70.5170441  13.6440802  69.6224365
  71.2817383  13.3978729  70.1428680  70.8099747  14.3955956  69.1070251
  18.8165302  57.8238335  43.6253777  18.5744171  57.0079842  44.0635567
  18.0365391  58.0689850  43.1276360  79.4598770  53.0074120  80.8454514
  78.5257111  52.8254509  80.9477234  79.8197174  52.9158287  81.7276993
  72.5973511  24.9306622  86.2712784  72.4145508  24.0460682  86.5879898
  73.4454193  24.8578167  85.8334274  13.4832830   8.9723730  31.4410439
  12.9433336   8.2756243  31.8141766  14.1734896   9.1135664  32.0890465
  30.0988750  64.3871689  48.6055412  29.1598473  64.5689621  48.6431274
  30.1657543  63.4426003  48.7453499  73.5696335  62.2222786  16.4216766
  74.4507904  62.3518257  16.0709515  72.9872437  62.5043640  15.7163525
  42.8007889  32.4422951   6.9325051  42.3264313  31.8806038   6.3195448
  42.6797218  33.3275108   6.5890441  79.1998825  19.8841248  22.1627388
  79.6999054  19.3528671  21.5430794  79.4961700  19.5898895  23.0240574
  26.3005295   3.8837550   1.5588974  25.7533531   4.4387822   1.0032220
  26.2022514   3.0055363   1.1910589  86.1088486  22.7559261  40.2475090
  85.8941116  22.4641514  39.3615150  85.3729706  23.3130379  40.5011597
  86.8875198  38.4031639  76.1984711  86.0669632  38.8316841  75.9549637
  86.6925735  37.4672852  76.1499329  38.6738358  16.1306038  34.3243752
  38.9558830  16.9399338  33.8981514  39.4137383  15.5329103  34.2169609
  29.0141621  52.2940331   6.6597185  28.7132854  53.0033760   6.0917916
  29.4476681  51.6801033   6.0669351  78.2714386  69.9676056  42.7731857
  78.5203934  69.8225098  43.6859856  78.0594559  70.8999481  42.7280426
  12.9956512  49.4893723  88.7673798  13.5074387  48.9278145  89.3495865
  13.2292576  50.3803902  89.0276642   9.7589102  22.2629757   4.2519584
   9.3765860  21.9096489   3.4487028   9.3850794  23.1407681   4.3291907
  52.3354721  53.3612671  20.5839367  52.5020142  52.9477158  19.7369022
  52.7874527  54.2034531  20.5322838  15.4282646  66.9212799  85.5041428
  15.2998934  67.8351593  85.2500229  14.5677595  66.5178375  85.3901291
  23.7039909  15.2324629  58.1185188  23.9846306  15.4796305  57.2373962
  24.4102154  15.5361481  58.6888313  67.8077621  64.3666611  67.4489517
  68.3022766  64.4201965  66.6311417  68.0837784  63.5386658  67.8419876
   8.3360138  18.7094021  77.3464355   7.4721560  18.6588955  76.9372482
   8.9403114  18.8371429  76.6151733  36.2220154  41.0344315  21.4655914
  36.1417274  41.6818161  22.1660748  36.1191559  41.5399590  20.6593075
  70.0877762  13.8876495  18.3136425  70.5581512  13.0617332  18.2003155
  69.3124313  13.6536512  18.8238506  41.8614693  13.9777451  28.4446430
  41.3287048  13.8126059  27.6667461  42.0567474  14.9140511  28.4068508
  11.1841068  43.0504875  59.1963005  12.0537062  42.6505089  59.1896286
  11.3114252  43.9072685  58.7889328  34.8991356   2.2190764  66.6683426
  34.8229141   1.4113164  66.1604614  34.1545715   2.1952326  67.2694168
  55.4727974   5.3314738  67.8900223  55.1893578   6.0748315  67.3577499
  54.8446198   4.6383047  67.6871872  35.6506233  17.3002987  16.6206989
  36.5682487  17.5697365  16.6607533  35.2591209  17.6647511  17.4145088
   2.2522361   1.7615089  65.7861176   1.7536777   0.9809861  66.0278931
   2.3423283   2.2509649  66.6037674  18.4742012  14.8181877   9.6963654
  17.5544777  14.5933781   9.8370829  18.4610786  15.4320078   8.9620066
  56.1236572   8.3846302  78.9676895  55.1983261   8.2539215  78.7605438
  56.1322899   8.5991917  79.9004898  63.9890747  45.1051521  13.2732992
  63.4639397  44.3220215  13.4381428  64.5720596  45.1662636  14.0300207
  52.9421310   7.3786092  43.6075439  53.2814102   7.6893511  42.7681656
  52.1345100   7.8755112  43.7381897  56.2550774  31.0150986  40.3102264
  56.6809578  31.7273121  39.8331451  55.3199387  31.2087803  40.2451324
  58.0076065  14.4048929  85.8459015  57.1975555  14.8484621  85.5943069
  58.0283012  14.4674759  86.8008270  80.8899155  28.6793480  13.1447344
  81.4885941  29.2445545  13.6329432  80.2620926  29.2824478  12.7468100
  22.2120285  27.8140717   8.2070332  22.0232716  28.0607738   9.1124287
  21.6679420  27.0422153   8.0507021  82.6471405  36.7296257  11.8375711
  82.2273178  36.1704941  12.4912920  83.3658905  36.1987381  11.4943762
  61.7575531  19.7080688   5.4622874  61.4565125  19.2446232   6.2438402
  60.9540863  19.9358635   4.9945455  50.4647064  60.2005768   9.7145615
  50.4301529  60.6710510   8.8816786  49.5849342  60.2950325  10.0796776
  76.5931931  47.1379013  81.3498840  77.1327515  47.9112625  81.1855087
  75.8283997  47.2552643  80.7863617  66.6725540  15.1998501   6.8591623
  66.1978760  14.4283457   6.5498161  67.4276123  14.8444614   7.3280015
  40.5498047  35.2842140  41.1774445  40.6462402  36.1675262  40.8215141
  40.0281792  35.4015427  41.9714050  84.8173370  27.2801571  63.8984222
  84.4099426  26.6792316  64.5222397  84.2141953  27.2992344  63.1553955
  79.9373093  12.7835426  81.5456085  80.5227509  12.7297993  80.7902222
  79.0929871  13.0423737  81.1763229   1.6256288  31.9745750  29.3180046
   2.0420251  32.8359985  29.3462048   1.0605295  32.0068626  28.5460911
  56.4784317  11.0929642  55.2237930  55.6387939  10.7856369  54.8820534
  56.3891563  11.0257587  56.1744461  38.8738747  68.0284424  20.2744408
  38.5134850  68.8542786  19.9514313  38.2398567  67.7290115  20.9260502
   5.8039179  41.6118050  43.8210030   5.5648518  40.9163742  43.2082596
   5.0269222  41.7264977  44.3681374   6.9353833  34.0414886  19.2101517
   7.2295833  34.7512054  18.6392059   6.0908589  34.3400230  19.5476227
  18.3997746   2.5620329  61.3503914  18.9014988   3.0766318  61.9826012
  17.6709824   3.1311111  61.1029167  48.3017921  20.8400097  34.4115562
  48.8808670  20.0897560  34.5457954  47.4341393  20.4542694  34.2906570
  76.0813599  61.9746857  34.9422302  76.4439697  62.1339569  35.8136520
  75.1482468  62.1682396  35.0320473  17.8550243  26.8308392  28.0689297
  17.7431450  26.9368019  29.0136433  16.9628410  26.8123913  27.7226620
   1.4863726  71.4535980  31.6179924   1.9399101  71.0486374  32.3572769
   0.6324565  71.7053757  31.9696579  49.4005661  64.5632858  16.3831959
  49.2351036  64.3042145  15.4766979  48.8265724  65.3159027  16.5257835
  86.8700180  18.4071980   1.2351418  86.2918091  18.7742939   1.9038345
  86.8442993  19.0436611   0.5206586  74.5786667  34.4201775  64.7511368
  74.5009689  35.3188820  64.4309464  75.3677216  34.4263344  65.2929764
  10.7129602  61.2966919  13.2033396  10.3283491  62.1517487  13.3961782
  11.4806910  61.2454872  13.7727251  64.5855179  59.4765854  79.6370697
  63.9771004  59.9918060  80.1667938  64.7885742  58.7141762  80.1790390
  57.9747238  62.8551064  44.0360794  57.6313934  62.6767693  44.9116058
  58.1454468  61.9894981  43.6648560  45.3917160  28.7712822  11.9366827
  46.2780037  29.1061649  12.0729866  45.0633430  29.2623062  11.1834908
  32.1523514  55.4625931  11.1444206  31.3021584  55.7273598  10.7932768
  32.2523384  54.5515556  10.8682880  47.7947426   8.2979736  17.2825394
  48.5042953   7.6576505  17.3350544  47.0379486   7.8482213  17.6583271
  67.4640198  10.5845661  20.9453983  67.5300446  10.3088789  21.8596573
  67.8812866   9.8786459  20.4516411  83.6191559  48.1712914  79.7823334
  83.3888168  47.2426872  79.7527313  83.3631668  48.5090370  78.9240646
  15.5149240  54.8251190  42.2278214  15.5971527  54.5488739  41.3150444
  15.1002522  55.6865578  42.1809273  63.7130318  55.8137169  51.8081360
  63.7793274  55.5640755  50.8864441  63.0842934  55.1947250  52.1793060
  32.6121254  24.8491135  83.3199768  32.4433784  24.4033470  84.1500702
  31.9660358  24.4831600  82.7159271  55.6872826  22.9290886  64.4596252
  56.4596977  22.3767776  64.3389740  55.9813347  23.8078346  64.2196884
   7.3731017  28.8827343  49.3795242   8.1993456  29.1479740  48.9755440
   7.5635710  28.8530769  50.3171158   8.7022305  24.9639587  45.5030708
   8.0513926  24.5267315  44.9540024   8.5246859  25.8974495  45.3877258
  70.2040634  21.5422497  44.8661919  70.7205429  21.3493309  45.6486626
  70.6915970  22.2362843  44.4225082  23.5605583  51.1712303   6.9045205
  24.2193203  51.6944351   6.4478807  22.8121433  51.1547432   6.3080015
  13.4699125  68.5705948  30.7433414  13.8309431  68.9541779  31.5425606
  13.6923304  69.1975632  30.0551014  55.7527466  28.0867939  85.6586151
  55.8008003  27.5395031  84.8747787  56.5441322  28.6241665  85.6244125
  65.0033493  66.7142639  45.6022568  64.4046249  66.0640030  45.9695740
  64.5694885  67.0153427  44.8039169  18.8439045  61.2278404  61.6567802
  18.2038670  61.2135544  60.9451790  18.3160458  61.2961197  62.4523544
  61.7821541  25.0928478  23.1668530  61.8998451  25.4692650  22.2946777
  61.2507553  24.3103104  23.0202751  12.7439919  15.8181219  72.8794174
  12.8254881  15.4678020  71.9923630  11.9091043  16.2862930  72.8762741
   0.3369048  63.2565994  52.5964050   0.8448549  62.5221100  52.9409981
  -0.3028565  62.8515701  52.0108376  21.7822323  21.2431412  58.5204430
  21.6979160  21.0611382  59.4563904  22.3787422  21.9903355  58.4745293
  55.0779076   9.9857950  49.8698273  54.1988449  10.1831007  50.1931686
  54.9568939   9.8155069  48.9357033  16.0524063   6.2867951  47.2770157
  16.1903152   7.2029881  47.0365906  16.8382034   5.8368473  46.9666862
  57.4275932  70.3624725  50.8757401  56.9389496  71.1764832  50.9975891
  57.4403343  69.9585876  51.7434654  11.2712936  10.1494579  53.4119034
  11.1283302  10.5776863  52.5678596  11.2724581   9.2140646  53.2087555
  30.9052620   5.9051433  12.8525743  30.1739101   6.0445838  13.4541674
  31.6805553   6.1519446  13.3567972  67.1853867   7.9985318  14.3152313
  66.7034912   7.3871441  13.7582645  66.5655365   8.2328310  15.0059681
  40.2891388  52.5025520  85.5247498  39.5422134  51.9040794  85.5117416
  39.9590034  53.3063774  85.1233749  21.2924557   2.1091583  64.6464615
  21.5118923   1.3263494  65.1517181  21.0821095   2.7693317  65.3068848
  59.2551880  69.5391388  82.5123901  59.3738060  68.8589935  83.1753922
  59.1921501  69.0598679  81.6862183  38.9701347  15.3865805  45.8696060
  39.4899559  16.0803013  45.4636879  38.2168121  15.8411541  46.2465706
  55.3012505  49.1046028  84.5035934  54.9720917  49.0827484  85.4021530
  54.6046829  48.7038879  83.9835434  31.1230621   6.0916829  78.4688873
  30.4270611   5.4414816  78.3737411  31.2547359   6.1650114  79.4141464
  57.5993690   6.6811895  81.3619919  58.2935295   7.1709518  81.8030243
  56.7878227   7.0405574  81.7204285  58.1929893  10.8016663   7.7977738
  58.6556015  10.2007713   7.2136965  58.2704048  11.6558619   7.3728170
  33.7981911   4.1238785  72.6942825  34.0331726   4.8381848  73.2865524
  33.6196098   4.5547428  71.8583984  57.4807320  22.6644402  27.3233013
  57.4249191  22.6667500  28.2788696  57.2686043  23.5624771  27.0688210
  13.6741629  53.6091499  14.4612551  13.8125629  52.7758102  14.9113941
  12.7670250  53.8410416  14.6601496  42.0679665   4.6763797  43.5323524
  42.5459213   4.4989357  42.7222290  41.5571785   3.8819599  43.6879997
  85.3176727   1.0702697  64.9611206  85.7552185   1.0496825  64.1100311
  84.6540375   1.7543819  64.8727722   8.0469360  52.8808022  87.6630096
   7.9323277  53.1623802  88.5706558   7.2194061  52.4557037  87.4378052
   0.3784445  45.8218803  14.8426819  -0.3271924  45.5105133  14.2757978
   0.6200383  46.6735306  14.4785986   6.3150601  14.6941004  71.8179550
   7.0862393  14.4192314  71.3220062   6.2298884  15.6287479  71.6297684
  36.5874062  28.1007633  27.8494263  36.8126678  27.1790657  27.9757652
  35.7540627  28.0813389  27.3789043  12.9160843  58.3752556  11.0073500
  12.3464127  58.2225609  11.7612667  12.3739271  58.8714523  10.3940916
  16.0682240  23.7504692  19.1445274  16.6169815  23.9651337  19.8988590
  16.3933811  22.9012203  18.8457317   2.3860476  70.3820496  47.1304550
   2.7163689  69.7884750  47.8048363   2.8799343  71.1915207  47.2610626
  72.9749603  65.7811813  80.7139893  73.7112122  65.1746521  80.6347198
  73.3321304  66.6277847  80.4457855  60.9004173  14.4727755  28.8077412
  61.0612488  13.6589193  29.2852383  60.1552238  14.2744894  28.2406425
  23.5787315  38.9050751  59.2285347  23.3011932  39.7394676  58.8503990
  23.0264969  38.7975807  60.0029488  47.6794357  10.3593502  21.4155025
  47.2468071  10.6500111  20.6126442  47.2198219  10.8219557  22.1162052
  77.8079376  43.0910568  59.6336555  78.4570007  42.4263687  59.4031563
  78.1601639  43.9048843  59.2733078  25.8680115  31.4376163  28.4372101
  25.4942341  31.0958385  29.2494354  25.1909924  32.0166283  28.0870361
  47.2031517  21.2829475  73.5896912  47.0647926  22.1446552  73.1965714
  48.1302223  21.2743740  73.8278046  56.4410362  70.7786407  68.9411392
  55.8693657  70.9794617  69.6821518  56.5667458  69.8307724  68.9856186
  20.9887791   2.2574894  40.5295982  21.0356865   2.2374690  41.4854393
  20.2654648   1.6691868  40.3129196  48.1110191  51.6452065  53.6346588
  48.4745140  51.0556183  54.2953300  48.4169655  51.2883224  52.8008347
  84.6399460  48.3791313  11.5442991  85.1302795  48.6187820  12.3306656
  85.2670975  47.8915253  11.0103006  68.9864731  60.2782974   7.7677054
  69.9003448  60.4711418   7.9772167  68.6543655  59.8228111   8.5413113
  54.2822762  51.5540810  87.7312622  55.1151047  51.0886230  87.8085632
  54.4248505  52.3788528  88.1956558  29.1495247   3.5230191  68.3233109
  28.6765766   2.6912901  68.2954178  29.7415924   3.4871855  67.5720444
  85.1236877   7.3964062  70.1153641  85.6829453   6.6621866  70.3690948
  85.3709641   8.1031036  70.7117386  85.0126877  69.8157730  37.0200844
  84.2919846  69.3061371  37.3903389  85.7404785  69.6766586  37.6260567
  44.3076630  49.0499496  79.0865326  44.9056435  49.7925720  79.0019073
  43.4397507  49.4478569  79.1545944  31.7183876   1.3945919  35.7442131
  32.0554695   0.5537397  36.0533676  31.0148430   1.6102793  36.3563728
  63.4525375  70.3060226  27.8905849  63.7125473  69.4622955  28.2603836
  62.7080917  70.5825424  28.4249649  54.8330650  19.6307774  79.5718536
  55.1884918  19.4309807  78.7058411  54.2072868  20.3382435  79.4165344
   6.0801497  32.5935745  37.0331078   6.6643248  33.3334160  36.8669472
   5.7694230  32.7300568  37.9281235  81.8948669  34.7640228   5.7234392
  81.8379974  35.3680687   6.4637942  81.4279556  33.9814568   6.0163960
  28.8183289  48.4301453  27.1170578  29.7061958  48.1068764  26.9640236
  28.9389153  49.2235603  27.6387711  46.1956558  15.4508801  28.6640396
  46.4782066  15.7363091  29.5329056  45.4447212  14.8814058  28.8314552
  41.7595596  54.5991478  45.2527542  40.8882103  54.7623062  45.6138077
  41.8859978  55.2954636  44.6082497  24.7622433  62.3770294  16.8063774
  24.1006107  61.7757835  16.4643536  24.2604122  63.0441399  17.2747402
  82.4870300  40.3523560  10.0919037  83.0693207  39.7142868   9.6795416
  82.9977875  41.1615067  10.1170654  80.8334045  42.1695328  22.1910572
  81.0107269  41.2736168  21.9044895  81.6603241  42.6323242  22.0558929
  10.8753080  25.4096794  18.5602837  10.1488972  25.0091667  19.0379333
  10.8647051  26.3270302  18.8333912  12.1397762  19.6723957  42.2369843
  11.6881313  19.7218723  43.0794830  11.5206299  20.0477867  41.6109085
  19.8275242  48.9601135  83.7401276  20.2679787  48.6160393  82.9630585
  20.0362396  49.8942833  83.7398300  39.1063766  51.5392532  11.3207560
  39.2571793  51.4122429  12.2574310  39.9004593  51.2059250  10.9029541
  68.8412552  38.6439438  47.9679604  68.4531479  37.7832108  47.8106651
  69.6812057  38.4550972  48.3863602  49.6398048  44.8792114  46.0038719
  50.5235634  44.5319328  46.1246796  49.3000717  44.4097786  45.2420006
  12.6404610  53.4811516   7.2004423  12.6698065  54.2397423   7.7834630
  12.0091143  53.7238884   6.5231590  56.0159035  67.0536041  37.9672203
  55.6490097  66.6459579  38.7517281  55.8274765  66.4321823  37.2639656
   9.0837421  66.5599899   3.8811729   9.2684603  67.4733276   4.1001043
   9.5862999  66.3987503   3.0826311  29.9213696  39.5958786  79.8185806
  29.4542751  39.1208153  79.1312866  29.3051586  40.2700577  80.1049423
  10.2878895  63.6152573  45.7838593  10.2825994  62.7522736  46.1979446
  10.7291021  63.4761238  44.9458847  59.1973076  56.1499214  57.3546791
  58.7737923  56.8582764  57.8395500  59.9019585  56.5795059  56.8697510
  57.8421249   8.6296682   4.3064399  57.2922363   8.3953848   3.5587995
  58.3614235   7.8439522   4.4773588  83.8062897  10.3367777  19.1931934
  83.5471954  11.1881361  19.5457420  83.3164444   9.7019424  19.7159405
   2.4863622  51.5229950  77.0582428   1.6335253  51.1223221  77.2266617
   3.0733259  50.7821922  76.9068680  11.4255695  56.9332275  87.8366013
  12.1150217  57.5925102  87.7576447  11.4474764  56.4627800  87.0032806
  84.1151886  13.8135538  34.5005760  85.0327606  14.0551271  34.6268425
  83.6626663  14.6479301  34.3770103  21.2619400   3.9211237  74.2813721
  21.6904278   3.8853154  75.1365662  21.9507828   4.2040997  73.6800003
  31.5484371  32.3224907   1.7820880  32.1160393  32.7116089   2.4474065
  31.2773418  31.4851933   2.1584795  71.8483200  67.3829956  56.9381104
  72.2803268  67.7551956  56.1693001  71.2087097  68.0460510  57.1978989
  83.7321014   6.1626682  21.0049477  83.7847519   7.1138215  20.9113159
  83.6248398   5.8395085  20.1103554  24.5430222   1.7445146  13.2931938
  25.4446754   1.4232681  13.3005695  24.0950871   1.2161077  13.9537783
  68.5805435  46.5318260  31.4992695  69.2160950  46.9607201  32.0722961
  67.7916489  47.0690079  31.5720959  61.7618980  35.4399071  43.0516014
  62.4330330  34.8938332  43.4610100  61.7318077  36.2286873  43.5930328
  78.6645813  57.9918098  57.4709854  78.5123825  58.9278679  57.6008415
  77.8889999  57.6860352  57.0006561  30.1173897   5.8563695  46.0245171
  30.1175117   6.7923875  46.2247734  30.8257504   5.7470798  45.3900795
  43.9401245  53.9055557  82.7181015  43.9458656  54.6363716  83.3362503
  43.8115501  53.1304359  83.2648087  11.1969671  46.2551003  25.5238781
  10.9329729  46.8670006  24.8367710  10.5825977  46.4188347  26.2394009
  56.5765076  34.7286835   1.8871005  57.0063095  35.0136642   2.6935060
  56.2716064  33.8418083   2.0787268  74.8283081  39.6366196  34.3316231
  75.3198166  39.1127319  33.6990166  75.4522705  39.8078461  35.0370216
  64.7611084  22.5693893  41.3154869  63.8729820  22.2370243  41.1851082
  64.9940109  22.9661102  40.4760818  60.2268333  23.4235268   1.4146446
  59.5267181  23.0874329   1.9742069  60.5002556  24.2381744   1.8363364
  85.5966797   4.6297927  15.5376120  86.3852921   4.9012060  16.0073547
  85.9158630   4.0403900  14.8542662  76.6455765  70.9848938  50.7193527
  76.3057022  71.5380478  50.0159760  76.7704697  70.1281433  50.3111801
  64.3522797  58.5512466  38.7487602  64.9758759  59.2764320  38.7869949
  64.1157913  58.3903008  39.6622162  50.5642471  50.2783241  49.0493431
  50.5091629  49.7299843  48.2667046  51.2447701  49.8672485  49.5823936
  72.7340469  67.6053238  38.9355927  73.2025528  66.8907700  39.3670502
  72.7581558  67.3803711  38.0055122  85.7068176  30.6171379  88.7601089
  84.9965134  30.1048241  88.3737946  86.1511917  31.0136147  88.0107346
  60.4824409   5.4488578  26.1540241  61.0136833   5.7888551  25.4340134
  59.8905144   4.8212528  25.7393360  49.3754044  60.5670319  82.2809296
  49.6673546  60.1843758  83.1083221  49.6638641  61.4787292  82.3237076
  65.6814346  55.8654289  19.1732979  66.2317886  56.6088219  19.4196758
  65.5152130  55.9897766  18.2388763  44.0806694  67.3601685   6.7764263
  43.5154076  67.6755371   6.0712624  43.5088501  66.8137054   7.3155246
  78.3409195  56.4828644  25.4995518  78.0408325  56.1658630  26.3514271
  78.0145950  55.8354568  24.8745632  53.3728409  28.4959793  87.0189743
  54.1604004  28.0752964  86.6740036  52.7804070  27.7703876  87.2158737
  13.7269678  21.6270790  10.7067719  13.3690014  20.7580280  10.8879967
  13.2367496  21.9337387   9.9439631  43.5439606  25.9316235  80.9573975
  43.4581528  25.5836697  80.0698166  42.6464691  25.9680824  81.2881699
  76.6677933   2.5677636  44.9412575  75.9104538   3.0414913  45.2851219
  77.0991516   3.1947927  44.3607407   2.9378836  19.5493603  38.3217926
   2.7966526  18.6090431  38.2118416   3.6088974  19.6129189  39.0014458
  66.1554947   4.9056191  71.0084152  65.8504028   4.6340990  71.8741074
  66.1962738   5.8606892  71.0575104  11.8294783  46.0560303  54.4743881
  11.6978931  45.1790123  54.1141701  12.7743330  46.1181374  54.6144791
  24.1474457   6.8234096  37.7796936  24.2057819   6.0124340  38.2848129
  24.9864082   7.2594118  37.9289322  84.5636444  17.1598892  82.3582153
  84.7058868  17.5826340  81.5112839  85.4443436  16.9765930  82.6853333
  76.9102936  39.1165390  74.2471695  77.4759064  39.5457497  73.6052246
  77.1243668  38.1866798  74.1712112  67.8718948  13.0419636  19.6705341
  66.9276123  13.0487394  19.5139256  68.0433502  12.1861944  20.0635891
  77.3217773  33.9206581   3.0067055  76.6937408  34.4805222   2.5502417
  78.0663147  34.4942360   3.1880836  10.5268574  11.2164412  51.0265007
  10.8610945  10.5731344  50.4014626  10.2023592  11.9335051  50.4817505
  52.3073845   2.5158694   5.5044107  52.5042877   3.2413380   6.0969954
  52.2233200   1.7541660   6.0779724  58.9979210  34.5396156  15.8856964
  59.7487144  34.9346581  16.3289585  58.5498009  35.2766190  15.4706745
   2.3673155  61.4770622  70.9756546   2.9353588  61.7564926  71.6936264
   2.5482223  62.0992088  70.2710724  25.5932655  16.9061260   1.8751011
  25.2532787  17.7694798   1.6400253  25.0099010  16.2901535   1.4318237
  84.8665695  28.6945190  41.3803368  84.0361481  29.0810795  41.1024857
  84.9034424  28.8580284  42.3227463  79.2079620   6.5999360  63.7677116
  78.7516708   6.6863499  62.9307175  79.4997787   5.6885400  63.7884407
  14.9514942   8.1775379  44.2505074  14.9823666   9.0041199  43.7687988
  15.2667732   8.3990383  45.1267319   3.9329858  26.9169960  69.7865829
   3.3900244  26.4914074  70.4501266   4.3937793  27.6085186  70.2616577
  46.8716316  12.2738705  76.4134750  46.6599274  13.1232386  76.8007584
  46.6765900  12.3798914  75.4823685   5.9362588   1.9363176  80.5767136
   6.0737672   1.6572747  79.6714706   6.1711802   1.1710763  81.1015472
  32.4071808  16.8040237  83.7457047  33.3016891  17.0359077  83.4960785
  32.1873779  16.0598602  83.1852188  65.4546814  41.2255669  22.6767864
  64.6403122  40.7332649  22.7800636  65.5643387  41.6845741  23.5095634
  31.8611431  42.7504158  21.7372608  30.9586315  42.4398193  21.8096123
  32.0929260  43.0219383  22.6253967  55.8740654  17.6311245  67.5591736
  56.7713394  17.6549530  67.2266617  55.8969154  16.9838104  68.2639389
  14.5922556  57.4187012  14.3580952  15.1811638  57.1696663  15.0704155
  13.7145138  57.2719460  14.7106066  13.8982611  25.8746452  72.8377380
  14.0737305  26.1521759  73.7368546  13.5739117  26.6631527  72.4026642
  12.4726429  49.8330193  71.1555939  12.1573296  49.1200943  70.6001205
  12.9831896  50.3880768  70.5661163  60.1165962  52.8908768  69.9429703
  59.5410347  52.4967194  70.5984116  60.8177452  52.2502632  69.8236465
  76.7213287  67.5819244  48.0315170  77.6568680  67.7567062  47.9292984
  76.4348907  67.2960892  47.1640625  84.5940704  37.8026848  26.8054256
  83.8894424  37.3777390  26.3163986  84.3121185  38.7135963  26.8889523
   8.4995298  41.3959961  75.4415817   9.1301851  41.3984528  76.1616516
   8.6471348  40.5613823  74.9967728  65.7603683  46.6244774   1.5760167
  65.1823578  46.5589638   2.3361757  65.1663055  46.6940880   0.8287044
  63.6517868  13.5652533  45.5437927  62.8181305  13.9224539  45.8498192
  64.2893753  14.2556305  45.7256966  63.2604866  33.1480598  71.1624603
  63.2694931  34.1034546  71.1044083  62.5399361  32.9512596  71.7610550
  17.1201935  30.6952019  33.6415749  17.4216022  29.7895851  33.5691681
  16.2241077  30.6238232  33.9704666  78.0427551  71.1777267  26.7115860
  78.8750610  71.2124710  26.2401047  78.1675949  70.4920349  27.3676872
  16.4195271  29.7050781  25.4305706  16.9578476  28.9247227  25.2983208
  16.5254650  29.9146862  26.3585110  80.6065140  11.9668159   4.7342110
  80.9068375  11.1222410   4.3984571  79.7074356  12.0453587   4.4152608
  61.3224907  12.0648518  78.0030518  60.8556747  12.3499794  77.2175446
  61.4431114  12.8653593  78.5138016  72.3118896  19.7792454  76.4835739
  72.0971069  18.9291897  76.0995102  71.4726181  20.1224117  76.7903214
  70.0449677  10.1075191  38.9661636  70.1622009   9.3215828  39.4998207
  69.9768066  10.8203516  39.6013451  61.2389870  54.5261841   4.2560396
  61.6454773  53.9076271   3.6490960  60.6005745  54.0023575   4.7400517
  70.7553177  46.6839180  58.3913345  70.0483551  46.0674248  58.5820351
  70.6192780  46.9286652  57.4760056  60.4972687   0.1684227  10.2243958
  61.1560707   0.8085127   9.9551449  60.4087524   0.2985174  11.1685743
  27.4812603  53.6058922  33.9446220  27.8886948  53.7114754  34.8043175
  27.2015533  52.6907272  33.9229012   7.6279697  38.9972153  21.2941284
   6.7207499  38.9812050  20.9892902   7.7039456  38.2292557  21.8604279
  17.6458855  54.6898499  11.6718693  17.3362427  53.9077682  12.1287098
  17.7235222  55.3529358  12.3578129  25.3345661  61.5624466  39.1027641
  24.4000244  61.4055901  39.2378845  25.5512619  62.2629814  39.7180099
  66.9520645  20.5058765  21.0683708  67.1779099  20.9409199  21.8905411
  67.7861176  20.4177303  20.6070518  23.8063393  44.1510277  30.1103840
  23.4917583  43.5330162  29.4505844  24.6117744  43.7558136  30.4440193
  72.0766754  69.6953583  50.2270889  72.4718170  68.9677963  49.7467270
  72.1531982  70.4432220  49.6345749  41.0033493  68.9647598  87.6185989
  40.1948700  68.5727081  87.2886047  41.5148544  69.1563492  86.8325348
  52.6553192   1.4208783  76.6897202  53.5461655   1.4802598  77.0348282
  52.7438927   0.9109499  75.8845139   6.2723627  35.6677628  53.2818489
   6.4812288  34.8118858  53.6561241   5.9365516  36.1764297  54.0199013
  52.0220909  62.2979050  56.3565865  52.1850471  62.2709427  57.2994270
  51.4462585  63.0527267  56.2345352  75.7407761  32.1416740  35.8506775
  76.3858795  32.4714813  35.2251434  75.2404480  31.4910374  35.3581581
  24.6973076  66.3080215   4.7435050  24.6451740  65.9182510   3.8708117
  23.8138542  66.6352310   4.9128447  40.8663406  65.3887863  50.3659935
  40.0388870  65.1710434  49.9368820  41.4066353  65.7615051  49.6692886
  30.0868359  55.6396179  15.9819384  30.4391670  55.3015327  15.1586571
  30.6820107  56.3492279  16.2237148  16.3970089  20.1575089  78.7938309
  15.4488087  20.2446613  78.8915710  16.5758667  19.2403164  79.0011978
  23.1406670  35.1456528  13.1161404  23.9144478  35.6845131  12.9514456
  22.8693123  35.3810272  14.0033817  15.7215891  20.9262238  40.4680138
  15.7971163  21.6777496  41.0560074  16.3286266  21.1191788  39.7535172
  49.1402168   9.7618046  67.0903931  48.2081909   9.5485344  67.1359406
  49.5447235   8.9860725  66.7020035  53.6562576  43.6400909  81.7253342
  53.2314110  43.6415939  80.8675842  53.6798820  42.7174988  81.9792938
  44.8067627  18.3714523  37.7772903  44.4164162  18.4635944  36.9081688
  44.1444016  18.7177486  38.3752747  46.1495552  16.6262589  34.4095154
  46.7337036  16.1003723  33.8632088  45.2986069  16.1943150  34.3350754
  65.5172577  33.3084984  22.4838886  64.9813919  32.5231476  22.3729668
  65.1165771  33.9557686  21.9036064  71.1775208  57.1763382  30.1957417
  71.7885971  57.7749596  30.6252327  71.4215393  56.3101768  30.5220070
  86.0132904   2.4705503  47.5401993  86.3673782   2.4988751  48.4290466
  86.1144333   1.5575475  47.2710724  37.5339317  16.4079590  65.5259247
  36.6620216  16.1529713  65.2242813  38.0572014  16.4636574  64.7263565
  81.5686493  51.4501228  14.1659946  81.4725571  50.9429588  13.3599043
  81.0798492  52.2564735  14.0013418  85.1395874  39.2403183  20.3593330
  84.9762344  40.1012001  19.9740696  84.5921326  38.6423798  19.8504162
  12.3339100  64.4699554  36.4364967  12.3196735  65.0407562  35.6682396
  11.7086306  63.7751656  36.2302856  53.0626144   0.2127430  20.9098129
  52.7975960   0.8549057  21.5683136  53.5095787  -0.4711880  21.4085007
  74.8301163  61.2462006  86.1228409  74.4034958  60.7372742  86.8122025
  75.6657562  60.8019371  85.9794388   3.4546084  13.8657799  26.0359421
   3.0846314  13.0271282  25.7602367   3.2507536  14.4651108  25.3179741
   0.0064282  32.3677330  77.9460144   0.8177201  32.4596024  77.4464188
   0.2940507  32.2663879  78.8533401  68.7612839  53.0172157  73.2489700
  69.2896652  52.8245621  74.0235214  69.4002380  53.1309547  72.5453873
  44.5976334  53.1401634  15.4583216  44.5442390  53.5049095  16.3416901
  43.6934280  52.9187660  15.2355518  64.3871536  10.9846296  45.1756363
  64.1642914  11.8884506  45.3985062  64.1904449  10.4867916  45.9691658
  15.0703468   1.4219118  74.6834793  15.0608597   0.8967606  73.8832550
  15.2600880   2.3111005  74.3841858  35.3268623   0.3279724  27.0999126
  34.9278831   1.1814793  26.9308739  36.1852913   0.5339249  27.4699364
  36.7411499  45.7706451   4.9356084  36.6775398  45.2316513   5.7240696
  36.9971924  45.1576653   4.2464590  13.8381891  10.2483540  54.6177216
  12.9695177  10.2905760  54.2178955  14.4362164  10.1316214  53.8795013
  60.1296730  58.3292389  45.6522064  59.2450676  58.6488419  45.4745407
  60.6165161  59.1085167  45.9204254  56.4648857  61.5351677  59.1124840
  57.1764412  62.1514473  58.9389343  55.8184395  61.7174911  58.4305038
  67.6595459  56.6935692  54.2901955  67.0123672  56.0937576  53.9192276
  68.1926651  56.1448135  54.8654175  48.5754967  35.2536621  34.9938164
  48.6482773  34.4238548  35.4653625  48.2266846  35.8669434  35.6406937
  43.9593163  59.0524368  59.0700684  43.4010315  59.2048149  58.3076210
  44.4232521  58.2397690  58.8686409  66.6948471  24.0193863  62.6887703
  66.0955811  23.3116531  62.9258957  67.1382523  23.7040215  61.9012642
  28.4825153   1.9038006  79.2077942  29.3142090   1.8999438  78.7339706
  28.4663849   1.0658334  79.6701584  84.1607513  36.6359406  66.0842514
  85.0468063  36.4091835  66.3666000  83.7301254  35.7923088  65.9461136
   7.4426279  53.7297897  57.8097267   7.4251995  53.7277336  56.8526878
   6.6123290  54.1328011  58.0635338  51.5624809  23.6780033  34.5698738
  51.9549065  24.1519604  35.3030853  52.2585182  23.6320057  33.9143982
  18.9951172  17.4967957  86.2085266  18.6050911  17.2502270  87.0471649
  19.8866901  17.1507225  86.2480469  64.3975372   9.1170349  36.3278542
  64.9583054   9.8844700  36.2146683  64.9864883   8.4358006  36.6523285
  79.9959183   8.0590630  86.8538284  80.1857529   7.7323432  87.7332840
  79.8404007   7.2706294  86.3338089  70.0703964  41.3871880  88.2113953
  69.9810181  40.9557610  89.0611649  69.9823151  42.3202400  88.4060440
  46.6193199  14.6524248   2.5721881  45.7403374  14.6727209   2.1937551
  46.7045212  15.4913778   3.0251019  12.2397442  40.1753387  51.1618996
  11.8916950  41.0641747  51.0907249  11.6804419  39.6523972  50.5874901
  53.2920532  62.6231003  67.0864029  52.3840942  62.6793251  67.3841934
  53.2913780  63.0560760  66.2327271  76.2062149  20.2015686  15.7554789
  76.9948349  20.7174625  15.5876589  76.3459396  19.8264256  16.6249485
  72.2949219   4.0225201  19.3854256  72.4456482   4.1512027  20.3218842
  73.1397095   4.2143378  18.9782791  22.4325790  41.4520378  33.3755417
  22.5296421  41.6473846  32.4435310  21.4891014  41.4927979  33.5318146
   5.4519386  58.2900314  34.9789429   5.2609882  58.0605354  34.0694923
   6.1526208  58.9394989  34.9200249  79.6132660  38.4370918   4.8116131
  80.5602188  38.4743423   4.9462442  79.2776184  39.2168350   5.2538457
  57.5195999  42.8449593  56.1809158  57.1108894  43.6683884  56.4476585
  57.6433601  42.3630676  56.9986534  35.9459229  25.4993725  49.8810806
  36.8696899  25.3669319  50.0940208  35.7289696  26.3457317  50.2720261
  34.2148590  32.3075905  18.5383282  33.9508057  32.4412537  17.6280308
  34.8111839  33.0330315  18.7237186  82.6311340  32.5830765  86.5493393
  81.8853302  33.1621323  86.3921661  82.2379150  31.7574406  86.8320618
  64.2137299  16.9487286  86.9655304  64.1540146  17.3853111  87.8152695
  65.1297684  16.6792545  86.8985443  11.2684164  35.3451958  43.8985977
  11.1753254  35.4358253  44.8469391  11.7518015  36.1263733  43.6296463
   1.4826274  53.7969170   5.4461040   1.4150960  52.8444633   5.3789945
   0.9793764  54.0180931   6.2297187  51.0387115  48.7112770  46.7279587
  50.4361725  47.9878883  46.5550728  50.9838982  49.2607269  45.9460831
  74.0793457  43.7937546  10.7120934  73.4315414  44.3018799  10.2238417
  73.9641876  44.0695343  11.6214437  40.2289047  27.3145218   5.2233434
  39.9092255  26.4269505   5.3853741  41.1411285  27.2971039   5.5127821
  32.7024879  57.4509430  78.5329208  32.1329079  56.9439354  79.1115036
  33.0075722  56.8182793  77.8826218  11.0100765  70.1907349  47.8980942
  10.5394278  71.0159912  47.7811584  10.5471735  69.7498856  48.6105576
  46.9816742  66.6175690  12.0770493  46.8624878  67.0556793  12.9197168
  46.4104919  67.0954819  11.4757290  75.8130112  58.6796837  67.7829285
  76.2979279  59.0031929  68.5421524  76.4610977  58.6514168  67.0790710
  37.0056496   2.9083123  24.0282288  37.3078079   2.0014277  24.0781498
  36.8092880   3.1455791  24.9345284   9.3402901  32.5303192   7.9595890
  10.0346317  32.1315613   7.4350739   9.6701021  33.4041748   8.1689405
  12.8488092  14.8556261  75.4905167  12.4968386  15.1773357  74.6605453
  13.3214388  15.6033945  75.8561630  30.9034843  66.7905350  52.6194344
  31.7849178  67.1186142  52.7973900  31.0139923  66.1983032  51.8756027
  71.3188629  37.5602303  48.6844597  71.7278290  37.2769165  47.8667107
  71.9191208  38.2169533  49.0374870   0.7051620  59.3449898  40.5905495
   1.1343358  58.9630241  41.3561478  -0.2258258  59.1671982  40.7242813
  29.2432079  41.7598839  21.7943592  28.9448242  41.0189171  21.2669392
  28.5674725  42.4270630  21.6740208  31.2459679  25.3691807  14.9932547
  30.3881626  24.9959545  14.7905102  31.4059277  25.1211643  15.9038210
  18.9493446  64.9355087  56.2232971  19.8125610  65.2589264  55.9654465
  18.3329391  65.5181274  55.7796402  77.8924942  58.2496033  73.2002258
  78.5813751  58.9004326  73.3347702  78.0753403  57.5697403  73.8487473
  29.5977669   3.4166248  58.7463112  29.3541183   3.0620179  57.8912544
  30.5369453   3.5875657  58.6759224   4.2069697  40.2175674  82.2172546
   4.7524705  40.1611290  83.0017776   4.7098465  40.7656364  81.6147919
  18.5495243  56.5881882  22.1601486  18.5426884  57.2242889  22.8753834
  18.9106102  55.7924156  22.5507889  27.5212688  19.9120846  17.8562984
  27.0677547  19.2789230  18.4127712  27.9514351  19.3786774  17.1879692
  65.3257523  35.6793861  80.2338562  64.5077591  36.1542435  80.3809433
  65.0513458  34.7812271  80.0488052  13.4870310  63.3349495  32.5421486
  14.1931391  62.9381027  32.0320969  13.2020845  64.0820160  32.0159035
  16.9345417  12.3993816  27.5512867  16.0814991  12.1400652  27.2029972
  17.3240604  11.5826912  27.8635769  67.1999054  48.7609901   4.4980741
  66.9788589  48.9381027   3.5837419  68.1076736  49.0516891   4.5856700
  18.0510292  16.9572716   7.7888842  17.5830097  17.5552845   8.3716087
  17.4180317  16.7476940   7.1021347  62.9474754  31.1917458  86.8532028
  62.6800385  31.2509480  85.9360352  63.6731606  31.8109989  86.9315414
  36.7088356   4.5638499  79.6825638  35.7549324   4.6418467  79.6973419
  36.8897743   3.7486866  80.1505356  69.6341171  51.0767136  66.9994049
  68.9631653  51.7522392  67.0979843  70.3537674  51.5179634  66.5481491
  65.4757080  12.9091005   5.8298011  66.2098618  12.9738836   5.2190199
  64.7490463  13.3372011   5.3771195  18.5689945  17.6916752  74.5456314
  18.4321423  18.0136776  73.6546707  17.7703362  17.9352531  75.0136566
  82.3132706  69.9822998   9.3891802  82.4907608  70.8672256   9.0703859
  83.0839996  69.4761047   9.1323233   6.3822494   1.7999696  32.2871361
   5.8113337   1.0596169  32.0817947   6.2721210   1.9334465  33.2285652
  26.7322941  66.6155930  86.6060181  26.6012726  66.3391266  87.5130005
  27.6504173  66.8835526  86.5675583  10.3808565  23.1363792  64.1197128
   9.9340162  23.5815182  63.3997002  10.5610237  23.8294945  64.7548218
   3.9195094  23.2915592  22.9767418   4.8024883  23.1799850  23.3290653
   3.3415599  23.0028515  23.6830387  26.4759121  71.4057770  86.9553299
  26.5604897  70.5613251  87.3980179  25.9237289  71.2233887  86.1950302
   4.6106443  12.0357285  35.1760559   4.9274831  11.7537413  34.3179588
   5.1755342  11.5813789  35.8011131  36.1377792   4.9674630  49.3620377
  35.7717590   5.8294282  49.1638527  35.3989868   4.4676094  49.7092667
  42.6633301  50.6222801  76.3673172  42.6704788  51.3936272  75.8005676
  42.3914528  49.9059830  75.7935333  35.7668419  52.9600525  41.8418121
  35.2060852  52.4042854  42.3830223  35.9588890  52.4273033  41.0701065
  56.3971100  59.4293594  20.9571552  55.4699898  59.6286736  20.8269596
  56.8430977  60.2654877  20.8221931  77.7518997  35.1572227  72.8782578
  78.4519958  35.6943512  73.2491913  77.4071732  34.6651344  73.6234055
  25.9835377  58.8890038  52.4644699  25.6888638  58.0210037  52.1888275
  25.8701706  58.8897896  53.4149323  73.9497070  57.6164398  59.9135170
  73.0213852  57.3832855  59.9038544  74.0965118  58.0500374  59.0728798
  33.9729042  16.4727325   7.0239372  34.7681541  16.1690903   6.5861988
  34.2226639  16.5550613   7.9443045  75.8852463   2.0095592  31.4921284
  75.3878174   2.8252873  31.5502968  75.6562271   1.5319958  32.2894440
  64.4570541  25.6514511  21.7839375  63.9181976  25.4433556  21.0206776
  64.7209854  24.7990685  22.1303673   5.6284361  29.5018082  44.6601868
   4.7469187  29.1416187  44.5631104   6.1954255  28.7333012  44.7246361
  31.1261921  34.0036507   5.4258580  31.1170311  33.9811592   6.3827500
  31.7785969  33.3488731   5.1771245  66.0251541  12.8486042  22.5144596
  65.7096939  12.3399830  23.2614689  66.3838120  12.1950779  21.9140472
  66.7964706  10.4709682  64.3377304  67.4201508  10.9389219  64.8929520
  66.0001755  10.4155521  64.8659973  58.2217331  40.7905083  76.5814362
  57.3436394  40.5457840  76.2893753  58.4816399  40.0861359  77.1751938
  20.9782085  37.5555496  25.7644787  21.5764389  36.8801079  25.4448967
  21.2589149  37.7174377  26.6651611  11.5584679   8.2989159   7.9543676
  12.3522930   8.2598658   8.4877987  11.0009508   7.6034851   8.3033419
  23.7327461  31.8737946   5.7389145  23.3456306  31.5473919   6.5512166
  24.3509884  31.1915245   5.4771581  18.7434959  30.8545094  74.2760391
  18.5343990  31.2351093  73.4230118  18.3110085  30.0006084  74.2698212
  49.4478951   6.1456966  17.3236713  49.6110992   5.8469939  18.2183075
  50.2986908   6.4591265  17.0168495  28.0642357  47.1540947  24.7836475
  28.6063538  47.8139114  25.2160645  28.6344872  46.3892746  24.7055626
   0.0087733  39.0056305  15.8892231   0.2554372  39.9024467  16.1152973
   0.5794414  38.4573059  16.4276524  32.8766212  63.4001541  70.0775146
  33.7484818  63.5299759  69.7043610  33.0400391  63.1525459  70.9875793
  28.1093273  41.9315605   3.0389512  29.0037689  41.9753227   3.3770223
  27.8502655  41.0186615   3.1643920  20.0423641   7.9133143  56.2131195
  19.1211891   8.0900249  56.0222168  20.5184937   8.3096714  55.4834404
  83.5385132  32.5659256  67.6305847  83.3200073  32.0612411  68.4140244
  84.2682571  33.1234169  67.9006042  38.7756615  10.4888020  59.0575333
  39.0472794   9.7232590  59.5638885  37.8944321  10.6857071  59.3751717
  41.2501907  69.4806595   2.1592240  41.4190979  70.3311310   2.5646746
  41.6419945  69.5483780   1.2885132  22.1998787  25.6994343   5.1002717
  21.2432346  25.7087479   5.1315317  22.4158001  26.0955696   4.2560639
  39.6638184  34.3802643  23.5531464  38.9586258  34.6646233  22.9717045
  39.2658424  33.7014084  24.0981274  21.9255886  71.1349564  65.5354309
  21.7847462  70.7847824  66.4150772  22.7484570  70.7387543  65.2488327
  59.5753326  59.9342575  20.0849056  60.4998322  60.0703773  20.2922897
  59.1530647  60.7606430  20.3194427  61.4590988  31.2160625  65.3347549
  60.5990067  30.9561481  65.6647797  61.8155479  30.4194241  64.9416351
  26.2782269  70.5671539  11.9627438  26.7745342  71.1293259  11.3678703
  26.5806179  69.6811829  11.7631521  63.3613968   0.9352430   7.6026082
  64.0958176   1.0822653   7.0065861  62.7072067   0.4832984   7.0696807
  56.5851440  37.0733719  18.9043179  56.1346054  36.2372017  18.7857475
  56.9319267  37.2836494  18.0372772  45.9005508  45.0433884  19.8470058
  45.2132950  45.4486694  20.3758354  46.3343773  45.7785263  19.4138813
  38.7095032   8.4756222   4.5328970  38.1063805   8.4430847   5.2754698
  38.1832428   8.1944790   3.7844057  81.0661316  12.3977280  77.5628510
  81.0114288  11.4459095  77.4775238  80.1944199  12.7103910  77.3207932
  38.7129173  15.2596531  72.7619705  39.2622147  14.4889765  72.9053650
  38.2955894  15.1021051  71.9150696   0.4462326  47.6885033  81.4010086
   1.2758460  47.7585716  81.8733063   0.0170667  46.9229240  81.7830276
  79.7387009  14.1304998  37.4287567  79.7783279  14.9543800  36.9430771
  79.7199783  13.4540520  36.7517776  35.8366928  32.3577805  25.9753513
  35.2950401  32.1602554  25.2112637  36.5775490  31.7556686  25.9058647
  72.1339340  41.2351189  64.7203903  72.9830170  40.7932320  64.7161407
  72.0497437  41.6006393  63.8397446  53.0543365  56.2736130  11.0615072
  53.1048927  55.6320152  10.3529663  52.6750259  55.7903900  11.7955742
  68.4245453  18.0421295  66.4693527  68.1873016  18.1422367  65.5474396
  67.6443405  18.3203983  66.9490204  62.4530106  21.2585850   9.2507315
  62.0028534  21.8069534   8.6081715  62.6916389  21.8614788   9.9548674
  77.2549591  35.1133461  55.1060104  76.6024017  35.5969772  54.5995445
  77.7567749  35.7909088  55.5591278  64.4411621  39.6307220  73.7794418
  65.1855240  39.7378693  73.1872635  64.8099594  39.2043266  74.5530167
  55.6928978  27.9832191  26.0476284  55.8919678  28.2699394  26.9389172
  56.5491104  27.8807411  25.6321373   4.1012373  58.6580772  56.6822472
   3.4467983  58.5391426  57.3705750   4.8961034  58.9153976  57.1493721
  52.6283226   7.6227403  68.8761978  52.4563141   8.5299587  69.1283875
  53.2003822   7.6909866  68.1117935   9.2523842  64.0180664  29.3663769
   8.4489069  63.5442772  29.1514912   9.4890308  64.4683838  28.5555477
  63.4633217   2.4356797  35.3435936  62.7120323   3.0172246  35.2269897
  64.1320114   2.7874956  34.7559586   3.9691362  30.3835773   8.0889292
   4.4844813  30.3357296   8.8941383   4.5659857  30.0815182   7.4042664
  77.8288040  44.2306862  71.6228638  77.2739792  44.2589874  70.8433762
  78.5513382  44.8263016  71.4243240  76.5292587  11.7371778  76.0451202
  75.6600342  12.0626011  75.8110504  76.6073303  10.9053001  75.5780945
  10.6409998  11.7461023  43.8435440  10.6469364  11.5568266  44.7818260
   9.7226133  11.6603642  43.5877190  36.4200554  15.9631567   5.5833707
  36.7391815  15.6103125   6.4139676  37.1040382  15.7429209   4.9509978
  45.1396484  65.6233826  72.7125549  45.4121552  64.7546082  73.0078583
  45.6000214  65.7496796  71.8828964  85.5376892  17.3218136  79.7643585
  85.8548203  18.0533981  79.2347946  84.7603683  17.0099525  79.3009567
  53.9332848  29.9030571  72.3082886  53.2599792  30.5537357  72.5070572
  54.5888977  30.0190487  72.9960022  57.2989273  15.7220745   7.1086907
  56.5765610  15.9322090   7.7005215  56.8985596  15.1888170   6.4219785
   9.7759275  34.2302437  16.3158970   9.8492346  34.9767914  15.7213202
  10.6746035  34.0593224  16.5976753   1.3315279   3.0462096  63.5159569
   1.3336214   2.4340706  62.7800827   1.4830489   2.4967778  64.2849808
  19.0177994  68.9173279  59.6677132  19.7109699  68.6263733  60.2602386
  19.0536499  69.8730011  59.7081337  30.3779526   1.2632807  50.5145340
  29.6994839   1.7410785  50.0374374  30.9593220   0.9276489  49.8321915
  57.9960251  24.3325253  38.0314636  57.7323151  23.5019913  37.6353493
  57.2775497  24.5541668  38.6238327  61.0002022  40.6311073   9.1018782
  61.8137512  40.5538712   9.6002827  60.9248695  39.7984314   8.6358204
  66.0753632  43.8388329  20.8815460  65.6638260  42.9935837  20.7014923
  65.4844894  44.2655792  21.5020218  74.2492142  20.7382107  82.5553360
  74.6134186  21.6169090  82.6624680  73.4731369  20.8654995  82.0096893
  83.4949417  49.4617958  82.2536926  83.4628830  49.1236534  81.3587875
  84.3796158  49.2562065  82.5558701  82.6799850   0.7133397  25.1708336
  83.1082611  -0.0416865  24.7674179  83.2792511   1.4423900  25.0108585
  74.4453201  12.3248968  20.5772038  74.0547485  12.2724619  21.4495182
  74.9960480  11.5445461  20.5140610  17.9803543  32.4298782  35.6378860
  18.1595955  33.3627205  35.5199699  17.4374371  32.1933708  34.8858604
  73.0741196  65.9386749  64.3474655  73.7900391  66.5739746  64.3382339
  72.2891922  66.4598923  64.1787643  67.1368103  25.2252998  15.8098078
  66.2365189  24.9945488  15.5807705  67.1681366  26.1784286  15.7273741
  66.4690781  51.7280045   8.3170223  66.4362793  52.0688591   9.2108755
  67.0768585  50.9900322   8.3642464  81.1003876   8.5170956  64.9093094
  80.4658813   9.2313795  64.8507080  80.6145096   7.7415147  64.6289062
   4.3853340   6.7804642  41.0658188   3.6984370   7.0631828  40.4621010
   5.1882644   6.8093333  40.5455284  61.6235847  54.0360832  74.0829239
  60.9563599  54.2116966  73.4194412  62.3614883  54.5925064  73.8336716
   6.8864412  51.0714836  81.0198593   6.9615450  51.9856224  81.2936096
   7.6849351  50.6571465  81.3469086  75.5452957  44.4251060  33.8173256
  76.4404526  44.2227364  34.0893135  75.0199203  43.7062111  34.1686172
  18.6235371   1.3014255  85.2629471  17.7580681   1.6245711  85.5134888
  19.2296085   1.7706237  85.8363266  58.1627159  54.7809868  31.3005733
  57.7191086  54.3492012  32.0306435  58.4570618  55.6177597  31.6602936
  31.7090855  40.2848549  10.1269560  30.7734165  40.3341446   9.9311934
  32.0350914  41.1697121   9.9626846  31.0878239  10.3716269  86.5816650
  31.7007866   9.6390467  86.5197296  31.1981907  10.7015247  87.4734192
  33.9035835  49.6109047  29.4059162  33.9912529  50.5349045  29.6399536
  33.1727982  49.2971992  29.9386177  33.2939568   5.5882306  70.6313934
  32.8940392   5.3791976  69.7872391  32.5688896   5.9108152  71.1666031
  68.4309235  16.1649475   9.6229410  67.9443207  15.3973742   9.9234095
  67.7546158  16.7958565   9.3763762   6.9527397  46.3012886  61.6086044
   7.1745205  46.4200058  62.5321579   7.7729802  46.4633026  61.1425667
  51.6638184   8.4622002  24.1946049  51.6402512   9.4094801  24.0591869
  52.1263428   8.3504190  25.0251522   3.1964514  32.5314598   6.5795450
   3.6316757  31.7933311   7.0061316   2.2925041  32.2401199   6.4602513
  77.1204224  48.9165993  21.6523914  77.5775146  48.0756340  21.6436138
  77.6378555  49.4765015  21.0735970  77.3393555  71.2866592  67.0126419
  77.1604156  71.1097260  67.9361649  76.9756699  70.5321121  66.5493622
  78.7881241  69.2505798  28.3558502  78.7887192  68.9708252  29.2712574
  79.7108841  69.4013748  28.1508865  84.6061630  19.6289406  15.2296133
  85.0266190  19.7364178  16.0827789  84.2579422  18.7374554  15.2448111
  62.7506599  21.8091660  47.8031044  62.4263306  21.3091297  47.0541000
  63.5089302  21.3132820  48.1119041  43.1652756   9.3527279  39.7825813
  43.7180481   8.8634291  40.3918915  43.7451553  10.0205507  39.4165382
   1.0774797  23.6863270  79.8082504   0.2755152  24.2064800  79.7579956
   1.5249441  23.8553638  78.9791336  54.5253944  68.7735825  27.3766651
  54.2009659  69.6721802  27.4357624  54.7596054  68.5438690  28.2758923
  30.2515945  34.1798859  15.8236685  29.7337093  34.9647293  16.0026684
  30.0169010  33.9371910  14.9279842  30.5853462  13.2811956  75.9328690
  30.0929718  12.4783335  76.1037903  31.4342232  12.9776640  75.6111450
  24.1877537   8.9126835  49.2705765  24.4864254   8.4273033  50.0396233
  23.4643745   8.3904696  48.9238091  68.3438034  22.7001953  53.2937164
  68.0639954  22.7515564  52.3797684  68.5984497  21.7855225  53.4151993
  77.0158310  17.1532383  25.2396984  76.7700043  17.4769840  26.1062965
  76.8891754  17.9035053  24.6589317  17.0666847   1.9611410  28.0383854
  16.4133320   1.6045625  27.4365444  17.4918766   2.6611583  27.5429859
  20.6567764  11.8212948  32.5497894  21.2593174  11.5051556  31.8765640
  21.1636906  12.4684858  33.0401077  85.9559860  16.9357262   7.1387429
  86.8078537  17.0926590   7.5460906  85.3218994  17.1140518   7.8332653
  20.1528263  42.0350456  12.2521515  19.4134674  41.4563980  12.4385519
  20.4920807  41.7270508  11.4117489  13.3782825  53.0018387  24.1482277
  12.6258574  53.5430717  24.3872986  13.4358597  52.3498001  24.8466282
  52.0667801  68.9889374  51.9707642  52.8089790  69.5819473  51.8536797
  51.6931610  69.2369156  52.8164291  85.0951767  64.7811356   7.6989937
  84.7636261  65.3846283   7.0340848  85.9876556  64.5807877   7.4169216
   8.0882788  29.1523590  56.3012199   8.1589813  28.6125431  57.0885124
   7.9198680  28.5270157  55.5963669   5.8353205  30.2824745  67.9457703
   5.7336726  29.3370895  67.8355637   5.0508256  30.6561298  67.5442963
  11.4264812  14.3483810  62.3777809  11.7436037  13.5115919  62.7175598
  12.1992397  14.9132271  62.3728867  64.6834488  26.3584023  51.8279648
  65.2192154  26.7630424  51.1457176  64.6237717  25.4381752  51.5713501
  38.5717049  63.3782120  27.5903091  37.6956444  62.9930458  27.5704842
  38.5753250  64.0025482  26.8647556  27.5996685   0.4692552  17.2978840
  28.4926128   0.8139973  17.2918949  27.1144180   1.0709251  17.8624687
  18.5303860  62.8249626  51.6819458  18.2334194  62.9980392  52.5753021
  17.9983311  62.0839577  51.3920135   8.2802038  52.5992851  41.8770714
   7.3520279  52.6626701  42.1022453   8.7273960  52.5333595  42.7208176
  11.4588575  16.6155891  18.2951431  11.3826923  17.2434349  17.5766430
  11.6401625  15.7800026  17.8648453  17.0598297  40.7122345  39.2013206
  16.8247414  41.5397873  39.6209908  16.2204609  40.2940102  39.0095367
  63.2231712  51.8131561  28.0717735  64.1484756  51.9259491  27.8542233
  63.0837860  50.8666267  28.0420132  48.1318398   1.5713806  18.3568707
  48.6775932   0.7852135  18.3748856  48.7275620   2.2703671  18.0871239
  31.5403786  52.1163445  17.6747780  32.3218956  52.0774803  18.2261009
  31.3937511  51.2103462  17.4029293  73.0974731  42.4481964  20.5726128
  73.0176163  43.2931557  20.1300087  72.1957779  42.1955948  20.7710400
  78.4559860  28.1863232  62.6235886  77.6314011  28.3959217  63.0621681
  79.0026169  28.9603977  62.7586517  17.1292572   5.9912410  86.8685608
  16.3356171   6.3540721  86.4752197  16.9292088   5.9347334  87.8029175
  67.5002899  15.2357473  54.2644386  66.7188034  15.7079115  53.9770966
  68.2171936  15.6386471  53.7745819  21.6026230  50.2622185  81.7981873
  22.2392864  50.3688049  82.5049667  21.5594215  51.1235275  81.3828354
  66.1101456  33.4109039  42.2749710  66.4818115  34.1567001  41.8039246
  66.7545166  33.2113113  42.9540787  41.5902824  57.0508347  68.2167358
  41.5423470  57.6824913  68.9343338  41.5131607  57.5822372  67.4243393
  54.7630653   6.6645222  22.1257534  55.2326698   7.2164497  22.7511196
  54.1940460   6.1185484  22.6683025  81.8895798  53.9027023  61.8368874
  82.1454086  54.7781944  61.5465508  80.9511719  53.8545418  61.6543961
  68.3208618  29.3234482  48.9089432  68.0766907  28.7803459  49.6583786
  68.8156357  28.7355232  48.3381729  22.9773998  70.7814865  29.5509205
  22.2965870  71.1327591  30.1247978  23.7760181  70.8164902  30.0774307
  33.5458031  69.6699371  85.2833023  33.3579178  68.8360062  85.7139893
  32.8974037  69.7285385  84.5816040   3.8421750  46.8102150  63.4838333
   4.0208063  45.8700104  63.5020866   3.5762360  46.9860077  62.5812759
   8.8397160  18.3700371  69.5257339   8.7611399  19.3118401  69.6776123
   9.3217402  18.2997017  68.7017593   1.7219889  67.3466873  30.1862984
   1.3746130  68.1055374  29.7175617   2.4334726  67.7000961  30.7202702
  63.7097626  30.4844475  31.0417976  64.6148529  30.2457027  30.8416824
  63.4380608  29.8548794  31.7096710  42.6996269  31.3640366  88.4692154
  42.9262199  31.8338394  87.6666107  41.8076859  31.0505505  88.3195496
  80.0632782   7.5758142  17.7262993  79.4470673   8.1581774  18.1705627
  80.0172806   6.7569580  18.2198467  65.9414520  23.8287144  54.1430893
  66.5897064  23.5113926  53.5143623  65.2232590  23.1985645  54.0852699
   0.8854045  54.8100510  78.3921814   0.2379535  55.4936066  78.2195816
   0.6183527  54.4334259  79.2306747  10.2326107  35.1437950  19.5658321
   9.5511189  35.3921967  18.9412537   9.8794527  35.3966675  20.4188061
  16.8102436  20.3630371  67.4257660  16.5059185  19.7583408  68.1024933
  16.4468155  20.0142021  66.6118469  70.4037323  70.3990479  38.6764412
  69.5726929  70.0028152  38.4145317  70.7485428  69.8105545  39.3480148
  60.8647804  21.2999592  45.7549286  60.0963783  21.3069115  45.1841927
  61.5310478  21.7824039  45.2654762  65.4553452   9.3114729   5.3068523
  66.3420105   9.6721106   5.3050709  65.0789413   9.5970860   4.4744020
  53.6882248  57.5995827  59.4583130  53.5141373  58.3332710  60.0479126
  54.4345093  57.1477013  59.8521385   6.9652147   8.5223398  63.9224930
   6.1189890   8.0752087  63.9081001   7.1911187   8.6372499  62.9994583
  56.8787842  65.1912537  58.9320526  57.4625511  65.8813934  58.6171570
  56.3588295  64.9492111  58.1657028  63.6826057  52.7054672  31.5887814
  64.1327667  53.4612427  31.9661198  62.8721809  53.0649796  31.2279644
  17.0441837  56.2189407  44.7559967  16.5565453  55.7238884  44.0976944
  16.3719139  56.6915703  45.2468224  14.3918009  53.4574051  21.5515003
  14.1553011  53.5968437  22.4684830  13.9065733  52.6729889  21.2956181
  59.2880325  56.6930084  32.8913155  58.8433342  57.4660950  33.2388954
  60.2196693  56.9023933  32.9579697  54.1812706  68.7907867  86.9845963
  54.6572418  68.7338028  87.8131104  53.5997772  69.5432434  87.0936966
  20.3348541  68.4729233   9.5780573  20.1999512  68.3660202  10.5196543
  20.6970234  69.3542175   9.4865217  25.6740761  15.9308929  14.9538345
  25.5457134  15.6185865  14.0581675  26.5645008  15.6595039  15.1768188
  62.4716339   1.2801844  73.1363144  61.9068146   0.5135622  73.2337952
  63.3237381   0.9201553  72.8902969   5.6930542  68.0059662  68.3385849
   6.3141613  68.0626373  67.6124649   6.1435790  68.4241486  69.0723267
  59.8016129   9.8208027  78.8214569  58.9412613  10.2398720  78.8012009
  60.4098854  10.5095625  78.5534210  53.9710236  55.2750244  52.8576431
  53.6972237  54.5702095  53.4445839  54.0262680  56.0474091  53.4203148
  63.8752899  49.3628502  22.8073215  64.6935806  48.9541740  22.5251541
  63.6050987  49.8980408  22.0611305  31.2763710  63.0781212  82.7122574
  31.2838821  62.2859230  83.2494659  30.4995670  63.5565681  83.0019073
  43.3346863  27.0681477  88.9708176  44.2237816  27.3706875  89.1557693
  42.9654083  27.7434654  88.4017715  79.8602524  20.3761501  61.8023872
  79.9077225  21.3297596  61.8702660  78.9268646  20.1893692  61.7017441
  65.9853210   3.4666464  37.3138161  66.6465683   4.1361895  37.4890251
  65.7388382   3.6068997  36.3995895  40.8555832  25.7539520  12.6047745
  40.8835831  25.3065491  13.4505148  41.0268707  26.6722126  12.8137951
   9.0984564  60.0048027  21.5107441   8.4025078  60.4953995  21.9480133
   9.8047266  60.6407852  21.3969860   9.4889259  29.9037514  85.1671906
  10.0789871  29.7309818  84.4335632   9.5161257  29.1025658  85.6902542
  56.5810509  57.0397186  68.5801163  55.6905670  57.2622299  68.8516998
  56.4886284  56.2091293  68.1134186  26.4385071  63.9706306  39.9581909
  26.9930077  64.1508102  39.1990509  26.9025726  64.3700409  40.6939545
  58.5322075  59.8440056  23.3691463  58.6042976  60.0283318  22.4326324
  57.9777260  59.0652924  23.4179974  83.0811768   9.2730331  87.5802612
  82.7743530  10.0376940  87.0930405  82.9564667   8.5394917  86.9781036
  11.0263395  20.7304020  60.9654999  11.1717567  20.4163609  61.8579483
  10.0743523  20.7366886  60.8659439  59.3478584  50.2303429   9.7746811
  59.8377151  50.7275963  10.4296703  58.5034904  50.0543365  10.1897688
  71.2029343  50.6082039  26.9262848  71.4620209  50.0472832  26.1952076
  70.3041534  50.3446007  27.1236076  28.4458923  49.7697678  46.4984818
  29.1378918  50.1941299  47.0057144  28.9100552  49.3042183  45.8027420
  52.9014053  71.3851318  83.3576965  53.1969261  70.8936539  82.5913162
  53.5108109  72.1206284  83.4201660  72.5832672  70.7796860  69.3978043
  71.6275864  70.7534485  69.3507233  72.8074112  71.6910248  69.2095337
  85.7377396  44.1252975  69.5241547  85.7673492  43.2311440  69.1837997
  85.6641235  44.6759605  68.7446823  74.1689072  20.9459858  45.8285866
  74.5042419  21.8397007  45.7574768  74.8750381  20.4582424  46.2525177
  43.1608658  61.5509987  34.3531456  42.4236984  62.0732422  34.0368004
  43.5649414  61.2013206  33.5589943  16.6478729  11.7945518  60.3053017
  16.0272064  12.5230408  60.3228645  16.9898720  11.7927828  59.4112854
  79.9340820  12.5342484  45.5939636  80.0322418  11.6246014  45.8752785
  79.3333511  12.4913712  44.8499756  38.3333282  56.6265793  22.0019588
  38.5936584  57.5236206  22.2111835  37.4824295  56.7179527  21.5731716
   2.0233996  58.8607750  34.2764587   2.0747674  58.3854713  35.1057243
   2.8517432  58.6670532  33.8376541  79.3991318  57.3737717  14.7218666
  79.2964935  58.2984505  14.9469509  80.2932434  57.1601486  14.9886293
  18.1310310   4.7595172   1.3788495  17.2322369   5.0800905   1.3038033
  18.0880127   4.0816278   2.0532732  37.7096405  68.4164047  31.7235203
  38.2208900  69.1055069  31.2992573  37.8230934  68.5763626  32.6604156
  25.0073242  13.9873285  35.7690392  25.4252243  13.5229053  36.4942322
  24.6826897  14.7986956  36.1595879  61.5445938  63.3412704  56.7509651
  61.7274628  62.9730682  55.8865509  61.9274940  64.2181244  56.7236862
  46.9897346  17.6629868  11.7698212  47.4850616  16.9091263  12.0900946
  46.4549332  17.9328861  12.5163956   2.7677376  17.4084358  58.8878136
   3.3061905  17.9723740  58.3325882   3.3908167  16.9959545  59.4860306
  15.1294079  50.8108292  40.4569931  14.6009846  50.8925476  41.2509232
  14.5045595  50.5543861  39.7787361  85.2731094  36.5781746  20.9903183
  85.4379501  37.5202637  20.9512444  86.1376419  36.1794395  20.8912106
  67.2507782  51.9663162  43.2472839  68.1609497  51.6797829  43.3229675
  66.8464432  51.7001686  44.0730629  49.2752533  68.2870560  44.5725288
  48.8279762  67.9128113  43.8135033  49.7358742  67.5470200  44.9680176
  86.9246521  67.2367935  50.3533630  86.4064941  68.0416260  50.3538437
  86.8373260  66.8951874  51.2432556  29.3700600   0.0157911  53.1152840
  28.9116821  -0.1721418  52.2962570  30.2551861   0.2590856  52.8440056
  14.7010632   3.1653202  70.6826935  15.6231461   3.1018455  70.9316254
  14.6758766   2.8578091  69.7765884  10.5879402   8.6807318  70.6805801
   9.7293024   8.4824991  71.0543213  10.3967590   9.2242537  69.9162140
  69.3358917  13.8168898  86.9708023  70.0398026  14.2181082  87.4804688
  68.8654709  14.5573282  86.5878067  45.5303497  51.5123100  81.7497940
  46.3108139  51.8900681  81.3443222  45.4559212  51.9624138  82.5912781
  79.4454651  -0.1857312  32.7842369  79.2642059   0.7268751  32.5594597
  79.9242859  -0.5277904  32.0292778   6.7827754   7.5170989  44.0927391
   7.3947315   6.9328055  43.6451454   6.2791290   7.9226346  43.3869705
  42.5099068   8.9506683  14.4296503  42.5942650   9.7316132  14.9766798
  43.2404823   9.0094328  13.8139915  19.9457321   9.5076208  66.0430374
  19.0585289   9.8053913  65.8419495  20.1726818   9.9618464  66.8544540
  79.4037628  48.5838814   0.4462560  79.6119080  47.6789932   0.2136902
  79.3002701  48.5688972   1.3977269  39.8604927  10.9773531  84.7002716
  39.6976624  11.7318106  84.1341324  39.9341850  10.2372475  84.0977402
   9.2198477  36.1535645  41.7586784   9.6243134  36.7922821  41.1715851
   9.8164549  36.1033020  42.5055161  43.6267776  40.2428856  74.1254272
  42.9228821  40.1370964  74.7654037  43.5813789  39.4529877  73.5866928
   1.8538967  35.4972572   5.0721731   1.5725930  35.2298546   5.9471569
   1.4745841  34.8409920   4.4876490  18.9184532   7.1088142  37.5029526
  19.8733540   7.0733943  37.4468880  18.6540432   6.2025757  37.6612244
  16.1112709  40.0643921  60.8719025  16.1641121  40.8002129  61.4818268
  16.6936836  39.4023132  61.2443008  46.5165977  35.5138855  12.2101088
  46.0338745  35.1798401  12.9661674  46.1214790  36.3672714  12.0316515
  43.2816467  51.7405624  84.5331573  42.3765030  51.9435730  84.7692261
  43.6219482  51.2548447  85.2844925   1.2953283  71.2380600  72.4439621
   1.1539388  70.2917709  72.4159012   0.4354114  71.6143799  72.2564545
  14.6000156  38.7131119  49.7484016  13.9355488  39.0498161  50.3495216
  14.7671003  39.4378014  49.1457863   0.7489145  11.9089575  71.4338150
   1.6202129  12.2195902  71.1876831   0.1904684  12.1522827  70.6954575
  52.4185982  66.8305817  26.8042202  52.3170433  66.5980682  25.8812599
  53.2605553  67.2840271  26.8457432  66.4298859  22.3723240  17.1521912
  65.8508148  21.8522034  16.5950737  66.5115356  23.2101879  16.6966152
  23.9962959   7.0469527  71.2514191  24.8260555   6.6552181  71.5239487
  24.1727886   7.9873576  71.2245712  59.8297539   8.1455431  68.8890457
  60.3347740   8.6767168  69.5047073  59.3728065   7.5099273  69.4398880
   0.4915338  70.0140457  59.5324478  -0.1143524  69.3009872  59.7341309
   1.0855310  70.0429916  60.2824898  78.1411667  26.0903206  29.3961601
  78.1581116  25.5083466  28.6363907  77.9873581  25.5082645  30.1403275
  67.6992416  52.2033615  51.2279434  68.4331665  51.6763420  51.5439224
  66.9255905  51.7920418  51.6133080  50.7810135  31.7481117  18.3222389
  51.2240067  30.9047184  18.2291069  50.9442406  32.1972618  17.4928703
  77.7361984   0.7225412  36.8788414  76.9905624   0.8485779  37.4656792
  77.9834747  -0.1942899  36.9992714   5.2288890  11.7215919  76.2229233
   4.9443483  11.8331299  77.1300201   4.6035767  11.0999002  75.8504791
  72.9498215  34.1910591  79.7779388  72.0944672  34.3384972  79.3743591
  73.5523453  34.7307892  79.2661896  11.3782969  70.7058029  66.4533539
  11.9153204  70.9900284  65.7137222  11.4079952  71.4398499  67.0669708
  86.2357330  40.4695549  42.0041389  86.8327942  40.3732071  41.2622032
  86.4669952  39.7508812  42.5925751  37.7008362  11.3941946  41.3641739
  38.0973015  11.7671995  42.1515198  38.1881943  11.7884607  40.6408005
  32.4560623  61.7118340  34.5614700  31.7520695  61.0651054  34.5128250
  32.7005997  61.8687363  33.6494293  10.0464964  56.9352379  55.0530777
  10.0488167  56.9509315  56.0101433   9.5286608  56.1624680  54.8274574
  40.9525261  61.0002022  52.2152252  41.8061790  60.5943031  52.3660698
  40.3430214  60.2639542  52.1635475  44.6867676  56.6784325  80.1094131
  44.7850189  57.3821526  80.7507782  43.9083290  56.9191437  79.6070938
  37.5173721  68.0708923  62.8957329  38.2739410  68.1059418  62.3104057
  36.8851776  68.6750488  62.5064392   8.6438189  60.3813629   7.8052902
   8.3046999  61.2505112   8.0193310   9.5703373  60.5263214   7.6135039
  52.2742996   2.4669607  42.5948219  52.0177765   3.3867536  42.5284157
  52.9855118   2.4623094  43.2354355  58.2095222   1.3208841  23.4466610
  58.6437569   0.5641744  23.8404427  57.3494606   1.3484756  23.8658981
  13.1416206  20.0775986  19.0969982  13.4990702  20.3877430  19.9290276
  12.5600777  20.7812328  18.8090076  83.6346817  39.6299934  17.1040745
  83.9078293  38.8715134  16.5880051  83.0919113  40.1437302  16.5059853
  42.7100792   4.2946801   8.7959738  43.2136192   3.6398180   8.3124075
  41.8403130   4.2705789   8.3970289  56.6001434  64.9336548  17.0569820
  57.4439507  65.2308807  17.3973999  56.3279381  64.2430191  17.6612606
  66.2964325  22.4867592   4.2353420  67.1601105  22.1904984   4.5226083
  65.9062347  22.8799763   5.0159535  58.4200592  62.6518898   7.8254905
  59.1699181  62.0816040   7.9949560  58.1481247  62.4315910   6.9345641
  82.7401428   9.0077047  32.2138176  81.9593658   8.6836510  31.7648067
  82.7823105   8.4950476  33.0210571  73.4598846  56.6026459   3.5999382
  72.7810974  56.7210617   4.2643661  74.0049896  55.8923264   3.9383698
  13.9584951   7.7901406  14.4334030  14.4735537   7.1934099  14.9764128
  14.2840061   8.6613474  14.6598406  66.8567810   6.6677895  20.4373837
  66.5040817   6.8558693  21.3071327  67.4337234   7.4076591  20.2477531
  15.4777689  13.4354277  22.1916008  15.9443350  14.2702427  22.2319736
  16.1494827  12.7969809  21.9519787  51.2581444  14.3920851  66.9766464
  50.5777664  13.7236223  66.8961945  50.9845772  15.0857296  66.3764343
  36.9000854  54.9864464  16.5850658  37.0690384  54.1273994  16.9720078
  37.3865509  55.5979996  17.1378670  11.2938528  44.1851349   4.7158990
  10.4964561  44.2595596   4.1916366  11.9752579  43.9552879   4.0841622
  49.6746216  49.4413147   8.2545338  49.5242004  48.7460938   7.6140070
  48.8718796  49.9623489   8.2354479  16.5169849  14.5650883  70.3106842
  17.1146240  13.8200750  70.3740463  15.7561760  14.3067503  70.8309402
  38.3617325  68.4980621  13.7462130  38.3727188  67.9504318  12.9612160
  39.2331047  68.3884583  14.1269169  59.8708076  69.9779053  74.8302231
  59.0937920  69.5976868  75.2399826  59.8404808  70.9035416  75.0721130
  25.9189568  25.3476620   3.6095760  25.2038345  25.1727390   4.2213221
  26.2530346  26.2058163   3.8707240  15.7323732  29.0197315  63.5952644
  14.8845301  29.3719063  63.8661270  16.1991253  28.8613377  64.4158096
  84.9087067  47.8264618  25.6356392  85.5051346  48.0911674  24.9353294
  84.9670258  48.5323486  26.2794971  35.4206161  52.1460266  78.6196213
  35.0448570  51.4137573  78.1309357  35.6130600  51.7833099  79.4842834
  18.0781403  50.7325630  72.3729782  17.2979031  51.2868195  72.3891830
  17.7549362  49.8717232  72.1070404  74.0957413   6.7301936  23.8246517
  74.5895157   5.9182553  23.9394436  73.5532837   6.5733910  23.0517445
   1.8226144  70.0196686  29.0595551   2.7203801  70.3516464  29.0657387
   1.4553534  70.3066788  29.8956013  76.9999390  52.0228348  81.3906479
  76.4985504  52.7290726  81.7981644  76.3513794  51.5249863  80.8929062
  44.7346382  71.2076416  25.5895081  44.8385887  70.3541412  25.1688328
  44.1209412  71.6791458  25.0262203  69.7808762  13.5809660  29.0174732
  69.9193802  13.1482954  29.8599949  70.0911331  14.4761276  29.1540585
  10.7181091  20.4704571  52.4782715   9.8351469  20.7561283  52.2437477
  10.5811958  19.7369003  53.0777550  64.0478287  20.7420025  83.3809738
  64.0981064  21.5853786  82.9310608  64.7387848  20.2149258  82.9797287
  52.5629349  53.0325089  26.1488991  52.8160477  52.1948357  25.7610016
  51.6366158  52.9260864  26.3653202  82.3786926  22.4616776  65.6323090
  82.6236267  22.8337345  64.7850723  82.5814743  21.5296364  65.5522308
  30.7835312  16.8184490  12.3311586  31.6046391  17.3097343  12.3056555
  30.7889881  16.3008766  11.5259743  81.2533493  66.9952927  78.1187363
  80.9555969  67.6744461  78.7239838  82.2005768  67.1217880  78.0640030
  61.8890991  28.6705532  10.4173298  62.1368332  29.4482841   9.9173336
  62.6243515  28.5241966  11.0124912   8.5489311  28.6155415  33.2688980
   9.2980003  28.1972084  32.8444862   8.6551313  28.4111614  34.1979713
  62.3693886  31.4591808  58.7700768  62.7930069  32.3167419  58.7330132
  62.6751060  31.0763664  59.5924034   0.2342754  48.9424515  75.1946030
   0.2173401  49.6213188  75.8692017   0.2982697  48.1214523  75.6825562
  64.9582901  43.9568100  59.3694763  64.7937088  43.8167114  60.3019562
  65.3202972  43.1255341  59.0626183  40.3705063   8.2299528  20.8857861
  41.0146751   8.0948915  20.1907768  39.6783257   8.7469196  20.4736423
  19.2799759  57.9051170  49.6923943  18.9092331  58.7587357  49.9162521
  18.9254818  57.7100716  48.8249130  76.4508972  40.4775391  81.0554199
  76.0397568  40.7893410  81.8616257  76.3936081  41.2204208  80.4545212
  36.9674683  71.1834793  78.5203094  37.1282692  70.2528229  78.3645477
  37.5420990  71.6328354  77.9005432  69.8194580  51.0379181  43.8713074
  69.6473999  50.2064629  43.4293633  70.2773895  50.7917099  44.6749916
  45.7838974  64.7360687  43.9018250  44.9773483  64.3547134  43.5550117
  45.8201408  64.4349518  44.8097038  65.8848190  18.7422371  30.7431755
  65.7186432  18.2064667  29.9675655  66.7174606  18.4167385  31.0852165
  68.1571045  36.0766182  18.1057014  68.5682068  36.8625183  17.7457218
  68.8588867  35.4259109  18.1234226  61.1790619  42.0648003  40.6978416
  61.5662498  41.3638878  40.1733971  61.6662064  42.8493614  40.4460869
  74.7897034  26.1352901  34.4739952  75.4868011  26.7068253  34.1520576
  74.3687057  26.6397362  35.1700745   9.6799097  20.8549290  10.1061020
   9.4611778  21.7450485  10.3819227   8.8847065  20.3496132  10.2750359
  62.4698563  17.4082088   1.5546211  63.1583519  16.7528572   1.4418334
  61.6671104  16.8970318   1.6572273  63.7266922  12.9055176  39.7230453
  62.9264793  13.3965254  39.5364952  64.4298477  13.5476894  39.6259956
  44.0324020   4.7177558  86.6231384  43.0863075   4.5979276  86.7054901
  44.2554054   4.2989335  85.7918243  27.2682495  50.4203377  21.4195576
  27.2036610  51.2026939  20.8718567  27.7136192  50.7191124  22.2124081
  22.4235611  65.3187408  88.8330688  22.2715187  65.3981476  89.7747726
  21.7210751  65.8312607  88.4329834   2.6306391  18.7509556  31.4374886
   3.5643659  18.5493870  31.4987793   2.3677843  18.9443359  32.3373451
  11.0026817  26.3393269  60.4287033  11.2605371  26.6012650  61.3125191
  11.7234030  25.7890568  60.1221161  29.4930725  62.0119324  21.1453495
  29.4271736  62.8171196  21.6587334  29.0715752  62.2237511  20.3124599
  15.7623892  48.4474068  87.6267776  15.6469355  49.1621056  88.2529602
  14.8947840  48.3237724  87.2417984  21.1030025  20.5680981  85.9878769
  21.9334602  20.3433285  85.5682983  21.1552162  20.1640759  86.8540649
  52.6447296  55.8720360  82.6712952  51.8069000  56.3314056  82.6142120
  52.4152908  54.9913521  82.9679184  43.5447388   6.5033164  54.2461433
  43.8816986   5.6209803  54.0906715  43.5471764   6.5962124  55.1988220
  81.5133743  35.1945381  75.9949265  81.5999908  35.9968300  75.4800873
  81.3370972  34.5121727  75.3472061  57.2333717  18.7581673  35.0482712
  58.1559372  18.6960144  34.8008080  57.2445564  18.8069324  36.0041618
  71.2312241  51.0449219  14.5175476  72.1112442  50.7271194  14.3155403
  71.3445816  51.9830017  14.6704769  67.5772781  43.5272064   0.8766747
  67.3855133  44.4394951   0.6594471  66.7538071  43.0653191   0.7192173
  80.5472870  14.6772919  72.0059433  80.1063156  14.2548399  72.7430344
  81.0782776  13.9834700  71.6149292  83.7417831  45.1537819  18.5100632
  83.0601349  45.8027763  18.6844063  83.2818375  44.3144073  18.5213413
  19.3229332  21.4567966  26.4401340  19.8719559  22.1726494  26.1201954
  18.5517025  21.8909760  26.8047199  66.5195541  16.2599831  36.7861595
  66.9401245  16.9228172  37.3338852  67.1246643  16.1341419  36.0552444
  15.6249657   2.9892108   8.3362036  16.3708630   3.5817556   8.2426109
  15.8669739   2.4120591   9.0604677  75.2341003  42.0232544  37.7880478
  74.7551422  41.9202347  36.9657249  74.6161728  41.7405243  38.4621773
   2.8945081  38.5659294  79.8221054   2.4233563  37.7327156  79.8245468
   3.3657415  38.5770569  80.6551971   9.1684790  70.2145386  64.2428131
   9.3087502  71.1568222  64.3358688   8.7210407  69.9582062  65.0492401
  64.6104813  61.1081886  41.5679970  64.4357758  60.2492752  41.9526749
  65.0416641  60.9146156  40.7356262  55.3111038  52.8031960  77.9831161
  54.7640877  52.3388557  77.3495560  56.2050896  52.6782990  77.6646423
  73.8706436  11.3527279  28.2637386  74.5061188  10.6934137  27.9849854
  74.2088623  11.6728783  29.1000061  73.6157837  43.2329330  51.7894135
  73.6887131  44.1673698  51.9836998  73.1452484  42.8684464  52.5390625
  69.3978958  26.3685627  13.6559391  69.7353287  25.8792400  12.9056482
  69.6814575  27.2696362  13.5013695  43.7893486  39.7836761   2.5604923
  44.4120636  39.5776520   1.8633475  43.4814873  40.6660843   2.3535831
  83.5104752  47.2320213   7.5399647  83.6356812  47.4807014   6.6241512
  82.7292862  47.7125397   7.8139777  49.2582321  64.5297546   4.5241055
  49.6093216  65.4021912   4.7024684  48.3313904  64.6782761   4.3366466
   4.8528724  18.7787533  62.8321304   5.0030026  18.1719093  63.5569992
   4.1228986  18.3952827  62.3460045  59.1478844  43.3469009  54.1975517
  58.5865936  43.1447830  54.9461021  58.9722328  42.6455994  53.5702095
  34.1303291  19.0989819  28.8811417  33.3577156  19.6508369  28.7596664
  34.7617149  19.4265003  28.2405834   1.6808116  61.4716034  18.5984039
   1.6642075  61.8844223  17.7349586   1.0375276  61.9616089  19.1105690
  37.6667671  53.8421211  78.7441101  36.9539833  53.2272301  78.5706787
  37.2525978  54.7044373  78.7108994  33.2981720  54.8848686  71.5234528
  32.8085861  55.6917915  71.3640366  33.8820953  54.8060036  70.7691040
  71.9008102  45.3178902  83.2416534  72.6224670  45.1000214  82.6517563
  71.2909393  44.5852585  83.1547852  20.8501415  68.3248672  61.4205017
  21.5867138  68.5177536  60.8404236  21.2236900  67.7707214  62.1057892
  56.3230209  54.1997452  74.2536011  56.6418152  54.6795921  75.0180283
  55.5320244  54.6692657  73.9888306   3.2084634  51.1579704  46.8105850
   3.1125867  50.9835510  47.7468605   2.5163693  51.7888031  46.6123657
  37.7837791  44.0906219  80.9685059  37.3451347  44.9342308  81.0787201
  38.6307640  44.3099861  80.5802689  82.7155914  59.8249130   3.3022628
  81.8192368  59.4910507   3.3386605  83.2639236  59.0569115   3.4626698
  67.9991760  28.7668629  59.6818657  68.3478012  27.9605598  60.0620918
  67.8680115  28.5583115  58.7569160  72.4331512  19.2179737  70.6530991
  72.9013519  19.5814648  69.9015045  71.5782471  18.9662266  70.3038254
  67.5905151  36.6874657  11.0328197  68.4965744  36.7844620  10.7397861
  67.6384354  36.7567291  11.9863071  56.2042618   8.2721329  39.6644630
  56.1496887   7.6624107  38.9286041  55.4419899   8.0642538  40.2047958
  24.0275517  52.1932182  30.5410728  24.1072884  51.4116974  29.9941730
  24.7967129  52.7188683  30.3212643  69.1119614  33.3501434   3.5340519
  68.7859421  34.1021004   3.0395763  69.8064804  33.7094193   4.0861359
  70.7122803  36.2565308  81.2839890  71.0970612  36.6761703  80.5145187
  70.1187439  36.9153404  81.6444244  50.4458237  13.3816366  81.4447479
  50.8796120  12.5831051  81.7454300  50.7404861  13.4882393  80.5402908
  52.6093941  10.4178400  51.5662842  52.5505180   9.4811182  51.7542152
  51.7080269  10.6823540  51.3824310  82.4693069  21.0886517  59.7312126
  82.6497803  20.1754341  59.9541397  83.0538940  21.2759380  58.9967613
   9.4364405  36.3340950  31.5648327  10.3169479  36.6651344  31.3877621
   8.8551731  36.9462585  31.1135941  72.3122711  40.8422165  87.1467133
  72.2358627  41.3323708  86.3280869  71.5124588  41.0538139  87.6281204
  54.1685295  48.6285706  73.1751709  53.8441772  48.3936882  74.0445709
  54.7984924  47.9405708  72.9606171  76.7905273  54.0930710  56.1031685
  77.4953537  53.9066734  56.7234154  76.7669601  53.3267860  55.5300331
  78.8867950  59.4756813  76.9084854  79.5976791  58.8777809  76.6774368
  78.5487289  59.1368523  77.7374268  82.4930496  48.9153595  31.8819790
  83.2871704  49.2583542  31.4721508  81.9638672  48.5978546  31.1502724
  82.8817291  27.2755699   4.9744258  82.0146713  27.5501938   4.6760635
  82.7086868  26.5635872   5.5903554   8.3602600  12.4300995   3.1353812
   8.7941694  12.0165224   3.8816440   8.3266869  11.7448301   2.4679158
   7.2820520  18.6889954  61.4928360   6.5272107  18.7872295  62.0731773
   7.2118211  17.7951183  61.1577492  38.4626961  55.0854836  14.1967258
  39.2188148  55.6708717  14.2396097  38.2205849  54.9395714  15.1112347
  67.5440216  31.2672405  15.4234324  68.3131866  31.8049355  15.6118584
  67.8706436  30.5750885  14.8485622  33.7626648  51.1983490  67.3858261
  33.3905869  51.7449417  66.6937103  34.3816109  50.6260605  66.9323730
  53.1078529  34.6958466   8.7071428  52.3613281  34.7449188   9.3042431
  53.6835518  35.4085464   8.9843807  80.6096573  -0.0458039  35.7419701
  80.9554825   0.8451201  35.7957153  79.9613495  -0.0090545  35.0387077
  13.4760656  39.9415131  60.5675850  13.2306433  40.5803413  59.8983345
  14.4321365  39.9121819  60.5315475  40.3724632  14.5805111  64.4122238
  41.1016617  14.2274008  63.9025040  40.1034279  15.3647356  63.9338493
  61.2700882  56.9880257  72.7018433  60.8586464  56.7027016  73.5176468
  61.9922333  57.5505104  72.9817505  81.0943451  61.4789619  43.1910553
  81.8133698  62.0283661  42.8789787  80.5510101  62.0692902  43.7131042
  67.5426941  31.8412285   1.7277468  68.0849457  32.4454422   2.2348194
  67.5362244  31.0348339   2.2434182  68.8214264  25.7209930  19.0454597
  69.1483383  25.7759323  18.1474915  69.0521164  24.8368683  19.3306599
  17.4626789  31.4642563  22.4923306  17.7405586  31.8913403  23.3026485
  17.3408394  32.1832123  21.8722553  54.3033295  62.7671509  43.0488091
  54.4362717  63.3637123  43.7854691  54.6400452  63.2443123  42.2904091
  66.9873428   1.4363497  85.1350861  66.8590622   2.2103760  84.5867615
  67.5206528   1.7468803  85.8667831  26.8939476   1.1492254   0.9035066
  26.5731297   0.5224591   0.2550683  26.5312862   0.8413177   1.7341096
   7.0993476  69.5657959  77.4680557   7.4466023  69.8471375  78.3145142
   6.1554637  69.4919357  77.6089783  57.4349861  48.7557297  49.5930977
  56.8455162  48.0680161  49.9026222  56.8686752  49.5166473  49.4645348
  51.1531906  44.4198875  39.2638817  51.5907059  44.5917931  38.4300575
  50.3270035  44.0029221  39.0193596  59.6051674  17.4571705  43.8224335
  59.7325706  16.6668720  43.2976189  59.2221527  17.1419010  44.6410522
  69.8263168  24.7418613  69.3714294  70.0311813  24.9169960  68.4529572
  70.3818436  23.9975605  69.6030273  67.7222900  20.8286686  73.1634750
  67.4334335  19.9870110  73.5161972  68.5313492  21.0218735  73.6371002
  33.4887733  33.1948967   3.4758093  33.8655090  34.0666733   3.3561957
  34.1961441  32.6793861   3.8632474  85.5732651  52.4980812  33.7721939
  85.0755081  51.6880875  33.6609192  84.9898834  53.1841698  33.4478798
  51.0242577  21.9462090  68.3196716  50.5013275  22.1398411  69.0976715
  51.9278488  21.9343643  68.6352844  83.9566803  66.9973907  73.8572464
  84.0211182  66.1348190  74.2671738  83.0499878  67.2659454  74.0055923
  35.1887245  20.2098904  75.3446350  35.1059036  20.1691399  76.2973785
  34.6960411  20.9915409  75.0946045  85.2160873   9.8359203  39.0741043
  84.4182739   9.5948029  38.6033783  85.8028793  10.1698265  38.3955688
   3.1678572  11.8141298   1.5115622   2.6529164  11.3801394   2.1917975
   4.0173016  11.9771423   1.9215658  85.0001602  40.6843491  50.9948463
  84.4369888  41.1700668  51.5974617  85.5916214  41.3451118  50.6345711
  79.8018646  10.8105307  58.0473824  79.5692368  11.3658295  58.7915344
  80.7450562  10.6736860  58.1362648  12.1788177  61.2944565  18.2923355
  11.9116144  61.3214874  19.2110882  11.7897053  60.4882851  17.9533520
  13.3655052  68.9796524  38.1409950  13.0887041  68.1323853  38.4899101
  13.1783123  69.6011276  38.8445320   2.9258955  43.9399338  28.0390968
   3.3942645  44.1550179  27.2324982   2.0304072  44.2400742  27.8833790
  11.9992151  61.3537407  47.2585373  11.1129732  61.2625656  47.6085281
  12.5578032  61.4136276  48.0335388  11.3144245  71.4279633  88.5383377
  12.0565243  70.8392792  88.6760635  11.6988230  72.2087326  88.1397476
  26.4014778  56.8594780  42.0493393  25.9995098  55.9915047  42.0851364
  26.3804054  57.1706924  42.9542885   6.6959553  42.5725327  51.3552322
   5.7589798  42.7539177  51.2816925   7.0676780  43.3761826  51.7188187
  18.1137104  19.2875614   5.1820321  17.2365532  18.9120998   5.2585497
  18.1186867  19.7116699   4.3239303  58.6725121  55.2133331   9.3559608
  58.5807152  55.1194992  10.3041162  59.3262138  55.9038200   9.2457895
  12.5348959  42.1622620  71.1097183  13.2403116  42.7678909  71.3373871
  11.7325811  42.6639137  71.2541885  20.6725674   7.1694670   4.7807684
  20.4100113   7.2245212   3.8619292  20.1639957   6.4384651   5.1318026
  65.5958633  40.1893997  76.8244553  64.9589233  39.4903145  76.6767578
  65.0647736  40.9783554  76.9327316  84.1204681  70.7116470  53.9124413
  84.4834595  69.8661346  54.1762123  84.3437729  71.3029251  54.6313019
  47.6885529  70.9479141  59.0762062  48.5111046  71.3498077  59.3557205
  47.2117805  71.6552811  58.6419754  24.4270782   2.3581700   7.3352065
  24.7326107   3.2537837   7.1911287  23.5110893   2.4564764   7.5950766
  61.3393898  70.2490005  72.5320587  60.8970871  69.8068390  71.8074265
  60.7947464  70.0600281  73.2961884  10.9982080   0.3370196  25.0359306
  10.1405659   0.7572845  24.9722176  11.5380888   0.9658491  25.5148182
  51.2662659  57.0446358   5.6711621  50.5471497  56.4135590   5.6421032
  50.8378677  57.8898468   5.8065138  45.0760574  36.5833969  21.1403580
  44.7784729  36.6828194  20.2360401  45.9763794  36.9083633  21.1333313
  81.4835815  38.9612198  84.8473892  81.3963165  39.8732033  85.1246948
  81.5872574  38.4716415  85.6633530  40.8695450   7.8496022  63.8983307
  41.3793106   7.7894115  64.7062607  41.3850670   7.3655295  63.2532387
   5.9789724  35.1437531  70.5404053   6.0715189  35.9780960  70.0804672
   6.1838584  35.3490944  71.4525909   2.0687995  66.4120789   3.2741497
   2.5749838  66.0856705   4.0181031   1.3474368  65.7894440   3.1836190
  11.2943707  28.9968491  10.6444225  10.6209583  29.5923729  10.9732075
  12.0468655  29.1468487  11.2166843  62.8546410  69.2492065  84.0756149
  62.2433357  69.0996552  84.7968445  63.2871208  68.4046936  83.9491882
  57.3153534  13.5855436  73.3110352  58.0265312  13.7068958  73.9401093
  57.1433563  12.6439953  73.3226700  63.4993401  10.5868368  33.4045486
  63.2446976  11.4554739  33.7157669  64.4033279  10.6939344  33.1086349
  62.0661774  61.4031677  19.7480469  62.8688011  61.7728958  20.1159153
  61.7745285  62.0527229  19.1083202  59.4914627  36.6527863  13.3327456
  58.8747635  35.9352608  13.1875954  60.2229691  36.2490959  13.7998276
  53.4618683  51.8204956   2.1294315  53.2329330  52.2995300   2.9258912
  54.3168983  51.4344711   2.3195262  55.0330048  57.2389908  14.4195099
  55.8753891  56.8427811  14.6423120  54.3822174  56.6181374  14.7470036
  61.1818428  48.2117004  34.6065025  60.4330673  48.4154243  35.1669159
  61.1570053  48.8797035  33.9213867  18.0729122  38.9108200  22.7064457
  18.4106827  38.4901199  21.9157791  18.3299923  38.3246155  23.4181366
  40.6383667  48.0283699   1.2298206  40.1442642  48.8347969   1.3773735
  41.0003548  47.8087959   2.0882969  22.3240585  27.3466568  28.2941608
  21.9438038  27.2783051  27.4183960  21.6760178  26.9395638  28.8690948
  68.0393677  37.9515343  33.4963722  68.4985504  37.4059906  34.1349373
  67.3939362  37.3656464  33.1009216   6.4107666   2.5923033  28.0511265
   6.7075772   3.4895043  27.8989239   5.4559236   2.6457689  28.0105381
   6.7802887   8.0323038  77.3828430   7.6942825   8.2690582  77.2253799
   6.3700218   8.8448105  77.6790619  54.7647591  10.6747541  35.1705856
  55.4288635  10.8942289  35.8240585  54.0585899  10.2691612  35.6736298
  55.0624886  34.3369713  40.7255363  55.9288521  33.9371567  40.8016624
  55.2395973  35.2656364  40.5757179  53.0788422  40.9408989  31.5868645
  52.9978790  40.2397385  30.9402924  53.6763458  41.5706940  31.1836548
   6.4710646  65.4226074  15.3834267   7.1300917  65.4073105  16.0774593
   5.9512177  64.6322174  15.5293016   4.8607588  21.0432472  16.5535450
   4.9165902  21.7864227  15.9528761   5.7711787  20.7913361  16.7081661
  28.5343609  53.3453407   1.2988939  29.2540684  53.9524612   1.4711161
  28.9504128  52.4839287   1.2657040  36.6678619  24.2838306  13.8984251
  35.9271202  24.7766075  14.2515574  36.3230820  23.4022923  13.7561245
  76.4223633  46.0870209  25.5388870  76.3767548  46.2050400  24.5900860
  75.5081558  46.0645981  25.8216686  35.1954498  62.5100212  85.2981720
  35.0038910  62.7573662  86.2027969  34.8117294  63.2113419  84.7717285
   3.9289818  43.5088196  48.4760895   3.8312576  42.6020546  48.1854744
   4.2474165  43.4389000  49.3760567   2.9066997   6.3033476  24.5756912
   2.6755862   5.6226072  25.2076817   3.5714221   5.8976970  24.0190735
  29.7296371   0.0423544   9.6077042  29.6461716   0.6572983   8.8789310
  29.2416363   0.4507295  10.3227692  56.1635323  35.8083725  14.6584587
  56.1967010  34.9532013  14.2297258  55.2462463  35.9144897  14.9105644
  60.7046242  59.5614204  76.9971390  60.2894249  60.3705063  76.6984482
  61.6215096  59.7993774  77.1347275  85.8931961   4.7900238  74.0728073
  86.8286438   4.6237173  73.9565964  85.8484116   5.4051013  74.8048630
   3.6988168   5.1527452  75.6123047   3.5537412   5.1290603  76.5581512
   4.6277666   4.9472013  75.5072556  23.8454304  26.3416328  12.0929041
  23.6933632  27.2780170  11.9652624  23.1031342  26.0482731  12.6212673
  13.6159830  31.3509693  13.9311781  12.7576504  31.7123280  14.1523476
  13.9196320  30.9418240  14.7415056   4.8967304  -0.0257274  69.2502823
   3.9984314   0.1811456  69.5081482   5.4269648   0.2259657  70.0064163
   3.3585730  70.8855362   2.8758614   3.5469060  70.0977249   3.3858705
   4.1263127  71.4427567   3.0035772  62.8674583  50.7290039  24.9433594
  62.0245895  50.2807312  25.0130177  63.2427330  50.4074364  24.1236057
  80.4209747  22.8333549  62.6215591  80.5007706  22.8365059  61.6676979
  79.7492981  23.4893799  62.8078880   0.8082349  29.6998615  68.7650909
   0.7331944  30.4091434  69.4034653  -0.0003263  29.1980820  68.8684311
  12.0953951  32.9478645  42.7633057  12.7575922  32.8753853  42.0759392
  11.9878454  33.8899956  42.8938866   5.7217035  42.0007858  80.7536469
   5.2984071  42.4008026  79.9940109   5.7579665  42.7018089  81.4043961
  69.8664551  45.2141228  45.0404167  70.3636093  45.6562538  44.3522415
  69.1954956  45.8472939  45.2956352  82.9239044  27.8380051  57.3249741
  83.0590591  27.8735905  56.3780327  83.6447525  28.3517246  57.6892700
  81.4727402  43.8743629  50.4368057  80.8909302  43.3895493  51.0221939
  82.3322296  43.8203316  50.8546524  78.3264923  40.0853157  85.5659409
  78.8460388  40.5720177  84.9260788  78.9030075  39.9966278  86.3248901
  43.6331673  67.2088242  75.9878769  44.2380943  67.9278717  75.8054733
  42.8190804  67.6405792  76.2468872   5.0916090  39.2970657  20.5700607
   4.6807413  38.6058578  20.0507832   4.4712434  39.4645119  21.2795258
  79.1048584  13.2130003  40.0297165  79.3419342  13.3064346  39.1070595
  78.1501465  13.1441374  40.0259132  67.7113571  29.7834702  17.9418087
  67.8010101  30.1795235  18.8086052  67.8852997  30.5003071  17.3317928
  33.2430458  59.5993233  55.0996323  33.1429138  60.5461731  55.1980362
  33.5737419  59.3040009  55.9479599  53.1078339   3.0007210  45.5245514
  53.4397163   3.7047138  46.0817604  52.1645203   3.1564310  45.4782295
  43.2913971  52.5706940  80.1025085  42.5333633  52.2413216  80.5853500
  44.0015640  52.5731468  80.7442856  13.5150700  62.0966072  71.1516800
  13.2450390  61.4899979  70.4622345  13.7900639  62.8846817  70.6831207
  46.4627609   0.8056581  56.7931519  47.3886604   0.8335078  56.5519676
  45.9983444   1.0296576  55.9866982  69.6795578  24.5605736  35.6765251
  70.2147903  23.8522167  36.0342903  70.2851410  25.2963905  35.5866280
  -0.1706205  56.1258926  72.8093109  -0.0172126  55.1869850  72.9149094
   0.2587197  56.5253067  73.5658646  59.7548180  27.0385017   1.5057015
  60.6818962  27.0562515   1.2681254  59.3840218  27.8123741   1.0815952
  17.8739891  68.7935410  84.6735764  17.2805939  69.4920273  84.3974762
  18.6553383  68.9159698  84.1343765  42.4670067  56.3024902  57.3968163
  43.0164070  56.8026924  56.7933350  43.0457916  56.0927505  58.1297874
  10.7356234  23.1328335  82.3775864  10.1033354  22.5724735  82.8275146
  11.3884373  23.3418179  83.0457077  11.9227047  30.2049427  79.0423889
  12.3766623  29.9474411  79.8447876  12.2239065  31.0975323  78.8727112
  52.8921318  65.3927536  24.4355907  52.7996254  65.7240601  23.5423317
  53.2825966  64.5252151  24.3300438  54.9713707   0.8747019  30.2390022
  54.6478424   0.5499547  31.0792999  55.6629028   0.2596112  29.9947109
  65.3375244  66.5181046   2.8385627  65.1345749  66.5165634   1.9031258
  64.6549911  67.0626373   3.2308252  32.3656960  14.5556459  29.2483521
  32.4874535  15.2650576  28.6173668  32.4872894  14.9709949  30.1021271
  45.8830338   1.0229176  61.3541527  46.1849213   1.5324903  60.6021996
  45.7438545   0.1421030  61.0062637  67.9184875  51.9803772  19.1205330
  67.4195938  52.5053062  18.4946041  68.7919464  52.3719025  19.1189613
   9.1079998  18.9091835  84.4129791   9.3068581  18.7048473  83.4992294
   9.1791172  18.0695801  84.8671112  64.2537231  30.3446388  84.2571716
  64.7831268  31.1310558  84.1248474  64.8764877  29.6214733  84.1834335
  40.0316734   0.0653674   4.1821656  39.3503532  -0.6000118   4.0856981
  39.8570328   0.6907170   3.4788375   2.9480541  23.6822128  82.2638016
   2.1299670  24.1490898  82.0935364   3.3969166  24.2166023  82.9189224
  29.5875835   5.2922044  23.0071964  30.2576981   4.8091054  22.5236721
  29.3018742   5.9763818  22.4018002  67.2732239   8.2213831  46.1438446
  67.9206619   8.9097576  45.9915543  67.5745316   7.4866958  45.6093597
  73.1653442  60.6311073  77.9553757  73.1184769  61.5783043  78.0851822
  74.0964661  60.4241562  78.0354767  52.2283249  44.0553055  41.8756180
  52.0013962  43.9768524  40.9490204  52.7243271  43.2597885  42.0689201
  63.8728600  42.8680725  72.5462723  63.4679070  43.7333984  72.4874420
  63.9020691  42.6805878  73.4844742  33.3684540  19.5704594   4.2533894
  32.8533096  18.8338394   3.9243755  34.2781830  19.3093529   4.1104012
  65.8718262  48.9311028  28.9541817  65.5199814  48.1079483  29.2930927
  66.0397568  48.7565575  28.0281334  60.2924385  59.5542526  25.6115360
  59.4267540  59.2561378  25.3323383  60.4744873  59.0512428  26.4053059
  60.8476791  21.4632111  79.8346634  60.1665916  21.6653347  79.1931839
  61.2556496  22.3079262  80.0250549  75.0011826  32.2635422  30.8178101
  74.9783859  33.0406609  30.2594185  74.2180786  31.7701759  30.5737247
  43.3869667  16.1765041  72.5106354  43.1169319  17.0406647  72.1999207
  44.3026695  16.1008720  72.2423172   7.3464675  14.9532261  58.8802299
   8.2564163  14.6850557  59.0079346   7.1421957  15.4822311  59.6513710
  10.0229092  25.3104630  53.2693710  10.8255482  25.8187828  53.3860474
  10.0769367  24.9799557  52.3726692  48.2247810  64.5714645  38.0861778
  48.5470009  65.2098846  37.4499168  47.9274178  63.8328972  37.5548401
  77.5765381  65.7002869  60.7713623  77.4164276  64.7936935  61.0334206
  78.3538589  65.6549606  60.2146225  26.9236412  66.0385361  56.6406212
  26.1040115  66.5171661  56.7645226  27.4166870  66.5664444  56.0125656
  17.3630390  16.7422771  88.3885040  17.4315052  15.8014698  88.5510635
  17.4479313  17.1417255  89.2542191   4.6605577   1.8170199  57.8099976
   4.2062988   1.3934864  57.0816422   3.9613397   2.2103214  58.3321457
  42.8273811  52.3500710  33.7001114  42.9516029  51.7153664  34.4057693
  42.1060486  52.9033203  33.9998245  16.4767399  14.5318089  55.2952232
  16.2927017  14.3994160  56.2251892  17.3925323  14.2727375  55.1930504
   1.6616503  64.3961487  12.5801983   1.8251649  63.5533752  12.1568508
   1.0418143  64.1956406  13.2815037  40.9337769  45.4867630  13.3134346
  41.1238441  45.7197952  14.2221708  41.6425247  45.8875237  12.8101435
  17.8551636  68.3449402   7.7834640  17.6073074  69.0512390   8.3800802
  18.1530342  67.6396103   8.3579330   7.5051880  16.1587963  44.6459312
   6.9280748  15.8050451  45.3227081   7.6791925  17.0576134  44.9253654
  58.6859550  15.5695305  68.4066238  58.5477028  16.2458897  69.0696869
  58.1003609  14.8577414  68.6648254  38.4852409  54.5885506   8.6687403
  38.2060661  53.6729965   8.6759348  38.5242844  54.8197556   7.7407045
  71.5362320  23.5694370  43.6965523  72.2493286  24.1224213  44.0158310
  71.5592117  23.6743870  42.7454033   7.2677817  41.2211037  38.8704453
   7.8184710  41.6335297  39.5359344   7.1167803  40.3351784  39.1999397
  36.2640190  16.9615726  19.5050755  35.7986259  16.6176777  20.2675552
  37.1285057  16.5528183  19.5476971  22.8455715  32.2603912  29.1974106
  22.2294941  31.5329132  29.2837505  22.2941132  33.0427742  29.1993237
  15.5118332  49.4154510  44.5738640  15.3940811  50.3588448  44.6851082
  16.2488728  49.1971703  45.1442642  70.2409210  52.0530052  22.5600414
  70.2867737  52.9418755  22.2078495  70.4589615  52.1510773  23.4869022
  28.4871407  55.8959961   6.7502532  29.3009605  55.9911156   6.2553959
  28.0860100  56.7645912   6.7208118   3.3322697  16.1454277  51.6591949
   2.7526464  15.5142956  51.2326469   4.1887484  15.9916058  51.2604256
   6.3409462  68.0856094  32.3073120   6.5503531  67.5226593  31.5620098
   6.9437690  67.8053360  32.9959908  77.2013168  27.7498779  33.8018112
  78.1059113  27.8318710  33.4998093  76.7147751  28.3846855  33.2759476
  28.2273121  70.2377396  28.4847946  28.0490723  69.3237991  28.7065620
  27.8365631  70.7385483  29.2008533  59.8179893  47.1021080  45.5213699
  60.4626160  47.7390327  45.8296089  59.3239136  46.8627357  46.3054771
  11.7851992  15.4736500  42.3824692  12.0235939  14.6430807  42.7942390
  12.0844193  16.1414642  42.9994965  76.5017853  68.6241760  85.1068802
  77.4087219  68.4854202  85.3797302  76.0071335  67.9449997  85.5654373
  34.0119438   0.3504782  34.5431252  33.1580811   0.7575306  34.6896133
  34.6310349   1.0803548  34.5585556  43.3219261  22.7161026  11.4651594
  42.9224472  23.5344086  11.1701651  43.0602264  22.6389294  12.3826504
  17.8165798  65.4154892  43.8608093  17.3914165  65.8011551  44.6267929
  17.0930138  65.1583481  43.2893524  79.6899567  26.0273857   8.7198553
  79.7018356  26.8611584   8.2498417  79.9472580  26.2527218   9.6138639
  84.2039795  38.2993660   9.1777782  84.3486252  37.5343590   9.7346191
  84.9308014  38.8869324   9.3844795  42.2808990  66.5681381  36.1647453
  42.8118401  66.5026321  35.3709946  41.6846886  67.2973938  35.9945831
  35.9212685  58.5241203  55.5528679  36.3570709  59.3763542  55.5527954
  35.7119942  58.3620491  54.6329918  24.0618324  24.6163692  20.4845924
  23.9158401  24.0970325  19.6938934  24.9819965  24.4676361  20.7023315
  47.5713539  18.7618713   7.3148236  47.5776863  18.9711723   8.2488384
  48.4599724  18.4568195   7.1316986   6.4408059  31.0370426  46.9292145
   5.7781019  31.6901722  46.7045441   6.2176313  30.2754745  46.3940125
  59.3259850  53.8882599  76.0748596  59.1837044  54.4850197  75.3401031
  60.0857277  54.2484741  76.5323181  84.6552200   2.1416838  38.1635628
  84.5805511   2.7907429  37.4640083  84.9908829   2.6342854  38.9125023
  67.1836166  63.5404472  39.6112823  67.0707779  62.7594757  39.0694466
  66.6842346  63.3544807  40.4064369  70.2746811  21.6889801  71.3974991
  69.7082748  20.9192734  71.3430176  70.4418640  21.7975445  72.3337097
   0.4059293  31.5869751  52.6731949   0.9478220  32.0530319  52.0365067
   0.1108351  32.2663879  53.2794533  64.1867294  27.3599415  39.3196754
  63.6971474  26.5571957  39.1403961  63.5947037  27.8866959  39.8565788
   8.3226748  26.9966240  21.6302414   8.0303440  27.1044388  22.5353107
   7.7652655  27.5895271  21.1262646  22.5931931  61.7143173  14.8058109
  21.7022343  62.0191002  14.9776535  23.0635891  62.4977875  14.5209751
  45.1975555  58.2318687  82.3012466  46.0361824  58.4961281  81.9229584
  45.3252525  58.3121834  83.2464828   4.5149007  27.7086182  40.9005318
   4.3678241  27.9610558  41.8120575   4.3040371  26.7753239  40.8734627
   2.3134799  41.6713753  24.7993603   3.2702792  41.6917267  24.7805824
   2.0546598  42.5927010  24.8193436  31.7049274  46.9603043  23.6525288
  31.3472328  47.2569847  24.4893494  31.4754982  47.6542702  23.0344620
  46.0480804  49.4775009  16.8820744  45.3377609  49.9545784  16.4530277
  46.2907219  50.0278702  17.6266880   6.6694918   4.8228860   3.6544571
   7.3951745   4.2050295   3.7431695   5.9332590   4.3914981   4.0881596
  54.7981224  16.7696705  79.3843536  55.7329636  16.6917076  79.5746765
  54.5728188  17.6608047  79.6514664  44.8467293  61.9920731  79.1619186
  44.3112564  61.6744461  79.8889771  45.4457474  61.2699547  78.9722977
  49.8521614  19.0472412  72.0161896  49.3490868  19.7850266  71.6714859
  50.6824493  19.4331017  72.2954025  64.2881470  65.0124359  81.3592300
  63.8274841  65.3659058  80.5982590  63.7900963  64.2309723  81.5990143
  53.4932785  20.2817097  18.5783443  53.5482445  19.5409069  19.1820183
  53.7936020  21.0317516  19.0916424  59.7148438   4.6462431  31.0412312
  60.1020813   4.4566565  30.1866341  59.9597282   5.5543513  31.2190037
  82.0327301  68.7329636  14.2696514  81.6289444  68.7696609  15.1367407
  82.4876709  69.5705261  14.1816549  65.5002441  37.7981606  58.9618607
  64.9534225  38.2497864  58.3190155  64.9026108  37.1940308  59.4024277
  40.4793129   6.4809556  72.6070786  40.2155914   5.6481824  72.9984512
  41.1144066   6.2384477  71.9332275  37.1443024  52.9230690  13.0932388
  37.8174896  52.7081299  12.4475975  37.3824463  53.7957878  13.4060984
  36.1701965  20.7675419  59.6594620  36.7296066  20.9806805  58.9125595
  36.2570877  21.5190277  60.2459335  77.3719482  27.5410938  26.8351822
  77.4468231  28.4767780  27.0225811  77.2243652  27.1366596  27.6900997
  16.6985664  23.2945156  42.6144409  16.5253296  24.2234898  42.7668533
  17.2814865  23.2809753  41.8553276  65.6928864  46.3294220  24.3247070
  66.5359116  46.2652512  23.8759060  65.6622849  45.5565300  24.8885651
  40.3753166  50.9135628   3.0757439  40.8837280  51.4728050   3.6631072
  39.4636002  51.1414108   3.2576523  79.0134430  70.6848984  57.8277779
  79.2209091  71.3674240  58.4660187  79.2691650  71.0594940  56.9848557
   4.4209509  55.9125938  22.4344330   4.9105220  56.7343330  22.4705029
   5.0926661  55.2376938  22.3367577   3.5766218  13.1747160  17.4752464
   4.0891829  12.6745605  16.8401413   3.8796804  14.0766172  17.3705482
  60.7386475  19.2279720  34.5964012  60.4894714  19.5280743  35.4705200
  60.2634087  19.8065205  34.0000305  23.6747646  39.8967094  35.2981491
  23.0640793  39.1603584  35.3310738  23.3112507  40.4797325  34.6316910
  54.4133682  46.2945404  81.1420059  54.2333031  45.4164162  81.4777145
  54.4203415  46.1904335  80.1905060  24.4901695   4.8642683  39.6097603
  24.9009724   4.9004993  40.4735641  24.6437912   3.9686735  39.3088570
  60.9896126  51.5043678   2.5781202  61.0905190  51.0650787   1.7336820
  61.7792778  52.0381165   2.6663113  51.3678741   4.4141474  52.3389206
  51.0586815   3.9051962  51.5895195  50.6428986   5.0050178  52.5426750
  85.0503311  65.0327759  43.5977669  85.6004639  64.9842300  44.3795776
  85.4866333  64.4653168  42.9622726   8.3229494  18.7067280  34.4547729
   7.6651955  19.1914539  33.9561424   9.1128950  18.7515182  33.9160614
  27.4000816  62.9154663  15.5650864  26.5038433  63.2356949  15.6672745
  27.3147469  62.1358185  15.0163612  12.9176722  38.7881203  14.0118179
  13.0349436  39.2545662  14.8394098  13.6448240  39.0847626  13.4645653
  60.0909119   4.6929617  47.5279732  59.4939651   4.3241396  48.1790161
  60.5116234   3.9308960  47.1298637  16.0160255  69.1609344  37.1942902
  15.4920559  69.5946960  37.8677444  15.4000578  68.5785446  36.7497253
  85.2032166  36.1093140  47.3221169  85.1978989  37.0639420  47.2521629
  84.5074310  35.9112129  47.9489136  70.6781082  60.5544434  88.3507538
  71.1481552  61.2356071  87.8698120  71.3624420  60.0762558  88.8190079
   1.5814172  10.6347723   3.5595207   1.9730729  10.9151745   4.3866920
   0.6465790  10.8112621   3.6651652   7.7589726  43.7726707  73.9668274
   6.8294001  43.6041374  74.1208572   8.2109613  43.0789948  74.4471970
  57.7167740  50.1143074  41.2115974  58.1763229  49.6357040  41.9015160
  57.9020538  51.0353546  41.3948250  65.3974915  30.1178341  81.0401154
  65.3013611  29.4877796  81.7542725  66.1117477  29.7685852  80.5071106
  40.2918167   3.9669139  55.0352516  41.0518570   4.0769644  54.4638863
  39.5660973   4.3541136  54.5457230  76.8608398  54.5640526  24.0233555
  76.9213181  53.7672043  23.4964695  75.9331894  54.6318932  24.2494030
  78.7565994   6.9562335  52.8143578  79.2374039   6.3056707  52.3026619
  77.9743500   7.1397052  52.2941208  68.3140640  40.1032600  13.7146187
  67.9895706  40.5024681  14.5218182  68.3097076  40.8164062  13.0761557
  46.2627831  40.1383057  35.3490791  46.0327225  40.9084549  35.8688660
  45.6162910  40.1238174  34.6433372  18.0933876  26.2680664   9.5648623
  17.5097656  26.8244858  10.0806293  17.8097572  26.3974361   8.6598482
  79.2047348  28.6301632  87.0735626  79.9622269  28.1435299  87.3985519
  78.6968994  27.9834995  86.5834961  14.7659016  10.1674032  83.1497040
  15.6066933   9.7130938  83.2035828  14.4828148  10.0407209  82.2441330
  56.9801903   8.5193558  74.7716141  57.8798752   8.6342649  74.4656754
  56.4424248   8.9266100  74.0925064   8.5881615  59.2108192  76.1776657
   9.4159803  58.7432175  76.2885513   8.5322781  59.3791161  75.2370300
  35.1126785  11.6645565  73.4669800  35.8934669  11.1381073  73.2953644
  35.4534073  12.5159779  73.7412338  61.5535393  46.6751175   5.1914129
  61.3269691  47.5704002   4.9396839  61.0006180  46.1235123   4.6380219
   1.3746934  16.6965981  71.2100449   0.5520797  16.5632553  71.6809540
   1.5983644  15.8307343  70.8687439  42.6601601  30.4767342   1.9703838
  43.4215393  30.8513737   2.4133050  42.7171783  30.8083458   1.0742728
  59.1386032  44.0048027  60.0227623  58.3356133  44.3083344  60.4462090
  59.8027763  44.6428871  60.2834396  18.6082840  23.7212868  69.5314255
  19.2707672  23.5128670  68.8727036  18.1933670  22.8813705  69.7279282
  11.2352667  59.1728477  72.4799347  11.3866224  60.0491333  72.8341293
  12.1076813  58.7828941  72.4246216  59.8264923  26.8364487  78.1043625
  60.7581215  27.0466328  78.0401535  59.7871552  26.1101341  78.7265778
  60.8692207  42.6876755  44.0056076  60.9729576  43.5583458  43.6216774
  60.1299095  42.3043480  43.5336876  77.5123520  60.3101196  85.7729950
  77.4760666  59.3638000  85.9122620  77.9029236  60.4096375  84.9047928
  44.6853561  50.7382355  71.5729523  45.5108414  51.0071030  71.1698227
  44.4629974  51.4564667  72.1653519  14.1554546  64.8637924  16.0139885
  14.0972261  64.0083847  15.5884161  14.3795757  64.6643372  16.9229546
  71.1733017  16.4094486  50.1983261  71.0880890  17.3374500  49.9797363
  72.1017380  16.2955017  50.4014549  14.2626448  71.4812012  18.5228004
  14.4487991  70.5950775  18.8332329  13.3088074  71.5524292  18.5595875
  41.0805321  31.0479527  20.7612514  41.1710968  30.1930408  21.1821499
  41.7388916  31.5960941  21.1882610   5.3777981  19.1708107  13.6914349
   5.5169172  19.8526669  14.3486624   4.7604785  19.5584908  13.0710697
  42.2593269  18.9884338  25.2002640  43.1831398  19.2261982  25.2794609
  42.0039291  19.3051262  24.3338299  59.0158310  68.7146759  23.1706562
  58.9434319  69.1626434  24.0134563  59.5671196  67.9531784  23.3507519
   0.6694558  38.8080177  31.9849129   1.1551570  38.3766479  32.6879387
   1.2962334  39.4222374  31.6026630  37.0835152   5.7541842  23.5843906
  36.4154358   5.9670815  24.2359867  37.0444527   4.8011765  23.5038757
  56.3356476  33.0938759  24.1835155  56.9352264  32.4271049  23.8486290
  55.9734421  33.5059586  23.3991508  39.4845886  19.4079742  65.3666229
  38.7129288  19.3352737  65.9283066  39.4212151  18.6586456  64.7744064
  81.4904480  17.4840202  65.1368484  80.6216888  17.8804398  65.0709763
  82.0883331  18.2280025  65.2093658  50.3634720  33.7354050  26.9329987
  49.5657234  33.3271255  27.2693615  51.0402603  33.4962311  27.5662346
  66.1583252  70.6717300  40.7206306  66.3279953  71.4404907  40.1761551
  65.7523422  70.0415497  40.1254120  44.9844017  50.6144905  13.9413090
  45.0904732  50.3120270  13.0393677  45.4047050  51.4743385  13.9565783
  30.0449867  49.9642639  84.4831238  30.3637657  49.9998589  83.5812683
  29.9627266  49.0293655  84.6713562  86.3908615  42.5125694  78.0082855
  86.9044037  41.7173691  78.1502609  85.4828796  42.2104301  77.9855499
  39.7446671  63.5572472  66.9379272  40.4938316  62.9736176  67.0577774
  40.0487595  64.2111511  66.3085022  67.3601913  51.9467278  15.3799152
  66.6828842  51.2706032  15.3985605  66.9679337  52.6913261  15.8359137
  57.0075607  19.5616741  37.7814407  57.3727531  19.5567665  38.6662216
  56.0814133  19.3528538  37.9034309   8.7468500  56.8811913  69.5410004
   8.6735458  57.4635925  70.2970886   9.6652718  56.6115799  69.5345001
  84.4486694  59.6700401  61.0181160  85.2795792  59.2110519  61.1411743
  84.1180420  59.3463326  60.1801834  26.3900261  38.5598831  21.3537693
  26.8049107  38.2129250  22.1435299  26.9692917  39.2670364  21.0698414
  74.2691803  40.8834915  13.5372505  74.0405045  41.0241737  14.4560251
  75.2248840  40.8300552  13.5337706   9.5889225  54.4199905   2.7203853
  10.3494215  54.7559547   2.2460413   8.9118614  54.3244629   2.0505385
  38.1668091  70.0408783  88.2224731  38.1728668  70.9693756  87.9899139
  39.0145340  69.7132034  87.9221039  50.4839134  16.0023499  10.5852566
  49.7734756  15.3897123  10.7754765  51.1959953  15.4504194  10.2619228
  11.9900446  45.3174248  57.9982262  11.5355635  46.0326080  57.5530357
  12.7037153  45.0814705  57.4055786  36.7089806  64.9447403  87.9557343
  35.8972893  64.4374008  87.9561920  36.4393997  65.8277130  87.7029114
  13.7470369  71.5239105  44.8498268  13.6033611  71.3680420  43.9163971
  14.6507702  71.2478485  45.0024300  68.8305054  62.2403412  27.9053078
  69.3159180  62.5650902  28.6636925  69.3245392  61.4735527  27.6151409
  37.1699677  37.8566589  87.8284378  37.0790520  38.2967262  86.9832687
  37.1118698  36.9241447  87.6203995  10.2298565  24.6603909  73.7424698
   9.7742100  23.9188938  74.1409683  11.1390543  24.3706055  73.6675262
  61.2202721  31.7010632  44.2384033  61.4811516  30.8734283  44.6423798
  62.0444069  32.1634598  44.0860100  12.6330690  43.7198257   2.4633710
  12.5169497  42.7825775   2.6193001  13.4688215  43.7839928   2.0011666
  12.9745436  48.6146622  42.1386871  12.3760815  48.1521187  42.7253113
  13.8474712  48.3595924  42.4372978  24.6120396  46.9188728  30.3006153
  25.5363178  46.6707153  30.3195667  24.1639404  46.1472855  29.9540730
  76.5471268  35.0786591  26.6410503  76.4936142  35.3191376  27.5660038
  75.6404419  35.1006889  26.3350086  12.1452284  30.2487888   3.5658100
  12.2837934  30.0172749   4.4841957  12.2536907  31.1994591   3.5394645
   5.5389223  44.7598686  36.5857391   5.4106073  44.0383072  37.2014618
   5.2147846  45.5315399  37.0501633  79.7338715  63.8402443   7.7834201
  80.6440430  64.1042938   7.9179006  79.2257385  64.6307144   7.9656067
  53.5911560   0.7495085  62.3160820  53.2681732   1.5836625  61.9753418
  54.4202194   0.9692650  62.7410393  73.7919006  56.3998604   8.1057959
  73.0336151  56.9343605   8.3414707  74.5458908  56.9107552   8.4002810
  76.1326904  11.1797962  88.4862442  75.8093719  11.0848055  87.5903244
  77.0240402  10.8320990  88.4573364  37.4947853   8.4081011  15.2015514
  38.3538971   8.7691193  14.9828539  37.1676712   8.0512552  14.3757858
  45.8943100  47.5420189   6.5088334  45.3158264  46.8367500   6.2186813
  45.3115387  48.1686516   6.9377141  53.2659454  50.5748520  25.2600842
  53.5193596  50.7577705  24.3553429  52.6993828  49.8057327  25.1992931
   0.8333672  58.8600693  26.7822018   0.6090059  59.0571518  27.6916256
   1.7723542  58.6752701  26.8018093  20.5288029  40.2685814  87.6897659
  19.6766834  40.4435272  87.2903671  20.6909637  41.0274315  88.2501984
  50.5340157  60.4838982  20.8570595  51.3953552  60.8106117  21.1170273
  49.9446144  61.2251091  20.9965057   8.1666155  40.4512596  82.0077515
   7.6867037  41.2219963  81.7046356   8.7284317  40.2135315  81.2701340
   3.2441297   7.7636418  84.8833389   3.4551842   7.4825811  83.9930115
   3.7605872   7.1862135  85.4455490  53.7399063  55.9221687   6.3015022
  54.0019073  55.9803162   5.3826947  53.1040115  56.6286545   6.4144068
  16.8480988  55.0620193  30.4487095  17.3698540  54.3149948  30.7419033
  15.9832592  54.9152184  30.8317699  77.8686752  52.4420815  60.9099464
  77.6557007  53.2036057  61.4493446  77.9915771  52.7985725  60.0301476
  60.7964706  36.4928017  69.0249710  59.8912468  36.6008759  69.3167267
  61.2950134  36.3674812  69.8324280  80.6850510  38.6502838  57.2163544
  80.4777298  37.7478065  57.4588127  79.8374252  39.0429382  57.0075607
  82.7774582  41.0242844  45.6620026  82.9577789  41.6105309  44.9271355
  81.8443298  40.8249626  45.5859909  25.4882908  44.0879250  21.0277214
  24.6116562  44.2786446  21.3614407  26.0229588  43.9696770  21.8128204
  65.6433182  68.4632950  77.1635818  65.0222321  69.1664505  77.3534546
  65.7179260  68.4608383  76.2092972  43.6314583  35.1361961   6.4432797
  42.8913994  35.7396431   6.3769770  43.8274689  34.8971291   5.5373783
  73.6315384   9.6965866  70.9988632  73.8815765   8.7896137  70.8224716
  74.3464355  10.2175694  70.6331711  58.2933311   6.6779304  33.7742577
  58.8089485   6.7241549  34.5793877  57.8907166   7.5429573  33.6976814
  51.3007126  16.0719585  27.7079182  51.5811653  15.5094223  26.9860249
  51.5728340  16.9514542  27.4458714   4.1549668  14.1246605  22.3086834
   3.6333404  14.7928305  22.7533035   3.6109464  13.8473511  21.5715466
   5.0993271  45.9628181  15.9870281   6.0044127  45.6604500  15.9120388
   4.9741559  46.5342522  15.2293816  23.9951572  48.9796600  83.5448380
  24.3312092  49.8647194  83.4035187  23.7328014  48.9672050  84.4652939
   0.9296109  24.9745331  19.1000252   0.8563731  25.3722324  19.9676094
   1.8678401  24.9839993  18.9106350  36.1993446  44.0159035  26.8097477
  36.1516113  44.8908157  26.4244156  36.3153267  44.1729088  27.7468338
  81.9193268  60.4373169  38.1420975  80.9687653  60.3340263  38.1868782
  82.0612488  61.0312576  37.4049911  16.1431141  50.0492783  52.0014801
  15.2281523  49.7982254  52.1281624  16.2986507  49.9233055  51.0654411
  27.6449299  58.5187988  65.1652298  27.9023094  57.6116219  65.0008545
  28.3833294  59.0385513  64.8476562  38.3581963  49.3438797  48.6303673
  38.7140770  48.4791946  48.8350563  38.9146500  49.9529457  49.1157875
  23.2104454  66.7789078  17.7243786  22.7433987  66.2368317  17.0885696
  23.8638992  67.2476959  17.2052727  36.4397049  63.4157333  38.3846092
  35.5766869  63.5848083  38.7625580  37.0550804  63.6416969  39.0820961
  60.6972351  45.2877502   0.6764288  60.2984657  45.2054749   1.5427111
  61.1048584  44.4361954   0.5185416  47.6165619  66.4871445  16.5472775
  46.6998482  66.7566299  16.4903278  48.0813026  67.2762146  16.8258839
  58.4132080  70.4829025  25.0482903  57.5201149  70.8135223  25.1447773
  58.6762238  70.2408142  25.9362354  41.0205231  69.6421585   9.3695974
  41.6246223  69.9367752   8.6880598  41.3780899  68.8031693   9.6602440
  75.3542938  21.4880619  20.5373554  74.8246994  21.8207226  19.8127193
  74.7277756  21.3480797  21.2473621  35.0926247  64.6163330  63.2761841
  34.9804153  65.3016663  62.6174278  34.2285461  64.2111511  63.3498497
  69.5750885  20.5029678  19.8736725  70.1043396  20.1194019  20.5729599
  69.7976532  19.9906425  19.0963593  51.4116592  52.8606834  36.7209930
  52.1538773  52.8919334  37.3246193  51.7865715  52.5518723  35.8961868
  81.5962524  41.7873154  40.0599289  82.5500031  41.7140427  40.0249100
  81.3842468  42.4639740  39.4169540  14.0952253  55.3691711  12.4148073
  13.5591965  54.7999077  12.9669361  14.2288742  56.1570663  12.9416752
  14.2581778   1.2248925  84.1849747  13.6157818   0.8305971  83.5949783
  15.0543060   0.7108244  84.0502701  60.3086433  66.5969391   7.2430372
  60.9054298  66.7040176   7.9837208  59.4547653  66.4363785   7.6447139
  64.3657761  71.0266495  77.0661926  64.4357071  71.9569397  76.8519363
  63.4868813  70.7799606  76.7782364  76.3547592  31.6315479  47.2374344
  76.7096024  31.8634510  48.0956535  75.4546967  31.9568577  47.2545433
  71.4129639  28.9115334  49.3535309  71.0137558  28.3289528  48.7074165
  70.8788071  28.7990456  50.1398239  79.6749496  64.1764069  40.8213387
  80.3193207  63.5079498  40.5885773  78.9953766  63.6986809  41.2969360
  42.1099091   8.9203291  33.9565353  42.4241142   8.2821054  33.3160858
  41.9076309   8.3998241  34.7339630  20.3355122  60.2294159  57.5678024
  19.6274338  59.5867043  57.6099968  20.7568932  60.1782112  58.4257355
  15.0007162  32.9659309  41.5377579  15.3634081  33.7653236  41.9194031
  15.5585003  32.2650032  41.8751144  73.3188858  26.4061432  80.1166000
  73.7588120  27.2508774  80.2121048  73.2955551  26.2536945  79.1719055
  62.8731499  58.2030792  52.7015572  63.3988838  57.4835510  52.3521118
  61.9755287  57.9895935  52.4467392  68.4457169  43.6804390  23.6271877
  68.6801529  43.0715523  22.9268093  67.6217117  43.3395424  23.9750767
  46.3366508  54.5723267  78.4109650  45.6954880  54.7008820  79.1099777
  46.6350021  55.4556313  78.1941910  27.0977840  13.2152967  20.7262936
  26.5702457  13.9153862  21.1107540  28.0028019  13.4755640  20.8978615
  74.1154861   3.0546541  83.8815155  73.2499619   3.2479784  83.5213318
  73.9588318   2.9043472  84.8137741  23.4531822  14.4724483  10.2579098
  22.6876678  14.8601513  10.6820669  23.2524891  14.5080395   9.3226624
  53.8147507  53.1026611  28.6663189  53.5241547  53.9508705  29.0014687
  53.4307556  53.0465546  27.7913151  37.9806175  60.2070503  25.5640469
  37.2273788  59.6586990  25.3445663  37.8027115  60.5136414  26.4531937
  61.1241760  58.7311783  70.5503998  60.5465164  58.2118988  69.9910278
  61.1575737  58.2468681  71.3753586  39.9154549   2.0701551  34.6974754
  40.4756393   1.2964739  34.7594414  39.0239067   1.7220290  34.7109299
  59.0386467  57.6294022  54.4435196  59.5255623  57.6739578  53.6206245
  59.6762085  57.3100548  55.0820847  30.7909527  54.8284111   1.9000872
  31.4910450  54.2424431   2.1877432  31.1000137  55.1788025   1.0646604
  38.2126465  60.9293785  64.4259186  37.3582649  61.0452766  64.8416443
  38.4292831  60.0092049  64.5761948  81.2097931  16.9700928  53.7775841
  80.6798859  16.2539577  54.1277008  82.1132965  16.7081680  53.9545021
   4.3031273  21.5796108  30.2693882   4.3351159  20.6445599  30.4715977
   3.3702142  21.7938213  30.2737370  50.3112907   5.2291179  57.9612083
  51.0424500   4.9720364  58.5229454  50.2626648   4.5384388  57.3002739
  26.0293007  62.8204575  31.8211327  25.8475266  62.9404678  30.8890457
  25.4465599  62.1099968  32.0892677  10.4231815  53.0001335  36.2040176
  10.6082850  53.3781166  37.0637283  10.9249582  52.1851616  36.1876221
  15.3055716   5.2181144  62.9660378  15.5431519   6.1325636  62.8125114
  14.7151728   5.2471929  63.7189064  62.0344009  16.8957081  75.7416153
  62.5222778  16.8017349  74.9234619  62.6007996  16.5013695  76.4048843
  56.0836906  68.5879898  59.5235062  56.5258865  68.2900620  60.3184471
  55.6120529  69.3761749  59.7928505  16.0753174  18.6233082  75.3614883
  15.3280411  18.3862915  75.9106979  16.0081921  18.0437851  74.6026154
  71.5913849  40.9754524  55.1050415  71.1650238  40.8966064  55.9584045
  71.1232147  40.3560333  54.5452461  72.1015549  52.7911568  67.5189896
  71.6791000  53.6383247  67.3773193  73.0339661  52.9967842  67.5864716
  57.7927895   0.6199540  82.9013519  58.7281494   0.5954603  82.6995239
  57.4341087  -0.1550733  82.4690170  37.6622620  28.8616581  20.7327995
  37.4892845  29.7747211  20.5033970  36.8018379  28.4426975  20.7134266
  86.0864029  49.8837891  83.2164459  86.7064362  50.4865265  83.6269455
  85.8175278  49.2980385  83.9241409  49.7910614  12.6245480  63.9107246
  50.4754906  12.9488955  63.3254204  49.0886688  12.3425093  63.3247833
  71.9793549  16.8252487   4.5406919  72.4237518  17.2642307   3.8154047
  72.3849030  15.9591455   4.5810604  26.0859318  71.4930191  75.0552902
  26.1973152  71.2668991  75.9787064  26.9783745  71.5910568  74.7233734
  75.7519226  12.4491253  30.1412220  75.5775070  13.3409252  29.8403816
  76.6902084  12.4393473  30.3303204  65.1144257   7.1448312  47.2750740
  64.3259277   7.4355450  46.8168335  65.8203430   7.6642809  46.8902512
  63.9778519  29.5573692  67.6184387  64.3547974  30.1654739  66.9825439
  64.0874252  29.9951515  68.4625778  61.2072220  44.1064072   9.8540573
  61.0571709  44.4495621   8.9731712  61.2295952  44.8830872  10.4130707
  45.1058502  71.6193314  31.3875637  44.2297516  71.6459274  31.0028915
  45.5825577  70.9835892  30.8538761  26.3608532  34.1842384  26.8467674
  26.7388878  35.0451431  27.0261173  27.0840435  33.6772575  26.4777203
  12.4385786  26.6717567  54.3633728  12.8629484  26.0483055  54.9528198
  13.1344748  27.2816925  54.1185455  62.1942940  45.7477951  17.7851315
  62.9387970  46.0389023  18.3116322  61.9046822  46.5349960  17.3239670
  17.1844997  53.9869995   9.0532827  17.4702320  54.2413940   9.9307051
  16.3969612  54.5082436   8.8973303  85.6205521  20.2111530  57.3929863
  86.3786163  20.2626724  56.8108292  85.0077820  19.6336441  56.9377594
  68.3682480  70.6220245  75.6007614  68.6086884  70.0807648  76.3527298
  69.0420151  71.3012009  75.5693130  71.4531021  70.8930969  25.8514900
  71.1217117  71.0470352  24.9667778  71.8646240  71.7206802  26.1004772
  22.4231453  56.7844315  71.0749588  22.2323151  57.6551285  71.4238129
  22.2048035  56.1867599  71.7900391  56.2125435   8.9504061   1.7448562
  56.1836433   7.9936953   1.7348112  56.5635490   9.1884470   0.8867413
  75.0890656  60.1971817  14.4637089  74.7620087  60.9471169  13.9668522
  75.2062073  59.5087967  13.8090057  84.4851608  41.8282661  40.3690720
  84.6389923  41.1431732  41.0196266  85.3267670  42.2774773  40.2907104
  38.5248184  69.3132095  50.1185379  38.9660683  68.6485825  49.5895844
  37.9114799  68.8184814  50.6619453  78.9591980   0.5881851  12.1526670
  78.0140915   0.7001789  12.2549620  79.0835342  -0.3593037  12.0975533
  82.9492950  42.6097679  18.2348175  83.4715500  42.1058464  18.8589554
  82.0419922  42.4120560  18.4670620  68.3918076  34.5391121  59.8319397
  68.6033859  33.7525063  59.3292313  67.5631256  34.3316879  60.2637901
  85.9146271  12.4369707  81.8705597  85.6678925  12.6357050  80.9673080
  86.5090485  13.1453028  82.1178513  72.7467194  12.4334974  23.0160694
  72.7005844  11.7604799  23.6951504  71.9331741  12.3315296  22.5221348
  61.9503098  30.7890911  61.5588112  62.0568199  30.2319298  62.3298225
  62.2335014  31.6561909  61.8489342  16.1839981  66.1995544  45.7515755
  15.4138842  66.7216034  45.9765739  16.9109421  66.6453934  46.1863289
  35.4964790  49.9127884  85.1910095  35.8585358  50.0550842  84.3164215
  35.3537941  48.9675674  85.2402954  69.9350967  17.1073093  45.9372330
  70.4853134  16.7887325  45.2216911  70.4881744  17.7337818  46.4039993
  28.9409733  70.5140762  73.1708832  29.1481514  71.3735580  73.5377655
  29.0529156  69.9077988  73.9030914  26.1267033  30.5622272  82.0895920
  25.9151802  31.4709988  81.8759918  26.6994400  30.2760201  81.3780518
  41.8154488  40.6259880  17.3793488  41.1605339  40.3716583  18.0294552
  42.6549606  40.4358826  17.7980461   4.1479034  23.5786819  20.4469566
   4.6480479  22.7884331  20.2430134   4.1457639  23.6206493  21.4032345
  34.7938232   2.6042490  59.6269493  35.1648674   3.2775559  60.1972237
  35.2804146   2.6899719  58.8071251  47.4857368  54.6128960  58.3844337
  48.4229965  54.7200279  58.2222786  47.0907249  54.6090355  57.5125465
  75.8832550   5.7117410  79.6228256  75.7006531   5.2870231  80.4609833
  75.2139893   6.3919959  79.5481949  14.1255999  62.1758842  16.7254200
  14.9049091  61.8801193  17.1959858  13.3973694  61.9575005  17.3069878
  76.4952393  12.6235380  83.1609421  76.8301926  13.3996143  82.7117844
  76.2340698  12.0322590  82.4549637  23.3783875  25.7828751  86.1833496
  22.8184757  25.0972557  85.8191299  22.7825642  26.3346519  86.6900711
  60.0129089  33.6182098  61.4171295  59.6281586  32.9975243  60.7983017
  60.7800026  33.9657211  60.9621201  20.4720955   7.1677346  42.3654976
  20.1576996   7.7453957  41.6700172  20.4726505   6.2957702  41.9706459
  79.6867065  22.2106743  69.0184631  79.1897964  22.7903957  69.5957260
  79.7294006  21.3800411  69.4922333  53.8704720   4.1802354  58.0188408
  54.5701828   3.8120005  57.4793625  54.1952324   5.0431499  58.2760201
  24.3501472  29.1414089  16.9342270  24.0051765  29.7972832  17.5400810
  23.7973824  29.2193813  16.1566658  68.8825989  60.4343872  43.2121201
  69.1742706  59.8130035  43.8792343  69.4891205  60.3052025  42.4829597
  45.6072464  27.1977005  28.8794785  45.2223701  26.8739624  29.6939087
  45.1443558  28.0171566  28.7049656  40.2417603  51.1739922  13.9155998
  40.2280235  50.9217949  14.8388777  40.9264221  51.8405724  13.8595543
  84.1006241  64.4247437  70.3472672  84.0035553  63.5653381  69.9371109
  83.5245056  64.9979477  69.8415375  73.8349915  22.1310673  18.2320633
  74.3264389  22.6614208  17.6048145  73.5466156  22.7544708  18.8987236
  28.2770634  22.7116947  10.5712137  28.0281830  22.6038895  11.4891834
  27.5764141  22.2815685  10.0809927  11.2796745  21.1977654  16.2585239
  10.6809044  21.9237003  16.0832405  11.4232178  21.2287388  17.2043915
  22.2887173  25.6729374  32.9660568  22.8360462  26.4498348  33.0804863
  22.9018612  24.9392662  33.0109482   3.9678960   5.5004969  53.4337807
   3.2631700   5.4901328  52.7861023   4.6589971   4.9648142  53.0443497
  77.2995071   5.3671813  49.7681808  78.1758804   5.0211210  49.5995293
  76.9936218   5.6714373  48.9137230  60.4916954  13.1132593   1.4020036
  61.1357994  12.6796350   0.8422440  59.7521782  12.5062056   1.4308865
  59.7986832  17.5843925   5.4361587  59.6300468  18.4162617   4.9936786
  59.4967957  16.9188042   4.8180246  73.6888885  50.3027802  76.9919510
  74.0408707  50.9106445  77.6422119  73.6771240  49.4557228  77.4375763
  82.1946106  12.3670969  21.8811798  83.0207901  12.0401363  22.2372093
  81.6275482  12.4679251  22.6457157  56.6512756  70.4900055   8.0871162
  56.7885895  69.5704880   7.8593650  57.5174866  70.8046036   8.3458376
  80.6704636  46.6239204  87.2558212  81.0631638  47.4518814  87.5324097
  80.7069397  46.0693779  88.0351715  83.7177505   3.3960364  57.0891953
  83.8644333   3.4861314  58.0307884  83.2829590   4.2101898  56.8355446
  62.7969055  54.2575760  16.6129761  61.8926811  54.5103951  16.4267044
  63.0197029  53.6366196  15.9194298  77.4128876  37.6100655  12.8589697
  77.2446899  38.5465965  12.9631414  77.8331146  37.5360451  12.0021381
  40.1305199  47.4472427  77.6925201  40.4673080  47.8949623  78.4686279
  40.4943352  46.5636787  77.7489548  26.5464897  54.0321007  67.4775391
  26.1116848  54.8276253  67.1704254  26.4482803  53.4114723  66.7554550
  60.1329079  32.9387169  37.9073410  59.3270454  32.9274979  38.4237671
  59.8347816  32.9239540  36.9978714  26.4007034  11.7641792  79.0215607
  25.9278774  11.5933809  79.8361130  25.8935127  12.4516478  78.5898438
  49.1595192   3.2703855  38.9158440  48.3382530   3.7617605  38.8983269
  49.2250595   2.9453673  39.8137856  82.3243713  68.2174759  23.1202526
  83.2061996  67.8808289  23.2792511  81.9780960  68.4036331  23.9929905
  72.1383133  68.6097717  34.2298241  72.2310715  68.1858826  35.0830193
  71.4782944  68.0878220  33.7735558  48.6802826  52.6347656   5.4462080
  47.8088341  52.9998474   5.5995827  49.2278748  53.3954659   5.2520142
  65.5317459   0.7923137  21.8360958  66.1328506   0.1129832  21.5304623
  65.7011414   0.8568284  22.7759762  61.3247604  57.1744118   0.9091241
  61.7737389  57.6089478   0.1839811  61.8802834  56.4238205   1.1194521
  52.3427429   3.4639173  86.3408966  51.6018219   3.3014810  86.9247513
  51.9495964   3.8429668  85.5547791  82.3869019  30.5437202   9.9319649
  82.0351639  30.0225334   9.2102489  81.6510315  31.0854015  10.2170935
  64.0869980  57.6742439  70.6078644  63.1528587  57.5476074  70.4417953
  64.1190109  58.2025528  71.4054184   0.7799512  11.1191216  20.0047226
   0.4732913  10.8956861  20.8835087   0.7210224  10.2989511  19.5147419
  72.1398239  23.0490685  69.9957352  71.4721603  22.4482269  70.3265533
  72.9691849  22.6673450  70.2832642  62.6971207  25.2637081  37.4306450
  63.3794746  25.4292660  36.7800941  62.2154770  24.5115242  37.0864487
  44.8042030   8.7275181   0.3492142  44.9463654   8.4090996  -0.5422067
  45.5455856   8.3835735   0.8474931  18.7997112  35.1522942  36.0148888
  18.7876663  35.5696754  35.1535645  19.6930218  35.2841301  36.3324509
  84.0151443  17.3628693   9.0873632  83.5746307  16.7336845   8.5161314
  83.4096756  18.1022854   9.1411953  15.4058590  24.6532364  24.0046749
  14.7433147  24.1589317  24.4873028  15.2136612  25.5694695  24.2042027
  69.0173264  47.1387825  80.0041351  68.6301270  46.2955399  80.2391968
  69.3835449  47.4709778  80.8237457  67.9841461  37.6722946  30.3909340
  67.3262177  38.3174515  30.6500301  67.6809235  36.8516998  30.7794037
  48.0864677  65.8266449   7.9197726  47.8257751  65.0123367   7.4894552
  47.8932648  66.5094910   7.2774119  14.8994961  46.3676033  54.2156982
  14.6898232  45.7815399  54.9428864  15.7082090  46.8032951  54.4847450
  50.0191574  31.9621754  30.1480389  50.4930954  32.3832245  30.8652115
  49.6476173  32.6885338  29.6474514  21.0544891  70.1391144  14.9829807
  21.4064960  70.9950867  14.7387838  21.7896557  69.6870651  15.3970032
  64.1938782  29.8418274  42.6130028  64.5312729  29.1587982  43.1925430
  64.1646271  30.6269531  43.1597710  41.6618309  16.9876175  20.9218445
  41.1189194  17.2074070  20.1647625  42.1035194  17.8067722  21.1457367
  80.6228943  46.4347610  39.3937149  79.9247513  47.0892487  39.3721008
  80.7871780  46.2904816  40.3256111  42.2962494  45.6188316  89.1499786
  42.2335739  45.7505836  88.2039642  41.6033707  46.1692772  89.5148926
  56.9167404  60.3598175   8.9211054  57.5723991  59.6991692   8.6977463
  57.3367500  61.1942406   8.7123909  15.5858011   3.2869287  60.9920731
  15.5205317   3.7122376  61.8471069  15.8637371   2.3926103  61.1900063
  54.7848930  45.5982780  86.5164108  54.3371468  44.9230309  86.0067062
  55.3989067  45.9964066  85.8993835  43.4098015  36.3204231  11.9629374
  43.9636383  36.9099617  11.4511347  42.5939102  36.8054466  12.0866718
  38.6911354  21.0928631  76.4788742  38.0256004  20.9724731  77.1562195
  38.2013893  21.0781498  75.6565781  34.2601471  49.6998405  81.1835709
  34.6898956  49.0025101  80.6883163  34.9455643  50.3538361  81.3204041
  53.8819389  11.2344790  41.2107735  52.9666290  11.5144577  41.2035484
  54.3274727  11.8861408  41.7521324  52.6809349  59.9327736  24.3654900
  51.7514839  59.7787552  24.1962872  53.1182442  59.1497726  24.0309753
  37.1659966  52.0344429  17.7192383  36.8610573  51.7898979  16.8454857
  36.5832939  51.5652046  18.3163185   4.4120741   2.7225070  18.3665199
   4.2599053   2.7942529  17.4242210   5.1236401   3.3382864  18.5417957
   9.9717331  47.2406197  37.5582924   9.6928406  46.3502884  37.7722244
  10.8189726  47.1291008  37.1270409  19.4150562  30.1413193  60.6293411
  20.1051826  30.8044662  60.6154175  18.7384682  30.5116196  61.1962090
  72.9364853  36.7465553  35.1626663  73.0365906  35.8462944  35.4720917
  73.7273865  36.9128876  34.6497955  45.6201553   2.5268559  16.3776093
  46.2396889   2.2567337  17.0554314  46.0222969   3.2988703  15.9794779
  26.2655029  25.4186325  11.9404163  25.3886833  25.7988071  11.9941330
  26.1198730  24.4735737  11.9838848  16.2338600  11.1097412  18.6998615
  16.3639030  11.9921780  18.3525505  16.8231926  11.0592899  19.4524384
  68.2866592  26.0533199  71.0627670  68.0862656  25.3573437  71.6886215
  68.9259415  25.6628208  70.4668961  10.3691521  53.9693642  83.8197708
  10.4192553  53.9472160  82.8641434   9.8519840  53.1976433  84.0504532
  21.5349636   7.6373062  37.5373230  21.4144707   8.5800533  37.6510849
  22.4559174   7.4861655  37.7499924  80.7253418  19.7631874  15.0453863
  81.4683075  20.2916946  15.3367863  79.9694290  20.3438740  15.1327553
  28.3637009  13.1768217  82.3158417  28.6113873  12.2523346  82.3302383
  27.4223270  13.1699018  82.1426468   3.4176855  19.8711834   1.2245522
   3.2037399  18.9382153   1.2298952   4.0169940  19.9837093   1.9623863
  19.2731781  44.4561272  74.1678314  18.7989864  44.1928902  74.9565582
  19.7806835  43.6820602  73.9239349  73.6312103  69.1730576  62.5839005
  73.6829529  70.1284256  62.5550652  73.0926743  68.9854584  63.3526802
  15.2708960  66.7049866  39.5002708  15.8152781  66.3626099  38.7912865
  15.7778873  67.4319229  39.8618774  53.6064034  47.4981766  75.6047058
  54.3216629  47.6626740  76.2191772  52.8926849  48.0566254  75.9128876
  73.3669968  32.2306023  39.7201958  74.2368927  32.0298424  40.0654678
  72.8735580  31.4173088  39.8265114  27.5593567  15.2893839  56.3349380
  27.8606968  15.6940918  57.1483498  26.7057571  15.6898937  56.1700439
  11.3143864  68.1593704  35.4216309  10.6056252  68.4530640  35.9940224
  11.9093542  68.9076767  35.3738556  72.3749695  19.1645718  73.4234848
  72.4936905  19.1215458  72.4746475  71.4257660  19.1563702  73.5467072
   0.1251655  59.3692856  18.8616638  -0.5627340  59.4530182  18.2013493
   0.7955791  59.9961357  18.5899334  60.7991943  16.3130703  41.4808960
  61.6933212  16.1942024  41.1605301  60.2864609  16.5026684  40.6951561
  33.2475090  44.2623482   3.0915010  33.5070534  43.3962173   2.7773545
  33.3447266  44.8327408   2.3289831  56.5224571  19.2691326  43.4570961
  56.0448418  19.9970264  43.8549461  55.9531860  18.5104122  43.5855789
  11.0942430  42.9406700  21.4719810  10.4463053  42.2971382  21.7588196
  10.5875082  43.5894203  20.9835396  33.5389175  23.8393192  34.1807251
  32.6060524  24.0529366  34.1616554  33.5942078  22.9717865  33.7800217
  56.5772514  67.6282883  22.7521877  57.3054695  67.7234116  23.3660927
  56.8785629  66.9730225  22.1228485  69.8074570  62.2398567  85.0052719
  69.3810959  61.8081551  84.2649460  70.4818420  62.7894707  84.6060715
  82.3292923  58.6884537  82.6307602  81.4414444  58.3980560  82.4218750
  82.8942413  58.1476898  82.0788193  72.5123138  41.3554802  84.4277496
  71.7298584  41.3304558  83.8769608  72.5581818  42.2599335  84.7377396
  22.6241322  40.0163612  21.4049606  21.9299603  40.6671143  21.3006611
  23.3857861  40.5219917  21.6885967  23.4068451  21.1675911  29.5515900
  22.9253674  21.8516655  29.0863419  22.9477444  21.0772400  30.3866310
  86.2560577  39.5358543  10.3931370  86.4778900  38.8560982  11.0294971
  87.0583420  40.0499763  10.3023653  81.9984665  21.4021339  42.8239670
  81.0972443  21.2839527  42.5238647  82.5335617  21.0018311  42.1386452
  51.2252312  48.6878662  64.0685883  52.1565361  48.4721489  64.0199585
  50.9601822  48.4088097  64.9450073  73.2914581  47.1522408  67.4108810
  73.2176132  48.0465584  67.7440109  72.6651535  46.6499977  67.9321594
   7.0043411  69.8294830  80.1227951   7.6669436  69.3004608  80.5670090
   6.5981283  70.3413696  80.8222275  61.0466881  28.2568741  57.3907661
  61.1950684  27.4444942  57.8747597  61.9156685  28.5143623  57.0828629
  29.3141556  11.1617956  76.6845169  29.8710194  10.6384516  77.2609253
  28.6080551  11.4726057  77.2511292   0.3401493  54.0193863  24.8869057
  -0.0394066  54.8889580  25.0134659   0.9817033  54.1377144  24.1864510
   3.1475201  56.6357727  65.7754288   2.9262576  56.7169647  66.7031555
   2.3289609  56.3701630  65.3563232  47.6471596  59.2067833  10.5367479
  46.7992783  59.6135406  10.7152824  47.4323807  58.4037704  10.0621147
  47.5650597  65.5589371  54.3230934  46.8747482  65.0199051  53.9369011
  48.3446960  65.3562469  53.8060646  45.1805763  33.8799400  24.0363598
  44.5880966  34.6170502  24.1842422  45.6583099  34.1126366  23.2402134
  17.8715897  21.0984802   7.6790700  18.2013454  21.9308910   7.3405671
  17.9253407  20.4990768   6.9347191  43.0938454  10.7212114  49.7146873
  42.3289604  11.2008848  49.3967285  42.7358742   9.9071150  50.0687180
  46.1159859  25.3785076  79.2010803  45.2724457  25.2272434  78.7747116
  46.4839745  24.5030899  79.3213196  14.6016750  42.0533943  74.5912323
  13.9825325  41.3237724  74.6146622  14.0657291  42.8153381  74.3711548
  70.0009689  43.0763245  78.8414536  70.2959595  42.1861000  79.0330658
  70.3383560  43.2568054  77.9640579  59.5716019  57.1452293  68.5232315
  58.6350021  56.9928818  68.3975449  59.9946251  56.5893211  67.8688202
  72.0490875  55.6283150  81.5025177  71.3684921  55.2274933  80.9618149
  72.6499329  56.0282059  80.8737869  63.7605972  50.4300194  65.7948685
  64.7166290  50.4733772  65.8138657  63.5647240  49.4965210  65.7145767
  81.5026474  48.8761101   9.8407450  81.1365967  49.7113571  10.1316147
  82.4494324  48.9858170   9.9290228  36.2127876  24.4857693   6.0477066
  35.6342010  25.2249985   6.2348099  36.2224274  24.4249496   5.0924892
   5.2489653  34.0057449  30.1473866   5.3498769  33.4728889  29.3586426
   5.3753700  34.9055367  29.8463478  84.5329132  70.6646576   5.3534217
  83.9847794  71.3897400   5.0533471  84.4108658  69.9828110   4.6928000
  62.4319267  66.4871902  54.2241554  61.7324333  65.8994751  53.9386101
  62.5522423  66.2834396  55.1516495  29.5589333  55.2235298  75.3053436
  30.3950748  54.8008156  75.5013351  29.4755383  55.1597977  74.3539124
  57.4476814  13.8664579  76.7270432  58.1462212  13.9168406  76.0745621
  57.8739891  13.5122747  77.5074615  83.0790405  62.0220222   0.3173315
  82.5943451  61.2207947   0.5156655  83.0342712  62.5349808   1.1242390
   8.2618418  13.2894335  32.5100479   7.5120378  13.8835859  32.4782829
   8.3250313  12.9358788  31.6227837  54.3869972  14.0780888  87.9413605
  54.2250099  14.8271637  88.5148468  53.8769379  13.3660870  88.3275299
  30.8934708  50.8924942   4.9443970  30.3803749  50.2208672   4.4950871
  31.1888161  51.4758720   4.2453432   0.9310626   8.8261642  54.4615250
   1.4644374   9.5494795  54.7910042   1.4202980   8.0391798  54.7013893
  21.2800045  69.6353989  19.7740936  20.4439831  70.0779037  19.9206924
  21.1220741  69.0691910  19.0186462  36.0802193  69.1551590  73.0277176
  35.4381409  68.5364151  72.6796951  36.7650032  68.6028976  73.4049530
  57.1504974  49.3581467  74.9043579  57.1333084  49.4105339  75.8599701
  57.5678062  50.1737976  74.6272430  43.9542923  63.2459526  16.3513355
  43.0974350  63.5749054  16.0796413  44.3650818  62.9485359  15.5395298
   4.8976564  28.9985218  74.3201523   4.6209059  28.5705147  75.1303635
   5.7604241  29.3601208  74.5229034  32.2598877  40.4888306  15.9004583
  31.4513092  40.9931450  15.9904509  32.4606934  40.5230865  14.9651852
  42.1393318  40.4921341  76.4700165  43.0294952  40.4760513  76.8215561
  41.7523994  41.2883644  76.8340683  38.2344818  45.1977730  13.5492983
  38.9886436  45.7117386  13.2606678  38.6160965  44.4162064  13.9489937
  81.4785233  18.4660263  60.8395157  80.9978867  17.7313461  60.4581146
  80.8077698  18.9888248  61.2788391  81.0486145  46.6482048  75.6205673
  80.6548615  46.5413971  74.7546692  81.9918442  46.6257744  75.4591904
  27.6946030  44.8737869  38.3954163  27.5504665  44.9378891  39.3395309
  27.4535961  45.7362137  38.0572319  79.7300262  25.4818630  47.1750183
  80.6416702  25.2664013  46.9782639  79.5129776  24.9368553  47.9313812
  42.3202133  26.1225071   8.1201963  42.5992508  25.8867626   7.2354407
  42.4320869  27.0722485   8.1615410  19.0189209  31.8375511  19.7939892
  19.1237297  31.0147495  20.2717381  19.6099663  32.4476547  20.2352028
  64.1941833  70.3332443   4.6421380  64.2092896  69.8811340   3.7985744
  64.8936081  69.9196701   5.1480966  17.5673847  58.4507523  73.5339661
  18.0309849  58.1822739  74.3272095  17.2370682  57.6332817  73.1613159
  80.2961349  41.2658730   3.7671645  80.2059021  42.0727310   3.2601402
  79.9659500  40.5800743   3.1867447  42.4687004  51.4327850   5.2850385
  42.7923660  50.5932159   4.9585471  42.3792725  51.3041649   6.2293324
  62.7717857  46.7976494  52.1389427  62.7278404  46.7827263  51.1828690
  63.1935501  45.9706612  52.3722572  49.2054710  56.0246696  47.2874718
  49.9357681  55.5299644  47.6591797  48.9532013  56.6357841  47.9796677
  13.8759365  39.9869995  72.2191162  13.1725578  40.5511513  71.8978348
  14.6728506  40.5017586  72.0919113   6.4665117   7.8036242  39.5746880
   5.9134502   8.5828562  39.5185394   7.3610682   8.1409187  39.5274315
  25.2556019  59.2469597  44.0327187  25.0763817  59.2055321  44.9720764
  26.0510292  59.7749367  43.9636993  16.6343307  40.3357925  20.1594105
  15.9507647  39.7397499  19.8533020  17.0937119  39.8440094  20.8401089
  76.2872314  52.1707764  12.5484991  75.7934952  51.4105873  12.2409811
  76.2775955  52.7779388  11.8085718  58.0181580  29.6394119  19.7721348
  57.9539757  29.9473801  18.8681068  58.3872337  30.3808002  20.2520924
  54.1406555   8.8887339  71.5868530  54.8379707   9.2799034  71.0605774
  53.7545967   9.6263485  72.0592041  49.7280731   3.9172978   8.3329287
  48.9008980   3.8990455   7.8515949  49.9191666   2.9973512   8.5157223
  73.5009384  39.6208305  37.2993813  73.1426163  40.3114471  37.8569489
  72.7892456  39.4065781  36.6962051  52.7008286  11.9024315  88.8152695
  52.3768578  11.3758488  88.0845261  51.9901123  11.8855886  89.4562302
  51.2596893  63.8336906  47.4952393  50.9859619  63.0658226  47.9969254
  50.6430931  63.8744545  46.7642250  78.9965515  41.7653122  50.9951782
  78.2065125  42.1492538  51.3755150  78.7070923  41.4013634  50.1585236
  47.5166702  11.5792351  62.1977539  46.6077156  11.2960825  62.0984383
  47.5613670  12.4108973  61.7259789   5.8862643  48.8279648  52.2254410
   5.2539191  48.9931450  52.9247856   5.4858427  48.1360588  51.6989822
  23.2319145   8.6918440  79.6618576  22.3017902   8.4795437  79.7395096
  23.2757664   9.3140087  78.9357529  85.8202057  67.1449661  68.2069016
  85.0391541  67.4579086  68.6632462  85.7379379  67.4985657  67.3212204
  15.3023310  62.2814484  64.9891052  15.8317890  63.0759468  64.9206924
  15.1590500  62.0102959  64.0823669  59.7552605  48.5950661  70.8957214
  60.2307167  48.4976540  70.0706863  58.8322296  48.5413818  70.6480103
  48.9024124   9.3971548  63.1853752  48.3808517  10.0662174  62.7420197
  49.2582359   8.8618679  62.4760857  21.8372192  64.0266266  59.3011246
  21.2564735  64.7842026  59.3721581  21.2509918  63.2913780  59.1223030
  47.5027390  20.7811298  14.0796394  47.2267380  21.1984348  14.8956738
  47.0040321  21.2329903  13.3989458  84.9464569  69.8879852  40.9062157
  84.8301468  69.3513565  40.1221695  84.0606918  70.0057983  41.2493973
  78.5945129  48.0775719  70.3547974  79.2007141  47.3473015  70.4791336
  77.7533569  47.7469330  70.6700134  42.0920715  37.5821419   2.9110096
  42.4057045  38.4745331   3.0576396  42.7957039  37.1587563   2.4191954
  64.5666809  37.1699982  85.6132660  64.1443634  38.0137749  85.4522476
  65.2199249  37.3540497  86.2882690  18.7429581   9.9390688  46.1012077
  19.2758484   9.2627497  45.6830521  17.8631954   9.8021469  45.7497787
  65.3112640  64.1121521  65.2856674  66.2627258  64.0611877  65.1942978
  64.9770126  63.4446907  64.6864929  12.2881918   9.8412199  78.4178696
  11.8882303  10.2803516  77.6672516  11.5468855   9.5061264  78.9222641
  33.9285469   7.7335734  51.4984550  33.5849953   8.6137285  51.3450584
  33.3773766   7.1643558  50.9613953  12.9101944  13.3743114  43.8093300
  12.2445974  12.6883535  43.8610497  13.5906324  13.0058098  43.2459106
  28.0989552  48.5049782  81.0233536  28.3229122  48.2913132  80.1175842
  27.3551579  47.9377213  81.2263718  55.5217514  68.1664734  34.5931702
  56.1242981  67.4937668  34.2759399  55.1254730  67.7833023  35.3757133
  71.7669525  70.2344360  75.6065826  71.4829865  71.1410522  75.7233734
  71.6015091  70.0488205  74.6822433  47.2929649  12.9228182  80.9550934
  47.5397568  12.1930904  81.5232697  47.7800827  13.6708212  81.3006897
  49.5576439  48.4364166  77.0836487  48.8620224  49.0809669  76.9536667
  49.5242348  47.8867798  76.3006973  38.9877815  67.8393631   2.5633757
  39.6497612  68.5304489   2.5427418  38.1658821  68.2890549   2.3671687
  16.5084820   0.4320471  45.0888863  16.3592072   1.1113801  45.7464981
  17.3038712  -0.0133016  45.3808670  79.7036667  49.6418381  12.0503139
  78.9840469  49.3425026  12.6059904  80.3925095  48.9896927  12.1785059
  71.3709946  62.4590759  44.5344391  71.7976151  61.6496239  44.2533569
  70.8219376  62.1963882  45.2732010  21.5605259  65.0674744  81.8831863
  22.1256294  64.3576965  82.1883163  21.4390011  64.8925400  80.9499893
  79.8069611  57.8914185  84.4555893  78.8971710  57.6987991  84.6823273
  79.8115997  58.8281708  84.2588501  39.4773827  70.7402039  40.9352570
  39.7938728  71.2366867  40.1805573  40.0358200  71.0231476  41.6593590
  43.3118095  24.2618256  78.6574326  42.9667168  23.7310715  79.3753738
  43.1455688  23.7399712  77.8724060  69.4145203  17.2600327  70.8745499
  69.5250092  17.8306980  70.1140442  68.5032578  16.9709930  70.8267288
  40.3448868  49.8697472  72.3820267  40.8378296  50.6859818  72.2983932
  40.5937614  49.3595963  71.6112900  21.2776833  62.5843010  25.9321213
  21.9106865  63.1875992  25.5427990  21.7166271  61.7338181  25.9167614
  57.9652176  41.1431046  38.8835487  57.8979187  40.2961807  39.3244781
  58.5955200  40.9965096  38.1782379  44.0850143  10.4414368  43.4121017
  44.9628639  10.4687777  43.7927094  43.9882507   9.5426073  43.0974998
  85.9079971  66.9569778  57.6380844  85.6638412  67.3901291  58.4560089
  86.6535721  67.4616699  57.3130722  10.8359489  52.1692162  88.0301666
  11.4847536  52.8699150  88.0957947   9.9929409  52.6147079  88.1144638
  21.8009911  34.6012878  82.1763306  21.8259487  35.3243904  82.8030167
  22.0200901  33.8271866  82.6949692  76.3743744  23.9083042  12.5280762
  76.0692520  24.2482624  11.6869116  76.2106552  22.9664669  12.4793701
  80.4568176  24.3794727  66.8565674  80.9302673  23.8818054  66.1899261
  80.0601120  23.7123566  67.4167557  16.1041527  45.2518845  11.4890928
  15.9843292  45.4779739  12.4114580  17.0342731  45.4059105  11.3236122
  48.5087166  43.9968872  88.6727295  48.1533775  43.1150513  88.5616760
  47.7760925  44.5089531  89.0151978  42.8352737  19.3440685  29.3469181
  43.3322105  20.1055107  29.0477657  42.6402130  19.5310478  30.2651901
  13.6259623   2.6287594  13.8766270  14.0081997   1.7895597  14.1332798
  13.8712006   2.7324626  12.9572058  84.3487320  10.1371174   0.7913719
  83.8597717   9.6465521   0.1306957  83.9294434  10.9973984   0.8099194
  82.2512741   1.6229466  33.6645966  82.4315796   1.8749505  32.7589378
  83.1136703   1.5813419  34.0778542  66.5701447  36.5345535  50.6153564
  66.3717422  35.7330513  51.0995674  65.7504959  36.7566490  50.1736755
  18.4223404  52.6656837  39.3079414  19.0362072  53.2820206  38.9085312
  18.3678322  51.9428787  38.6827927  42.0583420   7.4139495  38.2525826
  41.5117378   7.7329831  37.5344772  42.6851883   8.1203337  38.4085236
  35.6608658  20.5137005  32.4487953  36.1524925  20.7230511  33.2429695
  36.3285217  20.4359226  31.7673149  47.6534500   9.5967751  32.1146812
  48.4992676   9.5831127  31.6667480  47.6456871   8.7942343  32.6363144
  75.7058105  28.0490437  13.2675781  76.4256668  28.3993816  13.7922726
  75.2941895  27.3948116  13.8321877  75.4929199  50.5413780  67.2683258
  75.1857834  51.2475243  67.8368835  76.0348358  49.9944916  67.8370667
  63.6135368  64.5136795  28.6627598  63.2308884  63.7257042  28.2768803
  63.3264809  65.2246399  28.0897312   1.9174857  67.8022003  39.2781105
   1.7564654  67.3964539  38.4262466   1.5169364  68.6688995  39.2101364
  45.8677635   8.0781479   3.9210529  45.2136269   8.0971174   4.6196079
  46.5293427   7.4587955   4.2291894  68.9358902  33.1256676  28.1340466
  68.3408737  33.6361160  27.5848312  69.7107391  33.6799011  28.2271290
  78.9336624  12.1611195  35.4209023  79.6781006  11.7396355  34.9914970
  78.1820831  11.6168690  35.1860466   9.2050028   1.4561567  65.1878128
   9.9340448   2.0608759  65.0498123   9.5029602   0.8781132  65.8901825
  68.3256607  24.6843834  27.9090881  67.9140778  24.8766632  28.7516193
  67.6114426  24.7436123  27.2745647  28.4806747  56.7730598  67.5201569
  27.6186905  56.6954422  67.9290543  28.4275284  56.2180710  66.7420883
  32.8618164  32.0425110   6.4501514  33.1694527  31.2896385   5.9453983
  33.5224991  32.7184143   6.2988734   2.9802084  57.8330536  59.0305367
   3.3207698  58.3141365  59.7847328   2.4031587  57.1702423  59.4099197
  15.5892687   2.5063367  77.5714417  15.4810791   2.6408732  76.6299438
  15.6609030   1.5570338  77.6710663  60.9661560   0.2850254  79.7178421
  60.0839958  -0.0215919  79.5080490  61.0839157   1.0649607  79.1755600
   0.7087962   5.9532609  79.7011032   1.6355003   6.1849575  79.7624893
   0.2495407   6.6975765  80.0900879   4.7873683  48.9433861  31.4472332
   4.4527082  48.0626183  31.2784710   5.7231436  48.8850555  31.2544804
  25.2343121  17.7104053  22.6225014  24.4812393  17.6567402  22.0340862
  25.9583607  17.9859886  22.0603294   6.4164143  24.7077618  27.7111473
   6.3406510  25.2501354  28.4962101   6.6209464  23.8334846  28.0428677
  51.4002304  15.3951607   2.0319626  51.2400589  15.3865347   1.0882981
  50.6347046  14.9613533   2.4088094  70.8824768  11.9187956  66.9909897
  71.7321854  12.0417995  67.4141769  70.2640076  12.3810902  67.5566864
  35.8632889  64.8264923  11.9302368  35.6590576  65.0635071  11.0256128
  36.7957916  64.6108704  11.9166517  63.7006226  68.7911987  71.7225037
  63.6077690  67.8460541  71.8421097  63.2552872  69.1732178  72.4787903
  70.9423599  47.5462761  39.1858940  70.5500488  48.3454628  39.5374947
  70.2339401  47.1262741  38.6980705  74.5672379  17.2136688  71.3070374
  74.3678589  18.1275539  71.1038284  73.7109222  16.7922497  71.3801880
   0.2352313  65.3298340  45.7706223   1.1389711  65.5114899  46.0284767
  -0.2848131  65.9750748  46.2496376  48.0087357  57.1724510  76.0398712
  47.7583275  57.0011406  76.9477158  48.9629593  57.2438889  76.0640182
  78.8943634  42.8391876  68.1374359  79.6034775  42.9047318  68.7770386
  79.0278549  41.9891472  67.7181015  43.5421638  39.8535652  23.4049263
  42.9140167  39.3309669  22.9063721  44.3196831  39.8892250  22.8477726
  12.5522022  19.3025970  84.9794235  12.2346268  19.7836361  85.7436066
  12.1711235  18.4292908  85.0707779  12.4161797  43.1224823  36.5124741
  13.3538122  42.9998245  36.3640404  12.1052647  43.5683327  35.7245750
  32.2164268  66.6228943  61.3409309  33.1086578  66.8461990  61.6060524
  32.2936211  66.3846588  60.4170685  11.3687706   5.6901565  72.6611023
  11.7958193   5.8247056  71.8150787  11.8166819   6.2934265  73.2541275
  57.4187469  64.6418915  82.2042847  56.7427902  64.6887817  82.8803864
  58.1510963  65.1433945  82.5626068  22.6103954  18.7548885  77.3982468
  21.8541374  19.3370914  77.3251190  23.1038036  18.9006386  76.5910721
  62.7903595   4.0572581   5.6453028  62.7633438   4.3575439   6.5537796
  63.4783096   3.3918140   5.6333599  35.6556244  17.6270275  74.6834869
  35.3715591  17.1146278  75.4404449  35.2219543  18.4735622  74.7909088
  46.7659378  49.9063072  88.3323822  46.9902306  50.0887604  89.2448730
  46.1232948  49.1985550  88.3806152  38.7084618   3.6000063  41.4783287
  38.2276421   4.4271688  41.4492340  38.0484161   2.9473863  41.7121162
  62.8115387  49.6095924  85.5513077  63.5465469  49.7813072  86.1399536
  63.0083466  50.1214638  84.7667770  33.7746239  30.1707783   4.6570816
  34.6612778  30.4746532   4.4628234  33.8334618  29.2164097   4.6129293
  83.0407791  54.8573952  82.1648483  82.7136078  53.9694481  82.0208206
  82.8058319  55.0550957  83.0714645  65.6759033  30.7173386  58.9325027
  66.5873566  30.7504501  59.2229919  65.4608154  29.7846508  58.9244614
  47.5664368  22.0728607  23.4609280  47.5886955  21.4607487  24.1964931
  47.4236298  22.9284821  23.8655910  67.3747253  55.0982018  50.9038620
  67.6640549  55.2017975  49.9973373  67.4554520  54.1599464  51.0753059
   5.6250329  36.6319351  18.4841881   5.0974736  37.4116592  18.3111515
   4.9905977  35.9159431  18.5170479  65.1170044  27.8789921  44.5582123
  65.2868881  27.1736813  43.9337845  64.6444855  27.4556637  45.2749748
  23.6500931  33.5044212   2.4890554  23.8757610  32.5989876   2.7023621
  24.4415817  33.8596001   2.0845480  48.1130753  -0.0879132  63.9850464
  48.7867928  -0.0117364  63.3093758  48.1750069   0.7300529  64.4783325
  84.0956268  66.9871140  77.6207733  84.9238281  66.5245132  77.7485275
  84.3293304  67.9141464  77.6680527   3.1109757  29.7361736  46.6995735
   2.2578297  29.3178234  46.8151436   3.6294816  29.4326420  47.4447250
  50.3772163  63.4950638  51.2370529  50.0299911  62.9645042  51.9541092
  50.6520424  62.8571701  50.5784225  65.3305740  58.1768951  75.1000214
  64.9559631  57.3718376  75.4574890  65.5272751  58.7116547  75.8691635
  38.7195625  31.5567017  85.6802292  38.9546967  31.3763885  86.5904083
  39.2239418  32.3377914  85.4527817  44.3837242  13.8913784  29.8676929
  44.1970024  13.8773489  30.8063984  43.5216713  13.8796244  29.4518127
  37.8963890  32.7807999   7.8113046  37.1738014  33.3924713   7.9525690
  38.6833763  33.3228149   7.8670268  19.9623680   1.6273055   0.7474583
  20.7036667   2.0574422   1.1737086  19.5627117   2.3131506   0.2125525
   3.5121293  71.3284683  13.5708055   3.0167787  71.1797562  14.3762522
   2.9003603  71.1063690  12.8689213  71.2731628  47.9091949  70.9521713
  71.3029709  48.5566597  71.6565399  71.6497116  48.3599854  70.1963730
  76.6054688  46.5169868  39.2114449  75.7589493  46.4966125  38.7650909
  76.4669037  46.0093689  40.0110397  47.3359642  16.9050713  80.8477402
  47.6469231  16.3891335  81.5916061  47.7750931  16.5204067  80.0891724
  78.8711548  25.8591423  70.1425247  79.0886078  26.1383572  69.2531509
  77.9161377  25.9098053  70.1827087  51.1529274  45.3864098   0.1189701
  50.6051941  46.0810242   0.4846686  50.5655518  44.6347580   0.0400051
  33.5803070  14.1052189  12.6442633  34.3513412  14.5554762  12.9892416
  32.8728256  14.3507948  13.2404127   3.9021239  19.4510193  80.1523514
   4.1014099  19.2275791  81.0615234   3.7310736  20.3926640  80.1691055
  39.9293594  22.0378265  65.1363602  40.2818336  22.1179638  64.2500381
  39.8195915  21.0958481  65.2662048  34.6719398  62.4677277   2.5945880
  34.8928909  63.3847542   2.7573004  33.7969131  62.3623009   2.9680169
  34.0510330  61.8738518  45.9026451  33.6809578  62.6962700  45.5818558
  33.4409828  61.2019043  45.5984154  67.8111115   2.4445646  32.6022072
  67.8365326   1.8792281  31.8302097  68.7311325   2.6082134  32.8096275
  83.2815399   0.8618712  30.8126659  82.5268097   0.2734926  30.7921848
  83.4695206   1.0424511  29.8916416  10.7096491  62.7725487  59.6688004
  11.0295000  63.0246277  60.5350494  11.5009165  62.5603409  59.1737289
  49.2547493  57.6643791  32.0455551  49.6556206  57.6763229  31.1764240
  48.9867401  56.7543793  32.1732216   5.3640962  21.2135906  19.7611294
   4.7955084  20.5586128  20.1660290   5.1231484  21.2001686  18.8348484
  68.0910873  52.0417404  25.8291512  67.7582626  51.8444176  24.9536419
  68.5262756  52.8890343  25.7346058  48.2393875  67.4776688  30.0292244
  48.9794922  67.2560349  30.5943413  47.6834831  66.6986237  30.0460415
  31.5738983   2.4020486  42.9606438  31.4500370   2.5188780  42.0187073
  32.0197220   3.2001424  43.2444000  26.6698856  24.2825127  21.1009274
  27.2237282  23.5334778  20.8808422  27.2633572  25.0332642  21.0809841
  77.0829849  63.3354378  41.7454453  76.6913223  63.6205597  40.9198914
  76.6735840  62.4890556  41.9250603  78.7143707  52.0962334  28.7841644
  77.9342575  52.4554749  28.3615494  78.5583801  51.1522446  28.8121548
  71.4348221   9.3634167   7.0036225  71.6233597  10.1893635   6.5580912
  71.5532303   9.5600786   7.9328885  67.5398560  28.9852734   2.1336770
  68.2637100  28.5944939   1.6442358  67.7280807  28.7750282   3.0483346
  15.1030655  55.6462135  74.0783844  15.0940943  56.1927032  74.8641968
  15.8773489  55.0927544  74.1803741  67.8964310  48.9756279  73.7274933
  68.5658188  48.7435036  74.3711243  68.3913269  49.2425575  72.9528580
  65.7494965  70.6975403  74.5897064  65.1882248  70.5652695  75.3537140
  66.6392441  70.5822525  74.9233170  85.9906311  70.2588272   1.7184277
  85.6174316  69.9004288   0.9131355  85.9203720  69.5457153   2.3530631
  60.1457138  12.2799568  50.2996902  60.2166367  12.5352659  51.2194824
  59.4142265  11.6629543  50.2781029  68.1583939  20.3922138  82.0677795
  67.5030060  19.7030315  81.9594803  68.9259186  19.9399586  82.4179230
  70.2738342  34.2281342  45.3345490  70.2700958  33.4458351  45.8861160
  70.7747421  33.9726410  44.5599174  22.5680809  52.0278397  76.0614395
  22.0058594  51.3827629  76.4904099  23.3280125  51.5254822  75.7675476
  11.6477251  52.5564842  67.6688766  11.0594893  52.6603546  66.9209290
  12.1740570  53.3559799  67.6724777  65.6227875  53.3724594  39.6541481
  64.9549255  53.7440147  40.2304649  65.3204575  53.5825081  38.7705727
  70.6468201  66.9399872  23.5402737  71.0317230  67.2493668  24.3602562
  71.3048401  66.3485565  23.1749535  46.7520256  54.3470993  36.7732620
  46.0479240  53.7240028  36.5937500  46.4254494  54.8739243  37.5026741
  17.0676441  36.4613152  14.2166958  16.1599789  36.5185165  14.5151978
  17.1052876  35.6441078  13.7197208  71.2873306  60.4046249  63.3677177
  71.8719406  60.6404457  64.0880356  71.8741837  60.1314392  62.6625900
  67.8602982  41.2347908   4.1862354  67.8353653  42.0226402   4.7292886
  66.9630585  40.9019012   4.2058244  35.5546303  62.4466896  52.9154320
  35.9624748  63.2677536  53.1906624  34.9799805  62.2089844  53.6431046
  69.3848495  40.0356216  53.6198044  69.4950638  40.6601028  52.9027901
  69.0891418  39.2312241  53.1935043  43.5658569  26.3616905  19.4247875
  43.7612190  27.2662945  19.1803322  43.4225540  26.3947983  20.3706207
  34.2934990   5.5309601  53.1592979  35.0864258   5.6151419  53.6888351
  34.1089630   6.4216056  52.8610916  54.5601921  48.2967834  87.0591660
  54.1774635  48.4312706  87.9261551  54.6179619  47.3457108  86.9677658
  29.4851513  61.4217682  67.1360703  28.9662056  61.5532570  66.3425751
  30.0637589  62.1834068  67.1727982  55.4771729  57.5468483  32.9966087
  55.4606972  58.1443748  32.2489967  54.5558472  57.3510704  33.1670952
  19.5085716  51.6604729  23.3987598  20.0622540  51.5644150  24.1736412
  19.2565575  52.5839005  23.3974400  62.1881561  71.4939957  58.7768059
  62.1136894  71.0677948  57.9229698  61.7800522  70.8800659  59.3873558
  74.0159836  36.0123062  88.6503448  74.5203934  36.1908798  87.8566742
  73.1700287  36.4328079  88.4961777  68.5810089  45.9849167  67.2180557
  68.8366852  46.9072876  67.2276382  67.6971741  45.9775391  67.5855103
  10.0184288  49.7535286  68.1458359   9.9266624  48.8449020  68.4325409
   9.8572922  50.2710609  68.9347763  20.1010170  11.8313742  63.5262260
  19.3984566  11.3724461  63.0657654  20.9058018  11.4908381  63.1356010
  61.5643196  12.7049198  24.2289562  60.7920532  13.1637058  24.5596409
  61.6792221  13.0396585  23.3395863  49.8482437  24.3201218   4.1886177
  49.5522118  24.1701317   5.0864482  50.7059288  23.8973446   4.1454344
  11.7080841  45.7774086  30.0693665  10.8158379  45.9808388  30.3499813
  11.6087151  45.0326614  29.4763145  73.2580795  49.4308434  10.6494923
  73.1770859  49.0109978   9.7931023  74.2012939  49.4746513  10.8065166
  28.2795334  15.5775499  -0.0487895  28.2745113  16.5003223  -0.3031461
  28.7566032  15.5603895   0.7808737  32.5582275  64.0104065  44.5305328
  32.5863037  63.6319466  43.6517754  31.7837887  63.6194572  44.9350510
  75.1303864  50.1465187  41.5981979  74.7668152  50.1053658  42.4827042
  75.6263809  49.3331680  41.5050354  58.1904144   6.7935505  63.9409561
  59.0031433   6.2904820  63.9922333  58.1229324   7.2269731  64.7917328
  51.3895302  10.4192362  64.7441559  50.6418991  10.8331146  64.3129044
  51.0128059   9.6765556  65.2161102  19.3690834  57.0675011  18.8645287
  18.6694546  56.4869690  19.1640854  20.0035172  56.4834518  18.4490662
  46.3849602  45.9266434   0.5187541  46.9338226  46.2456551  -0.1976331
  46.5135269  46.5640984   1.2211443  72.8581696  14.4767189  47.6543159
  73.1734390  15.3781109  47.7201080  73.3846207  14.0892897  46.9550400
  83.1547546   5.1864419   8.9055338  82.9181366   5.5433650   8.0494661
  84.0679855   4.9166036   8.8084221  35.7758255   4.6241889  61.2912674
  36.5596504   5.1564989  61.1552582  35.1843605   5.1909461  61.7864342
  26.3710136  33.6041527  85.3374557  26.7271175  34.4495392  85.6108475
  25.4695892  33.7962341  85.0790634  14.9178553  60.9380722   1.9985832
  13.9977865  61.0385399   1.7544267  15.3930283  61.4827690   1.3710932
  14.7605791  33.1909866  76.7165680  15.4341679  32.5722923  76.9989243
  15.2447872  33.9844475  76.4881134  16.0980320  29.9792213  28.4538059
  16.2636967  30.6486244  29.1176472  15.3245916  29.5132103  28.7713833
  40.5956383  65.5707855  64.5901337  40.6729813  66.5245667  64.6134949
  39.6839714  65.4103012  64.3465271  32.4128723  45.8451271  80.4001923
  32.8216133  46.4851189  79.8174667  32.3692780  45.0420914  79.8810883
  39.7002373  18.4636326  19.1166039  40.3055077  19.1753082  18.9082794
  39.0103760  18.8795586  19.6336403  21.2189617  35.1402206   9.7728834
  20.8087254  34.8752785  10.5961361  21.9125843  35.7456017  10.0348673
  79.2701874  28.0880413  83.8429642  78.8064804  27.3624210  83.4250183
  80.1128235  28.1261330  83.3904800  23.7457123  39.2093544  85.1608734
  23.5536308  38.3624916  85.5635681  22.9106140  39.6768990  85.1764603
   6.5684819  38.7783470   9.3173141   5.8124228  38.2765999   9.6220427
   7.2001057  38.7188148  10.0340700   8.6662598  49.6811256  61.8415833
   9.3549604  50.1441956  61.3646240   8.6044960  48.8304291  61.4071465
  26.8877983  68.6672058  71.3437958  25.9371452  68.6666107  71.4555664
  27.0988350  69.5663757  71.0924072   3.5158207  15.5925217  81.4513702
   3.9290733  16.2599506  80.9036560   4.2042737  15.3209076  82.0584030
  45.7930908  19.9101009  77.9542694  45.3349113  20.5708866  77.4349823
  45.1592445  19.1993294  78.0505753  20.4200439  11.1363220  17.2354527
  20.2600269  11.0523148  16.2954693  20.8229256  11.9990339  17.3336658
  51.7646332  27.5953350  33.8517952  52.6416359  27.5512810  34.2327919
  51.8326111  28.2647457  33.1709862  27.4117107  61.7192345  64.7369919
  27.1866436  62.5415916  65.1720886  27.8720341  61.9872169  63.9416809
  68.2401352  70.5321121  16.4743443  68.3802338  71.4189987  16.1426239
  68.3348083  70.6136169  17.4233589  75.8144226  67.0822830  72.3818665
  76.0235748  66.7705154  73.2623672  76.4807968  66.6837463  71.8220825
  58.0005569  67.4761429  50.3030968  57.1356964  67.0782166  50.4026260
  57.8503456  68.4120560  50.4362221   3.6403289  19.1304207  56.6777000
   3.6590178  18.2289886  56.3562889   4.3443761  19.5695057  56.2004662
  85.4685287  54.5285568   1.9179991  84.9278564  54.9040909   1.2231028
  85.2240982  55.0187187   2.7029982  23.2022591  19.5561123  26.7508564
  23.5485039  18.8284321  26.2343006  23.9521542  20.1370373  26.8789730
  12.3027315  15.8213902  65.0040665  11.8597860  15.9857225  65.8365479
  11.5949526  15.7743635  64.3613586  16.3502102  54.9141693   2.2892802
  16.1736832  55.5205040   3.0086045  15.9073563  54.1047554   2.5441563
  82.7362747  21.8774071   7.0750666  82.1282272  22.4584332   7.5321426
  82.8748550  22.2961483   6.2255464  80.0742264  17.5367298  48.6902924
  80.0965729  16.5929565  48.8484840  80.1944962  17.9275627  49.5557480
  68.0092087   2.6073604  20.5664806  67.2589111   2.0310676  20.7119904
  68.4981918   2.5761678  21.3887634  67.2962341   2.9817071  28.4845715
  66.5288086   2.8695889  29.0455704  67.0733185   3.7208476  27.9186954
  67.8808212  31.2925167  33.5731354  68.0442047  30.4052143  33.8928680
  67.7422562  31.8109894  34.3657379  25.5774250  30.3950005  31.1206722
  25.1155643  29.5615730  31.0294819  26.5039616  30.1550808  31.1347733
  43.1443634  54.3306351  41.9048157  43.3393326  53.6385498  42.5366669
  43.5362244  54.0252991  41.0866165  47.0627060  49.7030792  76.7204208
  46.6243935  49.6952477  75.8695068  46.5398140  50.3017807  77.2536850
  84.8829803  55.6442146  49.3054886  85.7869263  55.3295097  49.2967339
  84.7667999  56.0146561  50.1804199  50.8228874   7.8082795   7.3610315
  50.2201080   7.6212792   8.0806999  51.1568108   8.6852112   7.5500193
  64.2727737  20.6389389  45.2406425  63.6979332  21.2350845  44.7606430
  65.0848846  21.1318588  45.3578949  41.4858780   3.2938070  38.3527832
  40.6735039   3.7033832  38.0552444  41.2784958   2.9555283  39.2238693
   3.8146069  66.4556351  28.8267803   3.9053767  67.2163849  28.2529755
   3.1715171  66.7255096  29.4823971  80.4543610  25.1058388  39.9354668
  80.6841049  24.3024330  39.4685745  81.1816635  25.7023029  39.7580299
  77.2059174  26.9294357  42.9609070  76.8130722  27.8012371  43.0040512
  77.2084503  26.6227264  43.8676338  21.8717136  63.0859070  22.2403393
  22.3944111  63.8757553  22.1019363  22.2798862  62.4270935  21.6785603
  48.2915840  56.9598694  20.0380497  48.0463295  57.3190498  19.1853657
  47.4944954  56.5375900  20.3583050  42.9002991   6.1836376  88.5890732
  42.3720245   6.8017693  88.0840302  43.5561256   5.8660855  87.9683609
  30.3697510  42.4400368  15.0976686  30.9557133  43.0093040  14.5988531
  29.8503819  43.0404816  15.6324167  52.2283173   5.3218250  70.4311676
  52.8725853   5.5439272  71.1033478  52.2186623   6.0811563  69.8484497
  33.2784157   8.4152641  40.1002312  32.9378014   8.8104410  40.9027557
  33.4885864   7.5146785  40.3472214  76.2170105  49.1614761  54.6244736
  75.3642273  48.7729950  54.4293594  76.1553192  49.4260674  55.5423088
  32.1093330  11.6153984  22.8551941  32.5486603  12.0547714  23.5833263
  31.4161873  11.1010141  23.2689438  18.1455956   7.8500686  23.0841942
  17.8558159   7.6236763  23.9679413  18.1042919   7.0254111  22.5999775
  63.0480537  47.6431694  55.6126328  63.2955284  46.9215126  55.0345306
  63.1380234  47.2844620  56.4955063   3.6135380  31.1601295  13.0051336
   4.0822678  30.9660378  13.8168306   3.3623416  32.0800819  13.0877218
  77.8443222  25.2159214  25.0922718  78.6686249  25.3363037  24.6208229
  77.7944107  25.9673157  25.6831589  56.9483719  39.7080612  10.5603523
  56.9772491  38.8440170  10.1494675  56.1195374  39.7180481  11.0390682
  83.2283859  33.9530106  27.0165291  83.8535461  34.1437111  27.7158432
  83.5049896  33.1034317  26.6731014  86.4675293  43.4711075  47.2921486
  86.8014603  42.9160156  46.5874519  85.5176086  43.4617767  47.1747017
  32.1084938   3.0804775   2.4441719  32.2142105   4.0314755   2.4698389
  31.2026539   2.9327650   2.7159483  75.7144012  48.3435059  75.5288467
  75.8099518  48.0146141  76.4226761  74.7683716  48.3959427  75.3927765
  83.1283875  54.4197960  18.8383770  82.4925690  55.1314926  18.9122601
  83.3058777  54.1623154  19.7430496  60.0888863  57.2235489  78.1921234
  60.3963890  57.3953094  79.0821686  60.2117653  58.0537872  77.7318726
  85.0849686  31.7704906  41.5057602  85.7804489  32.0709686  40.9207344
  85.3762894  32.0331917  42.3788910  62.0779953  42.8346405  83.7844238
  62.9580269  42.8073158  83.4088745  61.5116920  43.0731544  83.0504990
  77.0554886  34.1366119  58.2135620  76.2377625  34.6232643  58.3171425
  76.9521408  33.3714485  58.7793198  62.4044456  20.4430485   1.2696927
  61.5295219  20.4487228   1.6578985  62.5763130  19.5207176   1.0799558
  27.3626003  27.9804516   0.8836496  28.0299225  28.1709900   1.5428978
  27.3025494  28.7826080   0.3648337  54.3974686  53.3280106  37.7179756
  53.9386024  53.6443100  38.4961967  55.1620178  52.8660736  38.0619354
  17.4314671  65.7301788  84.1839905  16.6653099  66.3032990  84.2116699
  18.1014843  66.2474289  83.7370453  42.6562233  19.5966511  38.9657860
  42.1154518  19.9152508  38.2430878  42.1097946  19.7127399  39.7430687
  75.9085464  32.3037987  56.0448685  76.3655624  32.5276947  56.8555717
  76.3098755  32.8645210  55.3809776  56.7890816  40.1058388  35.4287910
  57.5242157  40.6117973  35.7749405  56.9137115  40.1208420  34.4798584
  54.8344688  61.6514740  56.3060036  53.9112740  61.6304817  56.5580025
  55.0225296  62.5789757  56.1624527  56.2543602  54.7494621  40.1492805
  55.3696518  54.4124756  40.0080070  56.1273041  55.5497551  40.6588097
  77.9022141  55.1568413  71.6955490  77.1366577  55.6727905  71.9484100
  78.6443253  55.7449417  71.8357010  82.9004440  57.3934669   6.0372257
  82.8657761  57.9156876   6.8386712  82.3311157  57.8580437   5.4238191
  54.3004799  68.9239273  75.6009293  54.1067848  69.8563614  75.6972580
  53.8026810  68.6543961  74.8290634   1.6278851  18.2158871  80.5552979
   2.3958802  18.2573166  79.9854736   1.2925429  19.1122875  80.5708466
   0.2415417  33.7082138  64.8063431   1.1790529  33.5767365  64.6648560
  -0.0555855  34.1742516  64.0248337   8.8864269  35.4281235  22.0400848
   8.9699602  36.1911354  22.6119843   8.1755886  34.9162407  22.4259777
  64.4534607  44.6466560  26.3292751  63.7665596  45.3107185  26.3877811
  64.0810928  43.8781471  26.7616768  80.8892593  52.3435478  56.8333855
  81.3151855  51.6641769  56.3106346  80.7662964  51.9420471  57.6935692
   2.2606306  43.7687950  86.3442535   1.7868260  42.9635239  86.5522842
   2.5136652  44.1246681  87.1960526  81.4009399  37.8456192  29.0970001
  80.6627045  38.4418869  29.2223282  82.1733093  38.3764992  29.2915421
  72.4539642  24.9295464  14.3035192  71.7612152  24.9041576  13.6434574
  72.2486496  25.6974602  14.8367977  83.1158752  34.4774437   8.5049009
  83.7377701  33.9363670   8.0183706  83.6633759  35.0208435   9.0716343
  29.0819073  68.4249878  49.0799294  28.7023830  67.7782745  48.4849854
  30.0261364  68.2792892  49.0213127  55.6815948   6.7500844  14.3515701
  55.4430656   5.8340731  14.2092381  56.2054482   6.7394843  15.1526308
  32.0895615  70.8891678  61.1936264  31.9429073  71.8216324  61.0347977
  32.9135399  70.6966705  60.7461472  49.6286430   2.3920352  34.4944305
  50.1116943   2.4018989  35.3207474  49.0859604   1.6050763  34.5436211
   9.3253565  16.5722179  22.3085442   9.1556759  17.3805923  21.8248386
  10.2740602  16.5637207  22.4355125  67.1097565  64.5870819  44.0322342
  66.9912567  63.7882195  43.5184212  66.3114395  64.6556854  44.5558853
   0.8311359  58.3434753  29.9680023   1.6805609  58.3182449  30.4085407
   0.6948497  57.4478035  29.6590824  47.6293869  22.9559078  70.7308960
  47.9887924  23.8430061  70.7200623  48.3908844  22.3875427  70.6155014
  82.7705307  59.4158630  56.6200218  82.7310257  58.4734802  56.7830811
  81.9760590  59.6061325  56.1211815  42.5485420  10.4765882   4.8937979
  43.1318283  11.2007017   4.6664934  42.1080971  10.2570486   4.0727973
  11.2267694  37.6676254  72.0352173  11.8445930  37.5930786  72.7625198
  11.7142487  37.3534889  71.2736969  83.1364365  58.3252754  17.9792919
  82.7149658  59.0073318  18.5021591  82.4122543  57.8748474  17.5446472
  72.4380569   4.1722631  42.6011200  72.9818726   3.4096017  42.7982140
  71.6467056   3.8064654  42.2059135  40.2573700   9.8636351  40.9155655
  40.6497650   9.3238659  41.6017914  40.4682121  10.7625580  41.1679840
  11.1092091  19.7363396  45.1714745  10.9914331  20.6849556  45.1215973
  11.9699993  19.6227169  45.5744133  11.2841930  32.0646057  26.4443588
  12.1281338  31.6156273  26.4934788  11.5073767  32.9954033  26.4503365
  38.7963448  58.3539658  81.4510956  37.8521729  58.4266853  81.5906830
  39.1418343  59.2115898  81.6987839  13.8289509   1.8540474  42.3224106
  13.2557364   2.1163237  41.6020851  14.1102619   0.9680316  42.0942192
  31.4296551   8.4328985   1.8598409  31.0933495   8.5973835   2.7407920
  30.6693306   8.5427914   1.2888237  27.1720047  44.9745827  34.8207512
  26.8973656  44.7101326  33.9427567  27.9032097  44.3928108  35.0283737
  75.4114380  70.0304565  72.0634079  74.8171692  69.3382950  71.7735825
  75.3392181  70.0240326  73.0178604  72.5127716  33.1469116  33.0708237
  71.7597122  33.5819740  32.6710091  73.2518692  33.7247696  32.8809433
  22.0625477  41.2927208  85.4815674  22.5312977  42.0245247  85.8827744
  21.3042011  41.1541214  86.0489655   5.8270030  16.8589077  39.0439606
   6.1394863  17.1640015  39.8957253   6.5841022  16.4224739  38.6533737
  86.0575333   1.9051926  71.1526642  86.3766403   2.5279148  70.4994965
  86.1883316   1.0470067  70.7493744  55.4865417  11.4218521   6.8700166
  54.9211807  10.7397699   6.5075803  56.3631973  11.0377121   6.8580046
   8.5667315  62.6100693  39.3355904   9.4331751  62.4559822  38.9590721
   8.1861677  61.7364655  39.4262466  28.6221771   7.9844341  27.7183743
  29.4427586   7.5296569  27.9082546  28.5577736   7.9736199  26.7634048
  26.9973450  39.2721558   0.7344676  26.9042931  38.8024254  -0.0943438
  27.5694561  38.7152596   1.2624705   6.4624777  50.5408401  70.9449081
   5.6183710  50.6319656  71.3869629   7.0960121  50.9107056  71.5597763
   5.2669425  27.5619030  67.4883194   4.6244984  27.4044018  68.1801910
   5.0753269  26.8964081  66.8275375  18.2810898   8.0962830  31.9705105
  19.1963921   7.9473720  31.7332764  17.7815380   7.6086941  31.3155785
  61.0194016  51.9505043  17.5615559  60.7985191  52.7993813  17.9447632
  60.1789360  51.5005608  17.4755402  82.0543289  56.7262230  15.5793791
  82.6557846  56.8522377  14.8454857  82.5440216  56.1871376  16.2005272
  42.4583473  18.6834602  71.5869751  42.2620735  19.0976524  70.7466507
  41.9257126  19.1637173  72.2209244   5.9046164  25.1720676  88.6469727
   5.0235372  24.9506283  88.9484634   5.7751079  25.9076805  88.0483627
  56.2666512   0.5055112  12.8771744  56.6076927   1.3998914  12.8800745
  56.6773987   0.0900948  13.6354284  12.6171970  61.3338013  23.3252048
  13.2410631  60.8261414  22.8062630  13.1108084  61.5985565  24.1014042
   2.8941002  28.2519188  50.5751839   3.4174969  28.4303970  51.3564873
   3.3429577  28.7233219  49.8733749  31.9281368   5.9650955  75.7527390
  31.5970707   5.7592530  76.6269608  31.2620659   5.6214671  75.1573410
  58.1222153  28.9357204  65.6895981  57.5847740  29.0978336  64.9142838
  58.8227501  28.3617573  65.3796768  82.8114777  26.4764576  38.7997742
  82.7881699  25.9970512  37.9716110  83.7415771  26.6405163  38.9554558
  62.2358360  60.5928993  12.8525248  62.7513428  60.2289619  12.1327791
  62.0533829  61.4936371  12.5849190  49.8733864  59.3992081  48.8892250
  50.6120682  58.8050690  48.7566605  49.1151123  58.8221130  48.9798470
  10.7487993  34.0483437  86.8281784  11.3476477  34.2794495  86.1181107
  10.1268368  33.4402847  86.4286041  29.6657009  70.8864059  36.7113266
  30.1326885  70.5165787  35.9620705  29.3366241  70.1245270  37.1882668
  37.9588394  48.6453438  14.2441549  38.7849960  48.4447670  14.6840067
  37.2858276  48.2919235  14.8258600  71.3056335  37.8747597  23.9035358
  70.8550186  37.1787605  23.4252491  71.2289734  38.6428070  23.3374405
  28.8910885  54.1862526  60.5620461  28.6514568  55.0968208  60.3897972
  29.5496044  54.2388077  61.2547417   1.0858231  51.3158646  84.4523849
   1.4819844  51.2278290  85.3192978   1.5635684  52.0371704  84.0428619
  12.9437056  10.0566015  21.6140614  13.7918634   9.6277456  21.7278233
  12.7876120  10.0320463  20.6699944  29.1619225  12.7358570   1.5549909
  29.4088726  13.4812460   2.1023877  28.5226097  12.2544498   2.0801184
   1.3623298  34.0607300  26.6110420   1.1408297  34.7924767  26.0350933
   0.6297099  33.4518700  26.5172920  83.6499100  31.7649040  71.8572159
  82.8690872  32.1931953  71.5063400  84.2194138  32.4864922  72.1240768
  38.6405983  28.8712978  10.6772032  39.1891098  29.6541367  10.6269474
  39.0972710  28.2239723  10.1399403   0.4843013   5.5157113  62.6216125
   0.7411262   4.6285257  62.8729591  -0.0413633   5.8303199  63.3570938
  10.4931812  47.0706444  33.4659042   9.9100389  46.3928909  33.1241035
  10.4572773  46.9606133  34.4160805   8.7217007  42.1145439  79.2021942
   8.0837479  41.4371834  78.9776230   9.0345612  42.4383850  78.3575134
  68.2182388  62.5916405  56.3266678  69.1381683  62.8348846  56.2227554
  68.1131821  62.4482384  57.2672195  50.5558434  40.5293083  24.1802197
  50.7444344  41.1047058  23.4388809  50.4990768  41.1185760  24.9323978
  12.2673435  63.4823608  66.6796951  13.0846767  63.9540787  66.5194473
  12.2054491  62.8580170  65.9567871  32.7511864   5.2287340  88.8055801
  32.9664230   6.0925417  89.1573486  33.5961647   4.7868791  88.7218552
  65.2317963  26.5841179  76.0496902  64.3737488  26.9236126  75.7952728
  65.2050171  25.6587601  75.8063278  49.8171577  54.3119583  71.7275467
  50.2105980  53.6337204  71.1785202  49.3006706  54.8418732  71.1203690
  12.7920113  19.3288097  82.1612320  13.7444468  19.2670460  82.2339249
  12.4909325  19.4565830  83.0608215  39.4069061  59.3270187  86.7759323
  39.7096481  58.9263725  85.9610291  39.2061653  58.5856628  87.3471756
  47.1291885  70.9289246  14.4351587  47.2107697  71.4362106  13.6275482
  47.1417427  71.5847626  15.1322575  71.0117264   9.1225214  22.4074039
  70.9786301   8.2649412  21.9835052  71.5270920   8.9777288  23.2009220
  22.5535793  61.7449951  88.7577286  22.5491848  62.1342354  89.6322021
  23.0692558  60.9444046  88.8545074  84.9498901  66.2111282  20.3135586
  84.3543320  66.9580536  20.2531471  84.3736572  65.4517670  20.4004841
  55.2085190  58.6915970  45.8432465  55.7363701  58.9345131  46.6039009
  54.6015930  59.4229813  45.7294464  73.4082947   1.6699228  57.3105736
  73.7056122   0.9718884  57.8941689  72.5289001   1.4013675  57.0445213
  86.8079453   2.5529950  43.6978149  86.0393143   2.8065207  44.2088547
  86.6427231   1.6426886  43.4523010  35.3831444  70.1571198  68.5785980
  36.0858994  70.2198944  69.2254562  34.5827446  70.0944824  69.0998154
  50.5429955  11.8172464  57.9950752  51.3767929  11.3609524  57.8818932
  50.7524529  12.7393265  57.8463135  74.0575409  65.8980484  54.0423050
  73.4615784  65.3212738  53.5644035  74.8004074  66.0181274  53.4507217
  12.0021009  69.9804764  40.6241646  11.6859093  70.8756638  40.5021515
  11.2772703  69.5270081  41.0545425  40.2431297   2.9540007  44.7351341
  40.2887001   3.1139710  45.6777725  39.4866409   2.3777089  44.6262932
  77.9183044  38.7919540   1.3232089  78.6680908  38.2847748   1.6343710
  77.2329941  38.6283836   1.9711515  33.4809341  40.5734024  21.5811253
  34.3371124  40.9209290  21.8309669  32.9096222  41.3409195  21.5537281
  69.4777908  43.5764503  39.7292633  69.1012955  43.8573189  38.8952408
  68.7220154  43.3289070  40.2619553  71.0433655  56.2536354  59.2025604
  70.8537369  55.3179092  59.2710724  70.5647125  56.5386505  58.4241714
  70.6824570  11.8652391  77.1110001  71.1178131  11.2599354  77.7112503
  70.4863739  11.3361845  76.3377686   6.3178205   3.3425825  39.0805855
   6.1678872   3.9401472  38.3480072   5.4433427   3.1627092  39.4257889
  21.3392792  65.3480453  69.8444366  21.2390614  65.5361938  68.9112701
  21.2806988  66.2039490  70.2689743  56.4873886  67.2533798  25.8345242
  55.8157883  67.9316330  25.9063339  56.5741043  66.9071960  26.7227058
  34.8577843  71.2257004  59.4376678  34.8271751  71.1636810  58.4829712
  34.7378464  72.1574631  59.6211281  26.0817871  23.8823757  25.8922100
  26.7606812  23.3008099  25.5499897  25.8354778  23.4948387  26.7320786
  41.6522675  19.3872814   5.5689673  41.7162399  19.5749016   4.6325178
  41.1335144  18.5843029   5.6174693  61.2016373  37.6373138  66.4071426
  62.0499573  37.2388000  66.6014938  60.6011505  37.2427902  67.0395966
  17.8507214  12.2990751  81.4932404  18.7229710  11.9121552  81.4176941
  17.2561913  11.6085863  81.1999969  62.3467102  21.2799206  63.1155968
  61.8829803  21.6864033  63.8476906  61.7795753  21.4308262  62.3594131
  15.9408522  14.2219172  33.5398064  16.1598015  14.7257814  34.3236504
  16.2722359  13.3422232  33.7202339  71.0582886  39.4361801  10.5694962
  71.7892151  40.0538445  10.5910540  70.3900681  39.8741531  10.0423374
   2.0159419  64.4804230  56.4259071   2.8365145  63.9880409  56.4472275
   2.1661389  65.1682663  55.7774124   3.4162481  11.1483154  24.9586754
   4.3690472  11.0566502  24.9604492   3.1556394  10.9232359  24.0655594
  36.4583893   2.0073113  71.7777405  35.6502609   2.5201011  71.7921982
  37.0594482   2.5226395  71.2397842  84.4470978  58.1854858  32.8455544
  84.4516449  58.3780136  33.7831841  85.1372070  57.5319939  32.7318802
  31.2407303  25.0181446  17.7417469  31.1107597  25.9031181  18.0825729
  30.7695560  24.4538116  18.3547363  29.2534904  47.4765244  78.7841187
  29.9883537  47.9901848  78.4489136  28.9254112  47.0013618  78.0206909
  21.7924137  50.4080925  65.6339188  22.1149216  49.5070915  65.6544418
  22.3850117  50.8878403  66.2126236  75.0443497   0.4225791  63.3278732
  74.6307907   0.1791350  64.1560822  74.3120422   0.5923135  62.7352867
  52.0854111   7.0651956  51.7521935  52.5167236   6.2590551  51.4687500
  52.1890144   7.0704417  52.7037582  44.1773872  63.7263794  40.4228668
  44.7526817  62.9855385  40.6136971  44.6885681  64.2809830  39.8335037
  84.5219803  16.8756065  62.6371765  85.0236893  17.6900234  62.6724510
  83.6774597  17.0973701  63.0293884  66.6187668  24.5772247  25.7200203
  67.0524368  24.8042641  24.8974571  66.6884460  23.6240005  25.7723675
  45.9696503  58.0889359  15.8826246  45.8715210  58.9515419  15.4794960
  45.0809669  57.8413887  16.1379547  76.5298615   9.2229891  38.1656189
  77.2743835   9.7924376  38.3596725  76.7846069   8.3686075  38.5139999
  68.2465363  24.7322311   3.6606276  68.7212067  25.2877045   4.2789888
  68.5161591  23.8411961   3.8833163  35.4091530  59.3000069  32.3620529
  36.0165367  59.9109802  32.7792206  35.2925110  58.6012230  33.0057335
   9.7268047  42.9322243  17.5573101   9.1256104  43.1241302  18.2770100
  10.4781857  43.5041809  17.7139072  72.9591980  34.7964287  56.2533989
  73.0759583  34.5871773  55.3266792  72.1060486  34.4245949  56.4772491
  20.0744095  34.1447372  12.0799780  19.2526989  33.8291359  11.7039251
  20.5956440  33.3533134  12.2148800   5.4388537  61.8929901   9.5462503
   4.8943849  62.5634918   9.1336813   6.2823062  62.3229294   9.6875668
  62.4699898  54.4312630  28.0428867  61.5217018  54.3056412  28.0775032
  62.8266258  53.5455475  27.9754066  86.7338562  31.6120949  55.9785423
  86.5965271  32.4055367  55.4610329  85.8811340  31.1772575  55.9811554
  75.5289536  70.1324234   7.4605618  74.6023560  70.0345612   7.6797886
  75.5298157  70.6144943   6.6336160  24.8470917  69.7895355  43.9148254
  24.0973988  69.1943970  43.9153671  25.5648727  69.2702408  43.5523872
  44.3393707  59.9755402   6.5873885  43.9859695  60.6465797   7.1713820
  44.1206741  60.2840004   5.7080379  76.9836273  49.1954460  85.6671524
  76.8520660  49.9771843  85.1306763  76.2282486  49.1783333  86.2548065
  27.8133373  65.9415970   0.3248795  26.9878998  65.5052795   0.5358527
  28.4223080  65.6411896   0.9995191  38.9596901  50.0424004  81.3525467
  39.0125275  49.7093658  80.4567108  39.7364578  50.5932770  81.4494858
  72.9832611  33.3238831   6.2194204  72.2444305  33.7360725   5.7716961
  72.5931320  32.5991020   6.7080121  76.1884155   4.2628412  27.4766426
  76.1740417   3.4111712  27.0399704  77.0751801   4.3361483  27.8295002
   0.7805666   7.5208683  27.7351303   1.6529952   7.7450790  27.4113560
   0.8554970   7.5819693  28.6874352  14.9586315   1.0721990  50.4422684
  15.7665663   1.3915635  50.0404205  14.8286781   1.6393996  51.2022858
  77.2014465  46.6697388  77.6108322  77.8310013  46.6546288  76.8899536
  77.6757660  46.2910957  78.3510208  78.1085968  52.6022224  70.9106445
  79.0020676  52.4558449  70.5999832  78.0820618  53.5326385  71.1339111
   2.5651269  52.3151474  23.6283817   2.5750134  51.5130386  24.1506386
   3.4320536  52.3483276  23.2239456  32.0584717   8.4373579  42.5213280
  31.5874653   9.2110310  42.8308678  31.3750763   7.8635583  42.1749763
  51.0828247   8.1126442  40.5202904  50.8236847   7.4553056  39.8745461
  50.2927322   8.2630329  41.0392990   1.5888621   5.1313510  67.1584091
   1.5737928   4.2913771  67.6171494   2.4024765   5.1144571  66.6544418
  63.6377869  28.9604740   3.3967779  62.8016815  28.5104599   3.5177891
  64.2980957  28.2958908   3.5931225  42.7305641   2.7811584  70.2058411
  43.2755432   2.0017207  70.0976410  42.7194023   3.1877704  69.3393707
  74.7463913  58.9141464  57.5247917  75.3155365  58.1569176  57.3872604
  74.0744781  58.8348656  56.8476791  13.5656223  13.0511093  58.2928200
  12.6111670  13.0882444  58.2306366  13.8144960  12.3222532  57.7244339
  83.8089218  56.5657425  38.1078606  83.5781708  56.0972443  37.3056793
  84.7648239  56.6126671  38.0912857  18.6809921  37.5291061  59.3975487
  18.4464931  36.8321152  58.7848129  19.5088654  37.2412796  59.7822762
  22.6226406  29.2518120  14.9023371  21.7916260  28.9672413  14.5219860
  23.0075836  29.8224010  14.2371473   7.1309834  26.2939529  80.5250320
   7.7191057  26.8138332  81.0728149   6.3315926  26.2096767  81.0447464
  20.7659855  40.2263145  24.9909039  20.5697041  39.2904930  25.0350342
  19.9082661  40.6492882  24.9504147  45.2563782  10.7362375  51.4466400
  45.4389725   9.7966156  51.4461975  44.6706734  10.8667622  50.7008896
  20.0443916  46.1767044  81.5643463  19.2785301  46.7402420  81.6744080
  20.6229706  46.6697845  80.9826660   4.8929152  23.4980755   7.1369600
   4.5298824  24.3824844   7.0894408   5.4086285  23.4074879   6.3356700
  48.4411087  20.4141197  68.6956863  48.2859726  20.5668316  67.7635651
  49.2744064  19.9440842  68.7259445  81.3472061  56.1587982  42.4278679
  81.3793259  57.1149902  42.3978577  81.4014435  55.8884430  41.5112419
  78.3296432  12.8173256  14.9738646  78.9570007  12.2914352  14.4777918
  77.6674347  12.1898708  15.2637253  70.6348495  53.1004829  19.2325821
  71.2843933  52.8326683  19.8826580  71.0487442  52.9145470  18.3897591
  40.9742012  67.3903198  15.1411791  41.3023300  68.2157364  15.4979038
  41.7545967  66.8448563  15.0427809  63.2976532  47.6208229  65.4477005
  63.9320374  46.9624672  65.1642227  63.2114677  47.4800224  66.3905563
  58.0769730  11.0601778  26.6512070  57.5857925  11.5805235  26.0154285
  58.6145973  10.4750319  26.1175480  35.8244820  34.5798569  21.6517048
  34.9988594  35.0276031  21.8363762  35.7688904  33.7616920  22.1454182
  62.3631477  29.7532825  45.5065117  62.1314964  30.0140514  46.3978996
  62.8668671  28.9467621  45.6161652  85.5524216  65.1507111  17.7568207
  84.9310226  65.8181458  17.4659233  85.8133926  65.4323425  18.6336403
  20.4080944   6.1584482  77.4089813  19.8069172   5.4135876  77.4078674
  21.2792530   5.7631755  77.3762131  27.1462078  15.0362301  62.5719070
  26.7532349  14.1983137  62.3275719  27.9809933  15.0548010  62.1039085
  58.0183182   6.7332311  22.6835384  58.8993263   7.0579872  22.4975719
  57.6182785   7.4188385  23.2184639  39.7724915   4.6350870  82.1537628
  40.4656334   4.1328492  82.5821838  38.9625244   4.1979308  82.4166031
  59.0616341  14.4832115  24.8063221  58.7178612  14.8279152  25.6304779
  59.7888069  15.0660143  24.5877075  81.8972092  34.8119354  21.6977215
  82.3535461  34.8119545  20.8563004  81.0167999  35.1267128  21.4927177
  19.5048962  49.2190437  66.3072205  20.1886768  49.8704948  66.1513748
  19.3873177  48.7880287  65.4606781   7.5682173  55.3665428  13.6717577
   7.0882630  54.6201782  14.0306740   8.4229269  55.0086517  13.4317207
  45.7272110  13.4246616  41.9621773  44.9519348  13.2935934  41.4162865
  45.8215408  12.6037273  42.4452934  78.1995926   4.8261256  75.0723724
  77.9662018   4.2289295  74.3616486  79.0661392   5.1553555  74.8337479
  26.5109005   3.7639148  28.8616829  27.4088726   3.7460072  28.5306911
  26.5630493   3.3407984  29.7187042  82.6011505  18.8252277  70.9801865
  82.4309769  19.6788464  70.5819321  81.9560776  18.2416763  70.5807114
  53.7081871  19.6658955  40.4775314  53.1374435  20.3496132  40.1267967
  54.5943832  20.0030727  40.3463860  42.9662323  66.0927200  33.5378342
  43.5134048  65.3082809  33.4992180  42.0932541  65.7882538  33.2899590
  27.8349209  15.8458977  33.2191429  28.4028549  16.4083672  33.7457428
  27.1846809  16.4423027  32.8480339  85.4096375  24.4416885   2.4710972
  85.3081131  25.3632851   2.7089705  86.1696396  24.4267979   1.8893621
  12.3326120  55.8378029  19.4026566  11.5583839  55.6424141  19.9305077
  12.8595161  56.4153557  19.9549561  48.4847298  58.4060707  51.6660423
  49.2129135  58.9732208  51.9196510  48.7669983  57.5267982  51.9179039
  10.9333630  54.5234261  27.9691048  11.6309900  53.8718185  27.8987064
  10.7101879  54.5357742  28.8998413  72.5608215   8.6090631  43.3058739
  72.9226913   7.7333651  43.4416618  72.9738846   9.1463690  43.9818306
  81.9569092  26.5237808  64.0310059  81.2918854  25.9683228  64.4377441
  81.7018051  26.5671272  63.1094437  22.3295250  18.9077663  71.2880554
  22.4420662  18.0136852  71.6108322  23.2047710  19.2921486  71.3373337
  58.7414856  32.1957169   2.9357395  59.3669739  31.4851685   2.7938952
  57.9152260  31.7525558   3.1284440  14.4260883  30.0605717  83.5386963
  13.5867672  29.7974014  83.9162064  14.3392458  29.8691368  82.6048660
  11.2715445  68.4074783  45.9141541  10.4712410  68.0813751  46.3257408
  11.5536547  69.1285172  46.4769592  70.0341263  48.8528290  75.4191742
  70.3210373  48.0521202  75.8582382  70.1604691  49.5420189  76.0713043
   2.3406987  28.1481686  21.5906487   1.4791049  27.7498302  21.7139988
   2.4942884  28.6410942  22.3966675  74.3650970  32.0232010   3.0113351
  74.9884033  32.7484970   3.0521777  73.6394730  32.3602829   2.4859035
  63.5569572  22.4957409  11.3100586  64.4469681  22.3576717  10.9859419
  63.3563271  21.7013092  11.8048916  35.4605255  24.7577744  36.7866745
  36.0811844  25.3675461  37.1856613  35.9261208  24.4036388  36.0290184
  41.6456070  58.0994720  60.1750488  42.4955139  58.5190506  60.0414772
  41.7943764  57.4788017  60.8883972  57.4019127  11.6018515  49.7867737
  56.6918526  10.9627419  49.8466873  58.0750618  11.1638660  49.2659378
   9.1666594  55.1320763  30.2569389   8.7462893  55.9766426  30.0949936
   8.9470100  54.9254913  31.1654053  72.5825729  57.3959427  66.5645065
  72.1227951  57.3544235  65.7259827  72.7157974  58.3312263  66.7185593
  83.2266998  70.8849716  57.4729958  82.9304504  69.9788208  57.3872032
  82.5850525  71.3945923  56.9782143  20.1803131   8.7229671  88.4337997
  19.6199722   8.2908039  87.7892151  20.8842926   9.1132717  87.9158096
  45.3830109  53.0294762  86.5729523  44.9933815  52.1605949  86.4756622
  45.6961136  53.0516777  87.4772186  67.7747192   9.6771908  50.2751045
  67.2156906  10.4243431  50.0618324  67.3337326   8.9267273  49.8768997
   0.9553784  35.0803185  73.3161469   1.2754875  34.3937874  73.9013214
   1.5626909  35.8086014  73.4465714  77.2924652  37.1321869  50.3522072
  77.6134872  37.1807747  51.2526588  77.2784042  38.0414925  50.0535469
  75.9231949  21.3675766  10.4040594  76.5983810  21.6137428   9.7717972
  76.3341751  20.6909351  10.9420977  49.1825180  62.3622971  84.9874496
  49.9175797  61.8747940  85.3592758  48.9762535  63.0246201  85.6470032
  16.5470257   5.4373903  69.2533951  16.2351418   4.7140164  69.7971649
  17.3155518   5.0853777  68.8042984  83.6077499  10.1549530  23.3940601
  83.7135010   9.4126740  23.9890976  83.6261292  10.9235458  23.9642868
  61.1166420  68.6977921  43.7789955  61.1324806  68.2826080  44.6413231
  60.3981285  69.3281784  43.8298378  16.5174561  31.0987968  42.7658806
  15.8235235  30.4835720  43.0029221  16.7720432  30.8427315  41.8794022
  61.9343948  17.6942558  22.2992573  62.7313805  17.6519222  21.7708092
  61.2560349  17.9795609  21.6871605  25.8729839   0.6773159   3.3354337
  25.6565952  -0.2055186   3.6354520  25.5735703   1.2502809   4.0413332
  29.0499916  55.5548935  11.4153833  28.7857952  55.1046829  10.6130486
  28.7540779  54.9799728  12.1211691  80.5799408  49.5753136  53.7409172
  81.3056030  49.7431679  54.3421440  80.6180878  50.2961655  53.1123047
  84.0184708  27.3288956  22.9151726  83.5589218  27.2320538  22.0811062
  84.4819870  26.4994507  23.0309620  61.3428764   4.6097574  86.6547089
  60.8157387   5.3845787  86.4597397  60.8944016   3.8950326  86.2027435
  42.0679588  29.2431068   8.8887320  42.7689095  29.8926506   8.9434690
  42.1754227  28.7079220   9.6750269  69.2350006  29.3141041   6.5162711
  69.6672516  30.1019154   6.1865087  68.3087234  29.5508785   6.5629978
  15.9405069   6.9631057  53.1335258  16.6007538   6.6621513  52.5092392
  16.0098400   6.3532929  53.8680687  14.8058825   4.9233260  23.5063190
  13.8821211   4.7092071  23.6368942  15.1872454   4.1254115  23.1400871
  36.8776207   9.6537151  82.9342117  36.6850624   9.5504265  83.8661346
  36.0254364   9.5822687  82.5042038  72.1558456  44.2537422  39.9003944
  72.3296356  44.4453163  40.8219872  71.2021408  44.1949425  39.8437004
  67.4459229  55.1517220  47.9193573  68.3090134  54.7378960  47.9121819
  67.5339661  55.8996010  47.3284607   0.5745579  47.8290825  59.1731186
  -0.3335307  47.5874519  58.9908485   0.9053802  47.1193428  59.7236214
   9.4682608  20.5439434  79.2691574   9.1320114  20.0557861  78.5175858
   9.8419495  21.3395653  78.8902512   3.3178856  37.8444443  55.7396927
   3.0672946  38.7226295  56.0264473   2.6537802  37.6049500  55.0932884
  11.6365986  47.0163803  62.7010689  12.4055738  46.8527031  62.1550674
  11.7037210  47.9413033  62.9382210  61.0955925   2.6355724  70.7132034
  61.6962929   2.4852567  71.4431305  60.6377945   1.8020416  70.6042099
   7.3848510  70.7855072  22.2549400   7.4825530  71.4450989  22.9416904
   7.9020934  70.0411148  22.5624733  64.2763672  62.6663475  16.9971123
  64.4566879  63.6049995  16.9456749  63.5402908  62.5968208  17.6050510
  42.7283936  56.5901985  38.7587242  42.9072952  55.9928246  38.0325203
  41.9919243  56.1907158  39.2216034  84.2052689  13.7711773  30.3985271
  84.0205307  13.0875769  31.0425720  84.3643723  14.5566578  30.9219170
  56.9739494  13.2517185  59.0874481  57.4676628  14.0355806  58.8465347
  56.0987549  13.5758324  59.3000832  17.7803917  32.5496826  72.3682785
  18.5130310  33.0805779  72.0558319  17.2208023  33.1672173  72.8391724
  26.0688457  55.0164566  47.0145149  26.9518795  54.7921906  46.7209358
  25.8596020  55.8256226  46.5479317  61.2623787  68.2104187  15.0220079
  60.5761490  67.9640350  14.4018364  61.0489578  69.1098251  15.2705116
  74.1363678  19.4130821  14.0891018  74.3052979  18.6253071  13.5722828
  74.9441528  19.5532112  14.5831470  31.0505962  18.2647419  81.4008484
  31.0221806  17.8804588  82.2770615  31.1910858  19.1991768  81.5535736
  14.0308638  58.0152931  87.6834412  14.5754185  58.7895927  87.5414886
  14.2513056  57.4311600  86.9578857  14.8348083  55.7113304   0.2880589
  15.4583349  55.5253334   0.9900921  14.9704723  56.6371346   0.0862820
  38.5372009  10.7543726  49.6389656  38.8578682  10.6866074  50.5383072
  37.6275978  10.4600592  49.6861916  86.6713791  15.9722424  49.9556541
  87.3145065  16.6359558  49.7064514  85.8276749  16.3525791  49.7112236
  70.7358932  28.0972729  55.6166840  71.2268906  27.2911263  55.7756805
  70.7829285  28.2233963  54.6689949  25.8615322  61.0280991  10.9558277
  25.2729378  61.7666283  10.7997255  25.9837933  61.0157585  11.9051075
  34.6700783  16.3871803   9.9822378  34.9718933  17.2165833  10.3526850
  33.9817696  16.0944538  10.5795441  82.4061890  58.6213303   8.2764854
  81.9208145  58.2221298   8.9984856  82.5620651  59.5216980   8.5615635
   6.9838948  29.5398045  63.5073166   7.3749504  30.0128498  64.2418442
   6.0547042  29.4790630  63.7290077   2.6586156  14.3558311  70.0448074
   2.0488327  14.3011665  69.3090057   3.3728735  13.7640629  69.8084259
  60.6711235  64.2573242  44.4795456  59.7779198  63.9170303  44.4283638
  60.5766525  65.1174393  44.8888283  81.6096115  44.2938156  38.0701256
  81.4952698  45.0998459  38.5735855  82.5454102  44.2667236  37.8706589
  46.9788818  25.8575649  11.7752342  46.5422249  26.7078209  11.8264885
  46.4209137  25.3361626  11.1981373   8.7620878  54.1571693  81.4998474
   8.5078993  55.0770378  81.5737534   8.2369871  53.7095337  82.1632690
  27.1769657  48.5760956  87.0867615  27.6999950  47.7770729  87.1518402
  27.3780842  49.0599136  87.8878250  65.4050064  29.2683048  20.2504959
  64.8392639  28.5981541  19.8669987  66.0439682  28.7760544  20.7659016
  32.8332100  53.7369041  87.3416061  32.5459671  54.6473083  87.2717209
  33.7879066  53.7822876  87.2893906   4.1416645  68.6824341  80.7306976
   4.2887254  69.3279190  80.0393524   4.8867521  68.0853348  80.6633148
  50.9398689  18.0127373  16.3132687  50.9552422  17.1234837  15.9594021
  51.8563652  18.2091312  16.5074291  52.6680489  64.1181183  11.4066963
  51.8179512  64.4996262  11.1875639  52.6859436  63.2857628  10.9343672
  31.4201775  22.8738899  84.8305817  30.6679478  23.4552383  84.9420090
  31.2006474  22.0969238  85.3447418  52.6125641  58.7458115   9.3954830
  52.3976097  57.9026260   9.7943163  51.7978706  59.2463531   9.4397821
  10.6622343  65.6965332  40.9493599  11.3506031  65.9365158  40.3290482
  11.0961790  65.7017670  41.8025284  84.9680481  62.3470612  83.3073196
  84.5409546  63.0312386  82.7918320  85.8953552  62.4208870  83.0817490
  77.1993942  55.6187363   3.4199059  77.8530350  55.9464302   4.0376420
  77.6759109  55.5231400   2.5952699  33.1191101  15.3813419  87.7329407
  33.4712486  16.2057877  87.3974991  33.1371269  14.7895555  86.9808121
  78.9625702  43.9090157  19.1709003  78.4322586  43.5659332  18.4516621
  78.5842514  43.5145950  19.9567356  36.5306625  11.1005325  60.5934143
  35.7221298  11.4118614  60.1864967  36.5392609  11.5144663  61.4564400
  60.2105026  14.3302679  43.2993088  60.7041893  13.5428247  43.0703163
  60.4746246  14.9772329  42.6451607  52.6875954  63.9726257  32.1285057
  52.4405746  63.2822990  31.5131531  52.0866241  63.8629036  32.8654099
  63.5388947   6.5886559  80.2823181  63.3979301   7.5339313  80.3353806
  63.7025986   6.4226484  79.3539505  80.3786163  56.1981392  59.0136147
  81.2144089  55.7378998  58.9370422  80.4349365  56.9054451  58.3711357
  51.3898773  18.0093822  45.3574753  52.2264137  18.2493553  45.7560387
  51.5944557  17.2522335  44.8087463  47.4420891  19.2785053  21.4533939
  47.0632820  19.9517956  20.8882256  47.8319817  19.7663040  22.1788387
  71.2076263  11.3236065  18.8218784  71.6140671  11.4786139  19.6745281
  70.6440506  10.5623446  18.9600410  66.0904770   7.5214400  64.9500122
  66.5037460   6.8345528  64.4269257  65.6133423   8.0532351  64.3130112
   6.6065640  60.8885384  85.3882370   6.1469455  60.4842987  84.6523209
   6.1618605  61.7262764  85.5173416  77.4350891  15.8901043  50.7487488
  77.1879501  15.3077679  51.4671059  78.3056717  15.5908384  50.4865150
  60.3580589  69.2021637  88.9043427  60.9018631  69.7827988  89.4366684
  60.2533150  69.6666794  88.0739899  16.4694118   2.1758018   2.1567340
  16.1239128   1.5278065   2.7707081  16.5386696   1.7054876   1.3259273
  82.8384247  53.8007355  47.7633553  81.9684143  53.4306107  47.9127541
  82.8826828  54.5538979  48.3524399   2.2418468  50.9037056  86.8230743
   1.6992867  51.6899757  86.8834305   2.3299270  50.6034698  87.7276917
  76.9077988  40.5726433   3.8570461  76.0812073  40.0998306   3.7600038
  77.4055252  40.0571251   4.4916625  30.8629017  66.9266815  33.6056137
  31.2012749  66.2474518  34.1890297  29.9988194  66.6088409  33.3437576
  14.6639509  21.7638168  56.5961266  15.3788338  21.6216412  55.9756775
  14.2334862  20.9116440  56.6649284  83.7830505  47.4928246  88.9274216
  84.4018097  46.8792305  88.5313416  83.5704498  48.1061592  88.2239609
  38.9645805  32.4291344  26.2521420  39.1558647  33.3544846  26.4050102
  39.1354675  32.0069695  27.0940475  16.3720989  30.0353451  77.0398788
  16.5404530  29.3360214  77.6714172  16.9007359  29.8014565  76.2769470
  59.4664650   3.3168116  77.9234924  58.6827240   3.0466883  77.4449463
  59.1320915   3.6945081  78.7369919   8.1390886  69.7756195  13.7914238
   8.1884899  68.8321915  13.9455261   7.2153039  69.9392242  13.6014624
   8.9742451  38.7395020  11.0085020   9.2646465  39.1259918  10.1823521
   9.4529400  39.2241135  11.6809855  80.6253891  45.8385429   0.8350642
  81.0039749  44.9934578   0.5927232  80.5260239  45.7926254   1.7859850
   2.8398788   3.0992756  44.0209198   3.2171540   2.2495625  43.7931404
   1.8966221   2.9799607  43.9101830  33.6780128   8.2145500  44.6146202
  34.0576897   9.0816078  44.4721718  33.0603218   8.1019211  43.8921242
  86.0375366  24.4333000  35.3899345  86.2302475  23.6818829  35.9507065
  86.8891449  24.8427162  35.2370491   2.3465953  34.3570595  56.3510246
   1.6348197  34.9334984  56.0729485   2.3440320  33.6466866  55.7094727
  50.4708214  62.2137566  67.3120193  49.9225464  62.5340691  68.0282745
  49.9511719  61.5212250  66.9038620  70.8268890  40.6192513  27.5966053
  70.7125397  40.7161293  28.5419998  71.4596710  41.2977448  27.3611107
  52.4653511  38.1451492  11.4512205  51.6133308  38.0783157  11.8822918
  52.2938004  38.6547394  10.6593113  47.9134102  57.5199318  49.3702393
  48.1174316  57.7850075  50.2670898  46.9581413  57.4630775  49.3487282
  55.4879227  11.0635376  76.0929565  54.5772743  10.8547478  76.3011703
  55.6996078  10.4978046  75.3504105  19.8425732  45.3309555  68.1874313
  20.0562782  44.9646645  69.0455627  18.9138145  45.1330681  68.0671005
  37.3624878   9.2284718  53.8313904  36.6173096   9.8090000  53.9860649
  37.1625633   8.7984657  52.9999123   3.5482090  22.6234894  58.5068474
   2.6839299  22.5116386  58.9027557   4.1461339  22.1783047  59.1072884
  26.3351860  65.1949921  60.0824928  27.0668926  65.2632294  59.4691582
  26.3247967  66.0370331  60.5375748  55.9232292  40.4675789  75.2733841
  54.9813309  40.6180573  75.3534927  56.1442566  40.7922401  74.4004745
  79.6221313  39.6208611  87.9419022  78.9276505  40.2421875  88.1607132
  79.6978531  39.0637093  88.7165527  60.6854210  34.2451973  30.1407146
  61.5597038  34.3809090  29.7754078  60.5371857  35.0095673  30.6974888
  40.6572762  59.0382385  24.9622154  40.9247017  58.8725166  25.8662357
  39.8172112  59.4904175  25.0400143  45.6356888  55.7212257  75.3002090
  46.3591919  56.3169098  75.4949799  44.8630409  56.1573410  75.6594467
  82.9312592  25.5212383   7.0843277  83.6126175  25.6023006   7.7517223
  82.2821579  24.9359226   7.4745874  40.9542923   7.2882094  35.7107582
  40.0032692   7.3836460  35.6590271  41.1120377   6.3611298  35.5322304
  17.9805050   5.7086792  41.2449379  17.2717266   6.0501847  40.6997414
  17.7262650   5.9370861  42.1390419  47.8543968  20.3654308  25.6299152
  48.3303566  20.4643784  26.4544773  47.9784355  19.4469967  25.3904896
  32.7772255  70.1215515   0.5527434  33.0424309  71.0231781   0.3711710
  33.0393982  69.9731293   1.4612951  65.3888474  11.4640293  25.0368366
  64.5932159  11.9396515  25.2755432  65.9567642  11.5476007  25.8028126
  30.4682732  15.4329319  52.6456108  29.5625591  15.5334997  52.9385262
  30.9912109  15.5549326  53.4380035  51.5032997  68.0048523  65.7458496
  51.9614449  68.7649765  66.1043854  51.3698082  68.2192078  64.8225555
  46.8786888  26.2633266  20.9213104  47.5288696  26.9256611  21.1554241
  46.5509949  25.9419575  21.7612934  38.5924301  24.6689129  29.6443081
  39.3703384  24.1781635  29.9093685  38.6575050  24.7242947  28.6909294
  79.4382095   5.2404613  26.0514450  80.1140289   4.6168680  25.7856789
  79.2143326   4.9841871  26.9461174  25.9506550  40.4518661   4.7408042
  26.1763992  39.5257530   4.6537113  25.5806541  40.6891937   3.8905053
  38.8476181  59.1515617  13.3196125  38.1133842  59.1544914  13.9337139
  38.8941498  60.0517769  12.9976215  24.7285404  51.5901413  83.1936111
  25.6658020  51.4041634  83.1371765  24.4801559  51.8410721  82.3039093
   0.5567443  41.6500626  73.2269745  -0.1028641  41.6595345  72.5333939
   1.3325549  42.0409660  72.8250504  46.0023422  53.9877052  69.8730545
  46.4032059  53.5075111  70.5975876  46.4241905  54.8467140  69.8925476
  37.5360069  61.0002899  72.1286545  36.6496277  60.8138466  72.4381790
  38.0944443  60.8368187  72.8886948  84.0988235  10.1365175  16.3941059
  83.8523026  10.0413513  17.3141079  84.9332581   9.6733332  16.3205872
  58.0996246  54.0362930  58.2571297  58.5300331  54.8457832  57.9819794
  57.1665611  54.2498703  58.2591286  61.7492828  38.6614799  76.6978607
  62.5818748  38.5012321  77.1420975  61.6350098  39.6109657  76.7384567
  62.0388298  66.8586426  50.6323662  62.6652489  66.1361465  50.5895996
  61.4834785  66.6499939  51.3835564  83.1050415  21.6222897  56.4760590
  82.9272156  20.6877575  56.5821762  83.9285660  21.6556358  55.9892998
  62.0600662  56.4396172  32.6961174  62.6830788  56.1706467  32.0210266
  62.5854607  56.5080757  33.4933052  69.1658859  20.1780453  55.5042267
  69.5187149  19.9931831  54.6338387  68.9997635  19.3150673  55.8835754
  69.4867859  26.5890903  25.8885632  70.4333496  26.5422382  26.0229206
  69.1278000  25.9284821  26.4809780  73.8619690  63.7353897  43.5193024
  73.3421707  63.4016075  42.7881126  73.4115601  63.4132729  44.3000755
  81.1172791  14.1402121   8.3004265  80.3063431  14.5503674   7.9997826
  81.7053986  14.1917591   7.5469708  41.4436455  63.9425545  36.4989052
  40.5758591  63.8978615  36.0974312  41.6482620  64.8773041  36.5236244
  17.3372841   7.6892052   2.5669949  16.4874897   7.9359002   2.2019985
  17.1502171   6.9277158   3.1159680  71.5682068  57.9983940  20.7126541
  71.1113281  57.7169609  19.9200058  72.3311539  57.4228516  20.7664833
  15.3831625  30.7846966   9.3234081  16.0245171  30.4292889   8.7081175
  15.3117046  31.7095642   9.0873022  72.4955292  25.3370647  71.4541473
  72.3356018  24.5309219  70.9634476  72.3525314  26.0373726  70.8174744
  69.2696991  28.9465237  75.9082565  70.2084885  29.0717602  75.7696228
  68.9334946  29.8261414  76.0799332  20.9328728  46.5026016  56.7251892
  21.3749485  47.3347359  56.8935738  20.6188335  46.5762901  55.8239784
   6.1586375  32.5818825  64.3036270   5.4744868  32.5783348  64.9730759
   6.8847213  32.1008301  64.7006531  70.9530563  14.9733572  79.1312027
  70.7321320  14.6770096  80.0141525  70.1722412  14.7815571  78.6118088
  76.5311050  48.2448158  48.1649742  76.7325058  47.4064026  48.5805855
  77.0897064  48.8767853  48.6175270  81.4140015  63.3645172  12.2300205
  82.2566452  63.7943420  12.0836124  81.0347824  63.8287621  12.9762754
  78.1599274  62.3776855  50.6831856  78.6846237  61.9736938  49.9920120
  77.3344193  61.8933067  50.6713295  58.6179657  43.9751625  48.0353203
  58.4046936  43.7621803  47.1268120  58.1894073  43.2903976  48.5488014
  59.2712517  13.4574814  83.0468521  59.1514053  14.1624861  82.4105835
  58.3943253  13.0939035  83.1694946  39.3508644  34.2592888  84.8630524
  39.8147697  34.0474739  84.0530167  39.5191116  35.1917877  84.9985962
   2.6832366  49.0774040  67.8801346   2.7924623  50.0212212  67.7638931
   1.8075763  48.8939247  67.5398560  57.9684868  23.1371326  85.5697327
  57.3389397  23.4799194  84.9353790  58.2124367  23.8962879  86.0992661
  53.3210526  47.7947235  51.0668526  53.4612617  47.0168800  50.5269203
  52.6451035  47.5335236  51.6922302   6.8940287  67.9781265  57.8287697
   7.8058629  68.0418472  58.1128998   6.4680939  68.7421494  58.2174606
  29.9446106  57.2381477  21.0533619  29.0281906  56.9772339  20.9620972
  30.3948002  56.4394302  21.3283329  52.5903511  17.2063065   7.8818893
  51.7387276  17.6358356   7.8014441  52.7883797  16.8994789   6.9970884
  14.5287552  18.4501896  41.6281624  13.8814411  19.0355206  42.0213623
  15.1097317  19.0310192  41.1369019  24.2885456   2.9808047  58.2627678
  23.4824657   2.5370748  58.5265350  24.4656715   2.6518474  57.3814964
  24.5270767  10.3021269  32.4856377  23.6313457   9.9680128  32.4380531
  24.8368244  10.0346575  33.3509407  58.8964386  31.3390179  84.5634689
  59.5762482  31.6305847  83.9559479  58.9201164  31.9792824  85.2746124
  60.0862885  17.3776264  71.2448120  60.1479263  16.4757042  71.5594025
  60.9767265  17.5970078  70.9705429  23.9657288  22.5764427  86.5289993
  23.3581696  23.0431385  87.1028442  24.3685913  21.9162254  87.0929565
  26.3558712   4.6951652  15.3315916  26.4055557   4.1895313  16.1428242
  26.0364151   5.5551925  15.6045961  53.6010818  19.4749870  75.9831924
  52.8916168  18.8679657  76.1939468  53.5171585  20.1753941  76.6301956
  15.1836796  60.2037659  13.6797361  14.8168154  59.3913383  14.0284548
  15.1508570  60.0929260  12.7295418   7.4523249  34.0097618  32.8401909
   6.5196505  33.9495659  33.0468979   7.4883275  33.9777718  31.8842049
   0.2466965  21.3521748  51.5534897   0.1721730  22.2231712  51.9434204
  -0.4131951  21.3428822  50.8601723  48.9100380  55.0155411  32.3095398
  48.1651230  54.7828064  32.8637657  49.6747818  54.7008858  32.7916107
  54.7977715  24.3389359  74.6994629  55.0750580  23.5845814  74.1795731
  55.1497383  25.0954819  74.2304306  32.4649277  60.1786041  44.4063683
  33.0105591  59.9199142  43.6636734  31.5844707  60.2601891  44.0398026
  27.4872894  59.0653000  74.9856339  26.8887272  59.3394966  74.2908173
  27.4585133  59.7795372  75.6222382  75.5968933  40.9012032  56.2114029
  75.9903488  41.7728004  56.1696167  74.9420090  40.9003296  55.5132942
  32.2460709  64.8972702  87.5841141  32.3731651  65.2921982  86.7214966
  31.3117828  65.0056610  87.7618561  30.1797581   5.3995862  18.4792538
  30.3244190   5.4021740  19.4254551  30.0189743   4.4808540  18.2640533
  16.3291512  43.3335762  27.1152840  15.9325342  43.0269775  27.9307137
  16.2016010  44.2821426  27.1287498   3.9700253   9.6342430  16.4543686
   3.3937716   9.7060289  15.6934414   4.6312399  10.3129835  16.3189507
  17.0439205  57.7500725  30.8351307  17.2052345  56.8077431  30.8822861
  16.0977669  57.8251915  30.7111034  66.1315231  38.3675232  54.1884727
  65.6736298  37.6013985  54.5343399  67.0309296  38.0686836  54.0543709
  67.9050369  35.0880737  76.4365463  67.2379074  34.5534439  76.8670578
  67.7421570  34.9668922  75.5011215  77.1029816  37.6755371   8.5467148
  76.3859406  37.6163025   7.9153914  77.7670670  37.0728035   8.2121563
  60.0575256  66.5331802  48.5344849  59.2124252  66.7935181  48.9009056
  60.6957512  66.7848358  49.2019920  29.1843777  66.9069672  15.8485250
  28.6584740  66.9417648  15.0494967  29.8088570  66.1982727  15.6935635
  13.1348181  61.7083817  49.7340698  14.0626450  61.5172806  49.5967712
  13.0211830  61.6739502  50.6838760   8.0393019  33.9937782  40.7115097
   8.7002821  34.6012993  41.0435600   7.2290726  34.2605896  41.1457596
  71.5526810  71.4640808  23.1370869  72.1512756  72.0969162  22.7403069
  71.6659698  70.6685410  22.6169777  13.5376310  47.5742416  65.6480942
  13.2932501  48.2251778  64.9902267  13.1228905  46.7647934  65.3497391
  14.1097260  46.8969460  34.1120911  14.8427286  46.3104057  33.9252510
  13.7177715  47.0706100  33.2562637  71.0857697  57.3715973  40.9869194
  70.3896332  57.2671051  40.3382988  71.3320312  56.4765320  41.2202759
  66.1338272  36.0131836  34.2660599  65.5625992  35.5785179  34.8993034
  66.8688965  36.3349419  34.7879562  19.3554153  67.5905991  13.6199722
  19.9395390  67.9760971  12.9669609  18.8830051  68.3368378  13.9890099
  39.7857437  48.1916008  67.5127335  40.1825676  48.4827614  68.3337021
  39.9673309  48.8995590  66.8946228  72.0843353  41.7155762  71.4484253
  71.3041153  42.1740074  71.1364517  71.8578644  40.7876396  71.3861389
  75.9139481  59.9832153  82.1797867  75.9575195  60.8825798  81.8550110
  76.6248322  59.5301285  81.7263718  11.7608662   5.9742532   2.5539305
  12.5550957   5.6542959   2.9817834  11.8240042   5.6474218   1.6564748
  31.8151817   3.6483052  34.4052010  32.6041145   4.0664411  34.7501335
  31.6778336   2.8903828  34.9734612  75.2929535  26.5058022  65.6237640
  74.8631058  27.3499317  65.7612610  76.0517654  26.5256252  66.2068939
  34.1227150  67.5350266  78.5555344  34.5530205  67.8558884  79.3480759
  34.6193542  66.7535095  78.3130188  80.1835556  40.8992691  46.0339470
  79.9873276  41.1742325  46.9295578  79.3384552  40.9241486  45.5851593
  47.6761513   6.0753193  81.6164856  47.6112442   5.8476372  80.6890259
  47.6821365   7.0324278  81.6283035  23.7132664  43.3004608  11.6903114
  24.5381813  43.7181778  11.9378204  23.6628342  42.5222931  12.2454195
  42.2327881  14.9419127  66.8793411  42.1362000  14.5052500  66.0330353
  42.8742104  14.4106674  67.3511353   5.1930952  45.8305016  53.7832222
   4.5907788  45.3132820  54.3179474   5.2099485  46.6897888  54.2046165
  30.3220749  62.7943115  79.5150070  30.6508808  63.3657570  80.2089539
  29.8127289  63.3739815  78.9486313  86.3176041  51.2288589  24.8313141
  86.3570557  52.0151825  24.2869148  85.7316742  51.4646530  25.5505619
  18.9490356   4.5300536  68.0727463  19.8437004   4.5823636  67.7364883
  18.7755871   3.5916388  68.1470718  59.6909752  18.3145657  75.6324387
  58.9272537  17.9830818  76.1047516  60.3968849  17.7114582  75.8652039
  43.5277824   2.0062129  33.0395317  43.2976494   1.6153349  32.1966324
  43.9941864   1.3125069  33.5058746  60.2647934  47.2332649  28.5923424
  60.1439476  47.5481796  29.4881420  59.4977989  47.5562096  28.1194153
  56.5908012  41.6273804   6.1272674  57.2243576  41.1409492   6.6547322
  56.4040565  42.4129219   6.6413555   7.3362818   4.6825848  54.7582283
   7.4950686   5.1186714  53.9210625   7.0681081   5.3870516  55.3481789
  76.6770782  22.1182384  39.5978622  77.5750961  22.3958244  39.4169121
  76.1500320  22.5659409  38.9360352  77.6168442  13.5581675  26.5324211
  76.9723740  14.2495670  26.6836376  77.0928802  12.7765217  26.3571377
  82.2269211  22.4072819  48.4612312  81.5414124  22.7135677  49.0549431
  81.9463501  21.5289497  48.2042427  48.7497292  44.4521599  82.9807663
  48.6200142  44.5128746  82.0343399  48.4867439  45.3100471  83.3140793
  71.9881210  71.4903564  42.1283226  72.4129562  70.6350632  42.0634117
  71.5352707  71.5969543  41.2917862  44.9868774  11.6021214  83.5486679
  44.7481651  10.7266846  83.8533936  44.7167625  11.6180611  82.6305084
  20.1920853  14.7907677  88.1120987  20.1708164  15.2337198  87.2638245
  20.8964481  14.1479559  88.0290375  53.0079689  29.2445583  10.4758358
  52.8934746  29.0273438  11.4010067  52.2055817  29.7090340  10.2377834
  18.2384605  68.2876892  62.5186005  18.6621647  68.8231964  63.1893730
  18.9423428  68.0664597  61.9088135  16.3808918  13.3253994  75.2446213
  16.8572426  12.6970654  75.7873154  16.2582340  12.8753538  74.4087677
   0.2526555  26.9802094  50.2953644   0.4888617  27.9070396  50.3331070
   0.6635576  26.6608429  49.4920006  77.9909592  35.6413193  48.2102356
  77.5851517  36.0444374  48.9777336  78.2122498  36.3785858  47.6412926
   7.0428238  15.1823626  37.1972733   7.3203502  14.3087997  36.9214096
   7.8494234  15.6976414  37.2080917  77.8862228  16.6145859  44.0979652
  78.5115967  16.3613605  43.4189796  78.1644211  16.1274204  44.8735352
  48.1809349  58.2475471  17.7248745  47.8360023  59.0997810  17.9912338
  47.7091713  58.0396652  16.9183636  23.0443077  48.7788849  49.7216339
  22.1406918  49.0149574  49.5119171  23.0536556  47.8220367  49.6974487
   5.2547464  11.6505804   3.6794698   4.6980820  12.2692146   4.1523848
   6.1340837  12.0235491   3.7418575  27.5208931   3.1054869  72.8681030
  27.5216694   4.0446715  72.6832733  26.8125725   2.7556031  72.3276520
  38.1691704  62.9478722  35.6423149  37.2317963  62.7572594  35.6773720
  38.2625771  63.5564880  34.9094467  21.4103336   0.8468259   5.6067023
  20.9508133   1.1969062   6.3699303  20.7869320   0.9432306   4.8867664
  55.7964935   5.6787539  33.6173096  55.9971809   4.8565030  33.1702538
  56.6489868   6.0931039  33.7507286  65.5885239  49.7595139  78.8047333
  66.2936096  49.3145256  78.3345490  65.0915375  49.0524635  79.2162170
  54.4499855  65.1951218  30.2160873  54.7235832  65.9651642  30.7144985
  53.4951897  65.2559586  30.1862373  52.7207298   7.8270278  34.5161324
  52.9777908   7.9381285  35.4314537  51.9504967   7.2597833  34.5508308
  28.8327045   0.5311560  20.4976006  29.1685009   0.5578426  21.3935699
  27.9051132   0.3162897  20.5957680  64.9095688  44.9144630  80.2886734
  65.4681015  44.6898117  79.5444946  64.2972183  44.1820602  80.3582611
  70.2080460  57.4703751  64.7425385  69.9785080  57.9459343  65.5409012
  69.9925842  58.0755768  64.0329361  25.4028511  14.8498755  22.2098980
  24.6103153  14.8924627  21.6748219  25.3926487  15.6610050  22.7180290
  36.5463486  37.2200127   2.6152947  36.2973595  38.1342201   2.7511692
  37.4035873  37.2656441   2.1918690  16.5056934  21.3483467  13.5074854
  16.5863762  20.4983482  13.0747910  16.8691425  21.9723835  12.8792219
  45.7942657  19.9109936  29.5933590  45.7918701  19.1254578  29.0464039
  46.4368439  20.4881516  29.1807861  73.6110764  68.5728760   9.9952984
  72.9578094  67.9759827   9.6303434  73.3741608  69.4311295   9.6438723
  15.0854025  39.8010445  12.7904968  14.3598652  40.2509346  12.3575668
  15.8661070  40.1049347  12.3274822  70.1207581   3.9029944  67.4040451
  70.7555618   4.6107759  67.2931595  70.6103363   3.1073213  67.1956024
  49.4979019  30.1077156  27.3571663  49.8032494  29.6987228  26.5474033
  50.2055626  29.9562073  27.9836578   2.6271291  38.4942017  19.0986366
   2.0408752  37.9708252  18.5521812   2.6193006  38.0537376  19.9484367
  74.5862885   1.9610929  79.6446991  75.4164276   2.2970836  79.9826508
  74.8273468   1.1732064  79.1575012  47.0247116  53.6357727  55.2339973
  46.7486458  53.0592995  54.5214691  47.9805489  53.6387138  55.1830406
  11.9606438   2.8980703  72.0135880  12.7522917   2.9520128  71.4782257
  11.6244106   3.7940195  72.0349045  86.0127182  12.1183834  52.6247215
  86.0862656  11.6526194  53.4577179  86.8027649  11.8736353  52.1428909
  19.6177444  67.5717239  44.2894630  19.7762203  68.1580505  43.5496368
  19.3734379  66.7384796  43.8866539  85.3159409   8.1386414  18.8820362
  84.8906784   8.9790297  18.7113571  86.2452393   8.3037243  18.7226791
  85.5827789  56.4534531  18.1312695  85.3647995  56.1946831  19.0266762
  84.8531647  57.0097008  17.8583603  63.7914963  33.1816978  43.6238976
  64.5047379  33.2796669  42.9930840  64.2100906  33.2915077  44.4776840
  56.3297310  27.0458889  69.7909927  55.6182480  26.7896309  70.3778076
  56.1996498  27.9840050  69.6522522  79.9403076  70.7474136  52.6863251
  80.0297852  71.1072464  53.5687904  79.7486191  71.5069580  52.1362534
  71.8949432  21.0542355  59.1376534  72.6280899  20.8992386  58.5420799
  71.2167664  21.4443989  58.5862236  71.7790909  36.2575378  71.2047043
  71.3792648  36.0116425  70.3704987  72.0027084  37.1823158  71.0997620
  33.1146660  65.7681351   0.8713266  32.7846336  66.6581955   0.7484297
  32.8017807  65.2886276   0.1042528  66.3297729  45.8259659  40.2607040
  66.2682495  46.6294899  39.7441826  66.1773758  45.1230087  39.6291504
  57.9517059  45.8919983  81.8806000  58.8266258  46.0423851  81.5226440
  57.7093964  45.0220261  81.5633163  18.2099991  50.4610786   4.6122260
  17.3447285  50.0718689   4.4855285  18.8006706  49.7118301   4.6894684
  51.5827751  66.6926193  35.0471573  50.7798538  67.1854477  35.2164688
  51.8664932  66.3929443  35.9108315  80.1677551  59.0670967  17.6519737
  80.4800339  58.1640930  17.5945835  79.2331009  58.9856911  17.8418083
  23.8183994  12.2426748  13.3780270  23.6193295  12.8959217  14.0487518
  22.9682446  12.0252008  12.9956999  45.0856323   0.9633531   5.5771351
  44.7342415   1.3995641   6.3533292  44.3937187   0.3591031   5.3081164
   2.2731063  67.8037720  43.3012009   2.6857986  67.7762604  42.4379768
   2.4546158  66.9440765  43.6809616   8.1200876  24.2167892  48.0137787
   8.0613966  24.6281128  47.1514549   8.4892464  23.3506336  47.8413620
  41.9722443   4.4366407  27.6500454  41.9820671   4.9913144  26.8699989
  42.8585358   4.5064983  28.0047855  86.5712662  64.6426239  71.4278641
  86.9511642  65.1114883  70.6848450  85.6573410  64.5020752  71.1804504
   3.1101124   3.8381646  38.8723831   2.5598090   4.5387788  38.5223312
   2.9771893   3.8796964  39.8194008  14.5671453   9.2701330  75.0329819
  14.6415863  10.2070122  74.8514633  14.8199377   9.1834211  75.9521103
  59.1709175   5.8960838  79.1004486  58.5023193   6.1399884  79.7405396
  59.0133667   6.4771600  78.3563004  11.7601480   8.5363760  27.9298420
  11.8692141   8.2878799  27.0119171  11.0581274   9.1869926  27.9200592
  83.8480072  18.2047195  59.3392563  84.5961685  18.5290356  59.8405533
  83.1899109  17.9927502  60.0012321  86.3131943  20.2770710  30.7283287
  86.3125458  21.0893860  31.2346649  85.7154999  19.6988945  31.2023544
  47.8584213   9.9152985  37.1087151  47.4027405  10.2206211  36.3242607
  48.4762459   9.2589607  36.7866211  25.8676281   5.6473465  62.9569321
  26.3870926   5.1449366  62.3292618  25.5165672   6.3775201  62.4471931
   9.0020857  22.7178059  74.7343063   9.0879517  21.9588356  74.1574020
   8.0582266  22.8207035  74.8558502  29.3790512  25.2755966  84.5286636
  28.9956245  25.9777069  85.0542603  28.7142792  25.0804691  83.8681793
  71.2263260  65.9373550  30.3332329  72.1338425  65.6744308  30.1798344
  71.2565079  66.8934631  30.3675919  81.6046066  34.3021011  18.1626740
  81.4508972  35.1901932  17.8403435  82.4042969  34.3716164  18.6841145
   2.0328131  53.0708237  59.5688286   1.6719394  52.3312721  60.0577698
   2.9806406  52.9872475  59.6730843  34.4077034  56.4538956  88.6227036
  34.6618004  55.8256111  89.2986603  35.2083473  56.6007690  88.1190872
  31.9617786  54.1581383  76.1800995  32.5476418  54.0424004  76.9281693
  31.5735245  53.2938690  76.0439835  16.6734085  10.9708176  77.2984085
  16.4729843  11.5092106  78.0640411  16.0661259  10.2333755  77.3585663
  34.9359779  27.6764488  10.9604273  35.6645126  27.9174538  11.5326033
  35.1695099  26.8099842  10.6273584  77.7907410  46.8203735  16.1559734
  77.0526886  47.4230576  16.2469826  78.4480743  47.1526260  16.7673264
   1.5229728  55.7771797  55.0865059   2.0015230  56.0559235  55.8672295
   1.9560207  54.9673538  54.8165474  58.9816437  25.5125828  11.4704266
  59.4004936  25.9619026  10.7363243  58.2451591  25.0450916  11.0763788
  50.6627083  53.3077888  52.3977432  50.7000618  53.4802361  53.3385429
  49.9211884  52.7116661  52.2927666  10.1718168  23.9676285  67.4342270
   9.7350197  24.7767639  67.1682587  11.0893154  24.1014347  67.1964798
  45.5786209  70.2419891  64.3317566  45.2091408  70.6480865  65.1158524
  46.4263420  70.6713028  64.2164841  23.5466232  68.5558548  53.1840553
  23.9543991  69.0627975  52.4819489  22.6990795  68.9783249  53.3233910
  67.3013229  51.9316711  36.9206924  66.5428314  52.4268684  36.6113358
  66.9283142  51.2338943  37.4594002  80.0133362  11.3091021  11.0020895
  80.4266281  12.1409769  10.7710028  80.1040039  11.2526999  11.9533148
  55.7136879  65.0351562  40.4622307  56.3509865  65.1741180  41.1627846
  55.6334114  64.0835800  40.3967514  36.1685066  45.6701241  19.2498226
  36.8292046  45.8164749  18.5728474  36.1034775  44.7176514  19.3190994
  69.2692719  39.9056435  25.1745663  69.8967972  40.0763550  25.8769188
  69.8116150  39.6874466  24.4166183   8.0756168  28.4218292  82.3227768
   8.4784489  29.1774483  81.8949966   8.7607861  28.0774765  82.8956604
  29.5260067  27.0761833   8.6473846  28.6678619  27.0145950   8.2278290
  29.8716660  26.1840649   8.6177778  78.9988861   1.2898350  50.2961655
  78.3725204   0.6290746  50.0007172  79.6291351   1.3599597  49.5791512
   8.7573366  63.7365417  22.4031296   9.0366812  64.0309601  21.5362301
   9.5686827  63.6709709  22.9067650   8.0123796   1.5392504  38.0760422
   7.5557342   1.2583978  37.2830544   7.4616723   2.2344830  38.4360504
  71.2977142  47.5238571  29.9255772  70.3756714  47.3016663  30.0548096
  71.5935898  46.9277115  29.2376060  85.1258545  56.4417038  63.1591606
  85.3874741  56.7796440  62.3026619  84.8235626  55.5507469  62.9829597
  45.0573082   8.3617973  48.8307915  45.0301285   8.0294447  47.9335518
  44.7130585   7.6441936  49.3625526  21.5743027  11.8419027  75.9003448
  20.9881992  12.4487076  76.3525696  21.0796413  11.0239868  75.8497849
  65.7887802  49.5841026  67.8260803  66.2822647  48.7987747  67.5895004
  66.2292557  50.2936935  67.3584366  38.7164536   4.8013387  67.9948654
  37.7649536   4.8698516  67.9161987  38.9878883   4.3243270  67.2106400
  56.3654289  35.2633362  66.2172089  56.1873436  35.2995338  65.2774200
  57.2282639  34.8539848  66.2818909  18.6964645  10.8355379  72.4580460
  18.7114220  11.4333267  71.7106094  19.6073837  10.5610476  72.5634689
  51.7700424  28.9416332  15.0592766  51.4339943  28.0454254  15.0700378
  51.1740265  29.4277725  15.6290751  36.6058350  22.3600349  11.3681622
  37.5317154  22.1173725  11.3778610  36.2697182  22.0560493  12.2112818
  29.9544945  29.2845688  11.6708431  30.1648006  29.1318512  12.5920811
  29.1198997  28.8350849  11.5379953  48.2165565  55.2389412  13.8355303
  48.0761681  54.3208885  14.0672798  47.3350029  55.6028328  13.7537794
  72.6354294  14.1349936   4.7400017  72.1397400  13.7826309   4.0008364
  73.3306122  13.4941969   4.8894401  14.8505936  53.9326363  85.1450272
  14.4005575  53.5504761  84.3916016  15.3981123  53.2234726  85.4819870
  16.5119686   0.2112709   6.5508857  16.4005146  -0.0229377   7.4722738
  17.3493404   0.6740295   6.5209837  17.0343914  46.2382202  79.0113678
  16.7697392  45.4730453  79.5219574  17.8308849  45.9604645  78.5589523
  77.0975723  64.6335602   9.3314066  76.1641083  64.6263733   9.1196737
  77.2061234  63.9197350   9.9598217   2.7412834  34.5532913  30.7209225
   3.5959847  34.2164001  30.4521809   2.8919156  35.4839668  30.8863926
  31.3427467   4.6753597  20.9093647  31.5452099   3.7426105  20.8371239
  32.1750374   5.1152310  20.7360535  40.0839653  58.3097878  34.7769661
  39.8174744  59.2122459  34.6015205  39.7391357  58.1236992  35.6502914
  59.8587456  19.4655628  85.9244156  59.4993820  19.7435074  86.7669373
  59.7754669  20.2360554  85.3626022  64.0011292  28.3985119  86.6974106
  64.8407059  28.1978168  87.1110153  63.8962631  29.3427582  86.8141708
   0.2245825  43.3835602  40.6543770  -0.0740308  43.4272461  41.5627556
   0.0765600  44.2646866  40.3109589  69.4574203   3.7895005   3.9171124
  69.8187485   4.3599629   4.5955281  69.5745392   2.9040539   4.2613506
  23.4491673  44.0507011  24.9221706  23.1306763  43.1481094  24.9109669
  23.4933186  44.3005829  23.9992180  28.1549969  67.5530014  29.2124519
  27.2957172  67.2986679  28.8760262  28.4726887  66.7749634  29.6706676
   2.6426847  22.7715702  74.9670029   2.3438966  22.2709198  74.2078476
   3.1208351  23.5115528  74.5927963  86.6562729  53.7241707  42.7779236
  85.9351807  53.1343079  42.9977531  87.1056595  53.2926521  42.0512390
  25.7678185  51.6515274  66.0829163  25.3429585  51.1893883  65.3603134
  25.0689335  51.7909241  66.7219467  47.2563972  36.6802292  38.2562828
  46.9108047  37.1066093  37.4720650  46.5122414  36.1950760  38.6127815
  78.3936844  45.4062080  67.2722244  78.5852432  44.5825310  67.7206497
  77.4380646  45.4378166  67.2272491  73.0722046  38.1344337  68.2297058
  72.2971725  37.9971542  67.6849899  73.8099976  37.9794312  67.6399078
  66.6033783  45.3407936  53.5610771  67.0218964  44.5007133  53.7490616
  67.3066254  45.8846588  53.2062798   7.8071980  42.1417007   9.4328480
   8.4054270  41.4873161   9.0721054   6.9340515  41.7967606   9.2461271
  18.8903542  17.4450169  34.3324661  18.7806263  18.3306046  34.6787720
  18.8078213  17.5466995  33.3842659  53.8770332  44.7888565  70.8539505
  53.8425636  43.9602280  70.3760223  54.6365395  44.7017136  71.4299545
  62.8960571  60.8642311  52.2389870  62.3174477  60.7114105  51.4919357
  63.0187683  59.9982872  52.6279755  37.0453758  18.1246147  27.3665295
  37.9113579  17.9502583  27.7351856  37.1302071  17.9010963  26.4396667
  11.6647358  59.9880676   6.1191378  12.3335485  60.6166801   6.3907385
  11.7787457  59.9113426   5.1718535  31.0533237  20.6852970   4.7341852
  31.9176216  20.4892521   4.3725362  31.2180977  21.3530197   5.3999391
   3.6709344  45.3823090  11.2025948   3.9945126  46.2819824  11.2485867
   3.8053162  45.1257935  10.2902498  79.6126556  17.2732944  29.4003410
  79.0203934  16.5990505  29.7332840  79.6279449  17.9393024  30.0876789
  79.5576935  26.3493443  19.3348885  78.8577652  25.8980865  19.8068008
  79.9998550  25.6573143  18.8431377  11.7168427  27.0788097  69.3250656
  11.9211226  27.4010124  70.2029572  10.8112478  27.3501511  69.1750565
  69.2192383  52.4659386  13.0233994  68.6268692  52.6309662  13.7569485
  69.9366455  51.9593964  13.4041557  57.5854340  68.2471085  40.7457809
  57.2860947  68.7314987  41.5151978  58.4751091  67.9719696  40.9671516
  60.4651642   5.0484209  10.6661940  60.7147408   5.7666011  11.2477093
  60.6556740   4.2562270  11.1685543  79.0888062  68.0552139  72.1376801
  79.4915161  67.3809662  71.5904694  78.4199142  67.5888596  72.6390152
  10.6220083  68.3649597  43.3505363  11.0546484  68.5121155  44.1916046
   9.7468290  68.0543289  43.5824890   3.5940924  64.4547195  37.1248207
   3.6802583  63.6568909  36.6030159   2.6565726  64.5225830  37.3056068
  46.7747383  10.0405312  44.0350990  47.3869820   9.8730545  43.3186226
  47.2085342   9.6822748  44.8095093  54.1870728  31.9799194  69.7468109
  54.8116875  32.6951561  69.8673325  53.3829765  32.2916107  70.1621552
  32.4108162   0.3355424  57.8049088  33.1809502   0.3611170  57.2370415
  32.0744247  -0.5558012  57.7122765  77.4149933  39.4876633  17.3691769
  77.2148438  39.9804573  18.1649933  76.5989304  39.4986877  16.8690262
  68.2559128  35.1821823  62.7998466  67.4232178  35.2495461  62.3326073
  68.4309769  34.2421188  62.8429909  77.5554810  19.7606392  54.2011070
  77.4724197  19.8214817  53.2494583  78.4651718  20.0002613  54.3779335
  18.2694130  32.9709358  78.1516876  18.8092575  33.0172310  78.9407730
  18.5177460  33.7446938  77.6458588  63.9072189  65.1844025  22.6070118
  64.6569672  65.5368652  23.0864658  63.4740334  64.6040192  23.2329006
  72.0988159  27.2860489  69.5192413  71.2372742  27.5496864  69.1960297
  72.6754608  27.3698769  68.7598495  16.0129929  39.1180801  79.6901932
  15.9588003  38.3902359  79.0708923  15.1106682  39.4250526  79.7785721
  20.1841469  71.0234833  55.6594276  19.3297348  70.9100723  56.0757828
  20.7144337  71.4708786  56.3188705  85.2974396  46.1151848  31.4450588
  84.8091202  46.6005211  32.1100540  85.9185486  46.7520065  31.0916195
  49.5566101  13.4030352  45.5860672  50.3247795  13.2432957  46.1343651
  49.6164818  14.3297577  45.3540459  62.5824280  64.7982407  32.5880585
  63.3564262  64.9291840  32.0403214  62.8199730  65.1793289  33.4333878
   2.1125581  25.9245567  24.1314545   3.0051196  25.5897579  24.0449963
   1.7382445  25.4241772  24.8565350  32.6938248  52.4759979  84.4871979
  33.0263481  53.0591927  85.1695023  32.6621323  51.6144333  84.9030533
  60.3930359  33.6711159  56.7651062  61.2727242  34.0241280  56.8983917
  59.8426056  34.4430618  56.6333580  73.0675278  69.5131989  40.8791962
  72.7780991  68.7506790  40.3781586  73.9870148  69.6238174  40.6372604
  54.3192711  57.9996872  69.6879349  54.1960106  57.6561584  70.5728226
  54.5118217  58.9284973  69.8162537  11.0208492  25.0947266  79.3426056
  10.3884506  24.5988407  78.8226013  11.2950611  25.8096619  78.7682266
  50.3691750   2.2965074  88.2614899  49.6845436   2.6629758  87.7018356
  49.9372787   1.5842643  88.7330933  36.0901108  13.4568825  55.8091927
  36.3449631  14.3308191  55.5133591  36.8599358  12.9132986  55.6415100
  82.6184769  21.7889347  15.7083426  83.4615707  21.3359623  15.7238550
  82.7724457  22.5630875  15.1668510  76.1049194  31.6227932  40.5866165
  75.6883545  31.3625984  39.7650299  76.9630508  31.1992817  40.5646896
  69.8115616  22.1196938  31.6474648  69.2261734  22.8199081  31.3589306
  69.7852631  21.4778709  30.9378166  57.9531975  34.7476883  12.2955885
  57.9867058  33.8032570  12.4477606  57.2192383  34.8672905  11.6928997
  51.3097649  28.1833229  69.6508331  50.9594421  27.3884220  69.2487869
  50.6923065  28.8705311  69.4003830   0.4590577  31.9466724   6.0893078
   0.3019937  31.3363514   6.8097734  -0.4108467  32.2708817   5.8560977
  23.3397102  68.8540649  47.4250793  23.4139652  68.6808014  48.3635330
  24.1861019  68.5892334  47.0649147  37.5353127  58.0200958  84.0328674
  38.4661064  57.7974091  84.0491562  37.2263756  57.6963959  83.1866913
  13.0000677  53.7797737  87.9683151  13.5389462  54.5708542  87.9739227
  13.1903906  53.3543930  88.8044128  73.3579102  39.7475471  43.5583725
  73.0150070  39.5750389  44.4352379  73.7270889  38.9105530  43.2766266
  75.3687515  36.5732803  20.5141907  74.7978439  36.5016518  21.2791481
  74.9033966  37.1645775  19.9225464   3.6328368  70.1114578  83.2524948
   3.9108005  69.4449844  82.6241837   2.8788395  69.7228622  83.6960144
  54.5901375  15.1729479  82.7684708  55.1623840  15.9222498  82.6032181
  54.9516068  14.4714470  82.2267456  32.8554649  42.7171326  10.5134859
  33.6258965  42.4509468  10.0116768  32.8752060  43.6739120  10.4931440
   0.2147004   8.7513266  40.7957230   0.7515521   8.2583380  40.1752510
  -0.5393711   9.0412979  40.2823753  64.9122696  20.1518745   7.8336158
  64.7282944  19.2624760   7.5313692  64.1022949  20.4324322   8.2595949
  85.6746216  67.0977631  32.8330231  85.6753540  67.7146530  32.1011276
  85.6960449  67.6518097  33.6132812  35.9973831   6.1428180  55.9145660
  36.0953560   7.0588236  56.1745033  35.1358833   5.8904171  56.2467384
  50.5909500  10.7178001  71.9767380  50.7582741   9.8111553  72.2340927
  50.9135208  10.7749062  71.0773392  57.2388077  10.0860310  88.5137634
  57.0492783  10.5705576  87.7103043  57.7570267  10.6926165  89.0426636
  29.2498608   3.2803841  28.3471851  29.9562340   3.0127769  28.9351120
  29.6489964   3.2792463  27.4771729  79.3556290  31.3650627  72.6954346
  79.6817932  30.5701599  72.2735596  78.8661041  31.8172741  72.0083389
  72.1605835  31.1730003  79.8411102  72.9863586  31.0397205  79.3757477
  71.5065231  31.2613888  79.1478348  25.2749977  65.1727448   0.8816668
  24.8902397  66.0000076   1.1712072  24.5227318  64.6110687   0.6949875
   7.1041288  25.7544975  50.1583328   7.0336142  26.6215324  49.7589455
   7.5220757  25.2149239  49.4872055  68.4398804  31.5952835  39.2596054
  67.9227371  30.9601097  39.7549400  68.2544327  32.4350128  39.6799507
  10.8772516  29.1221676  53.8597794  11.1719790  28.3652534  54.3661842
  10.6805887  28.7681999  52.9924469  22.6445332  31.4366150  83.0748444
  21.7271576  31.7073936  83.1113892  22.7147236  30.7397041  83.7272415
  53.4417038  37.7934608  76.5663910  52.5755348  37.9077301  76.1753387
  53.4147758  36.9200363  76.9570770  34.6298180  69.9299774  47.0459824
  34.8050766  68.9999924  46.9022751  34.2989273  69.9755249  47.9430161
   9.7166901  59.1125908  65.4291382   8.9883127  59.1682549  66.0476913
   9.4590607  58.4231339  64.8171692  39.1159096  55.7727242  84.4585571
  39.4655685  55.6795273  83.5723877  39.8901711  55.7881660  85.0211487
  73.7414627  34.1949234  29.1792240  73.6218643  34.7688065  28.4225273
  73.6471786  34.7735176  29.9359074  25.0725441  65.9383163  22.8325710
  25.2165813  66.1089706  21.9017830  24.9336205  66.8042374  23.2161369
  74.7834625  45.9749641  79.5257797  75.5504150  45.8026276  78.9795990
  74.1977386  46.4815903  78.9632111   7.1233368   7.7159004  53.7343750
   6.9808326   7.5999265  52.7949753   6.4390473   8.3272858  54.0067520
  85.4952774  16.5251675  43.3521881  85.7099380  17.1264648  42.6390305
  84.7505493  16.0210094  43.0244179  12.0060997  34.6926765  26.0213394
  12.5654316  35.1677742  26.6358795  11.7961111  35.3346443  25.3430958
  51.7154961  34.7061348  34.6118355  52.4939690  35.2428627  34.4630470
  50.9828911  35.3142776  34.5134201  35.6462479  49.7828102  66.0731506
  35.8347473  49.8219414  65.1355057  36.2003441  49.0737724  66.3994598
  22.5737686  64.0941010  30.5941811  22.1538219  63.4919319  29.9799595
  21.9832821  64.8464355  30.6335793  65.2383270  33.7621422   2.2380362
  64.6773758  33.0648460   2.5776553  65.7320328  33.3488007   1.5297713
  57.6874542   2.9013073  72.7246170  57.8710175   3.5849135  73.3689957
  57.0933876   3.3154666  72.0986862  76.2021255  34.0265617  37.8046112
  76.1130676  33.2924805  37.1968155  77.0260696  33.8598709  38.2624016
  15.2720213  42.3614197   5.5703888  15.8939838  42.9635010   5.9789152
  15.7283602  41.5201569   5.5542908  12.0547810  12.7928753  22.3798122
  12.2449656  11.8867750  22.1368237  12.2329788  13.2963219  21.5854454
  36.7835922  14.0699482  74.9060440  37.4640503  14.3707085  74.3037567
  37.1592255  14.2012072  75.7766190  76.8718414  30.4000931  86.6688004
  76.0566406  30.1974239  87.1277237  77.5608521  30.1775150  87.2948532
  62.8273888  12.7336092  42.6593781  62.3189507  12.3622856  41.9383736
  63.2241402  11.9753122  43.0881004  86.9742661  20.9766254  42.8850479
  86.5216751  20.1536865  42.7002106  86.2724380  21.6217251  42.9717407
   5.1409168  38.0254364  86.6636658   4.5478973  37.4137917  87.1000748
   5.4335084  38.6134186  87.3600159  54.4675636  49.7492714  20.9439583
  53.7126656  50.2575493  21.2406273  54.5138321  49.0117950  21.5524158
  29.1923313  33.7810402  22.6792622  29.7331600  33.7565804  21.8898716
  29.5893288  33.1334763  23.2617455   1.2661985  64.0920334  34.2572212
   2.1059108  64.5117493  34.0702667   1.4904289  63.1804085  34.4440346
  13.2259474  37.8418045  70.2411194  13.4832563  38.3918686  70.9810181
  13.1816912  38.4443626  69.4986954  10.3388195  43.6743927  28.0516090
   9.9147720  42.9774246  27.5509548  10.2342453  44.4563484  27.5095387
  78.0822601  62.0993347  20.9475460  77.3339462  62.5936623  21.2820721
  78.8392258  62.4801865  21.3927155  78.3152466  53.0232582  20.8016090
  77.4420471  52.8229790  21.1387119  78.6244659  52.1965256  20.4312954
  30.3651047  67.7646255  64.6551361  30.3498592  68.2144623  63.8103561
  29.4431839  67.6091461  64.8603668  66.7215347  17.9623795  55.8289375
  66.3558502  17.8014050  56.6987610  67.6015320  17.5875912  55.8659706
  19.3366375  52.0105934   9.6154127  18.4677486  52.1609535   9.2430449
  19.1713943  51.5107574  10.4148445  17.3824406  46.0821075  27.8451080
  16.7777119  46.4128838  27.1809368  17.7676277  46.8686867  28.2313156
  30.3002205  42.1816559  82.5802155  30.2705116  42.9182091  81.9696045
  30.3934345  42.5883331  83.4417038   5.2459011  46.0769615   7.1223893
   5.5142169  46.9565163   6.8566384   4.5029488  46.2201004   7.7087045
  37.5215797  48.0930710  30.7461491  36.7526932  47.5583458  30.9439163
  38.0256386  48.0979805  31.5598640  39.1099968   4.2074499  88.2602615
  38.8407326   5.0838652  88.5352631  39.9494400   4.0663929  88.6980591
  51.1385460  58.6795120  64.8067703  50.7092056  58.5842514  65.6569672
  52.0214386  58.3363609  64.9445190  65.6623688  21.5676937  31.2250023
  65.8266144  20.6851158  30.8928699  65.5026779  21.4455605  32.1608505
  86.5372009  71.2117767  13.9976664  86.5533371  71.4234390  14.9310303
  86.3380585  70.2760010  13.9676943  61.6969872  27.0971146  29.0884686
  61.9427605  27.8505306  28.5516338  60.9659653  26.6962261  28.6182270
  12.7700834  64.0269547  21.3218613  12.8898191  64.5829773  22.0917530
  12.4191570  64.6155624  20.6535606  12.4431372  67.7731323  88.4485092
  12.2779064  66.8325500  88.5135574  11.5777111  68.1743774  88.5276871
  35.4922981  27.8247910  86.3690643  34.5516701  27.8505955  86.1936035
  35.7060204  26.8920574  86.3927612  85.7604752  34.6954575  29.3413658
  85.9452591  34.1605721  30.1133671  85.4313889  35.5215836  29.6955528
  64.6283035   2.3343821  77.7795410  65.0533905   2.1375089  78.6142731
  63.7945747   2.7359829  78.0241928   4.9406462  21.8798008  52.7284737
   5.2030058  22.6855698  52.2833481   4.0842695  21.6686878  52.3566093
  18.6097603  53.2027893  76.9153442  19.3420486  53.5586243  77.4187012
  18.9954033  52.9524956  76.0757751  63.3099518  42.5094452  80.4325256
  62.3554611  42.4469223  80.4681931  63.6175003  41.6570015  80.7407227
  21.1748466  30.1535320  -0.0815503  20.4186039  30.3609028  -0.6304806
  20.8340416  30.1723518   0.8127257  25.1335583  46.2029839   7.4084115
  24.6280537  45.8995514   6.6543388  25.6186295  45.4303398   7.6981721
  70.8155518  21.8893223  74.2710571  71.5235748  21.3904552  74.6785583
  70.8335724  22.7371368  74.7150345  13.3732004  19.3972321  56.5268860
  12.5284033  19.5969238  56.9302139  13.1492081  19.0184841  55.6768188
   9.9118004   6.6226373   9.2279978   9.0271072   6.9306254   9.0312881
   9.9091091   6.4745145  10.1736631  17.1820469  53.7843437  73.7547684
  17.9843864  53.3057518  73.9631729  16.5163574  53.1038322  73.6547852
  21.0159435  16.4848251  81.3331909  21.0642281  17.0508957  82.1035614
  20.4592648  16.9633255  80.7188797  28.2829151  53.7886810   4.2218890
  28.5228634  53.5976295   3.3151610  27.7325039  54.5696983   4.1645141
  64.1390152  24.2194061  67.9894638  64.8436890  24.0423813  67.3663101
  63.5562363  24.8218384  67.5272141  41.9180336  41.8248901  79.8629379
  41.5842743  42.1770668  79.0378265  41.7261810  40.8881645  79.8185806
   9.3022223  56.2005730  23.6903305   8.4952450  56.6111031  24.0009441
   9.7404232  55.9008598  24.4868126  20.8726997  11.7567339  35.7279358
  21.5539265  12.2394905  35.2598457  20.1210079  12.3493071  35.7348938
  15.5115404  52.2387886   3.1058228  15.4585962  51.3154259   3.3524652
  15.1022749  52.7052231   3.8346403  44.4275513  63.9702988  24.6219769
  43.9232025  63.6846581  23.8602180  44.7079887  63.1572456  25.0421371
  74.1487503   9.7527122  60.4170151  74.5067139   9.5925512  61.2901917
  73.4063568  10.3382292  60.5662003  57.5605049  66.8672180  20.1883068
  58.1864815  66.4651184  19.5860634  56.9568558  67.3470306  19.6211891
  83.2912979  25.3287487  67.1817322  82.4290695  25.7426834  67.1436615
  83.1381683  24.4971886  67.6303864   5.1349030  20.7321358  65.1511307
   4.7353597  20.4865379  64.3166962   4.5326557  21.3754215  65.5249100
  72.3653564  39.5800438  46.0700226  72.1782913  39.7761345  46.9880562
  71.8541412  38.7923737  45.8843727  27.0503254  64.0298386  75.8184586
  27.3133945  63.3242645  76.4093781  27.7033539  64.7155304  75.9585114
  26.4266949  65.0141907  51.5856438  25.7088318  65.3532486  51.0509033
  26.5443745  65.6704178  52.2724838  60.0464287  64.8702927  29.0160236
  60.5182686  65.0367050  29.8320560  59.6329231  65.7070084  28.8035393
  76.0445099  37.8952179  32.7660446  76.7851868  38.1654892  33.3088074
  75.9465866  36.9596558  32.9431534  17.4107723  11.2413940  21.2300339
  17.8680916  11.2916822  22.0694180  18.0027466  10.7459373  20.6640644
  62.7575989  13.3454084  59.2847862  62.1744614  13.2810993  60.0411224
  62.7404327  12.4717169  58.8941460  69.3922577  59.3265457  34.9712524
  68.7710724  58.7344818  35.3953018  70.1567841  59.3241501  35.5472069
   4.1041245  48.6787148  23.3441601   4.3000441  48.8741035  24.2604961
   4.9511228  48.7321625  22.9014759  63.3563576  28.8504086  52.2338333
  62.8737335  29.1094551  51.4488487  63.5601387  27.9254589  52.0953674
  63.7011147  61.9469337  10.0677967  64.1408463  61.2592163   9.5678835
  64.2639999  62.7143860   9.9657555  45.0055008  42.3286781  14.1259594
  44.7401047  43.0821648  14.6532650  44.5040016  42.4151268  13.3152447
  81.1172104   0.3603502  17.8350830  80.6435318   0.5722379  18.6394215
  80.6118088   0.7834359  17.1409645  33.5200195  25.4673977  28.5067787
  33.1956024  25.7971344  29.3447876  32.8494072  25.7225227  27.8732014
  54.8453178  24.4028950  77.4640274  54.1587410  24.9537354  77.8400879
  54.7009697  24.4519119  76.5190430  26.8473339   2.4630432  31.4403534
  25.9815273   2.7322817  31.7471428  27.3907051   2.4609540  32.2283745
  21.0679874  69.2630692  27.9132843  21.7751694  69.7593307  28.3254166
  20.2666512  69.6794205  28.2306900  63.7423820  38.1543579  78.4168472
  63.9855423  37.4345551  77.8346100  63.6935158  37.7541351  79.2849808
  64.6891708  60.6108665  68.1009674  64.3858032  59.7147713  68.2466125
  63.9339447  61.0608521  67.7223206  74.5593872  21.2889671  76.1823578
  73.7357407  20.8486004  76.3919144  74.2937393  22.1356506  75.8234787
   2.0897093  24.8853359  10.8641567   1.9461111  24.5025768   9.9986467
   2.9509139  24.5622368  11.1290436  53.5752525  64.2003021  50.1797562
  52.8211555  64.7897797  50.1890984  53.9742355  64.3354034  49.3202286
  73.8779144  57.4369507  37.6437187  74.4051666  57.1671104  36.8917694
  74.4690628  57.3558922  38.3921890  82.7930527  35.7557678  83.9896698
  82.4323730  35.9453316  84.8558121  83.5735321  36.3066368  83.9294205
  43.1198502  71.4355316  54.1847382  42.7044106  71.0651093  54.9634743
  42.8887672  70.8309937  53.4794960  55.4414253   8.4293995  82.0668030
  55.2493477   9.3392096  81.8396835  54.5820236   8.0283670  82.1965561
  53.8493347  50.9486580  69.9436264  54.0249214  50.8705025  70.8813324
  54.6777191  50.7154007  69.5245819  65.6623306  20.0064068  37.9017372
  65.5519562  20.9541035  37.8248024  64.8173218  19.6444225  37.6349792
  41.7728348  69.0548782  84.9053345  41.5782318  69.6663055  84.1950455
  42.7268600  68.9771729  84.8998337   1.8836067   5.9195995  35.3039284
   2.2425063   6.1057324  36.1715546   1.3562275   6.6899471  35.0925789
  10.8019581  47.8292503  57.6933861  11.6035023  48.2162895  58.0454636
  10.6262264  48.3271294  56.8949738  25.8119106  43.8970070  78.6780777
  26.1239033  44.0800171  79.5643082  26.0300503  42.9764061  78.5326996
  57.2639809   2.7632201  58.9800377  57.6611328   3.3027844  58.2963905
  57.9493141   2.1402595  59.2218475  15.3586311  56.8141251  85.3493195
  15.9826660  56.8167801  84.6235046  15.1603460  55.8885155  85.4913177
  11.7500458  25.0317020  37.1491585  11.2440987  25.1434765  37.9539948
  12.6632824  25.0834885  37.4312057  39.1404724  12.3338861  38.9038086
  38.4083977  12.6571426  38.3786392  39.7008400  13.0995064  39.0304794
  52.4876595  37.1501160  72.4374313  53.1917725  37.0335312  71.7995758
  52.9074593  37.0091133  73.2860336  46.8508644  68.2831421  51.9236526
  46.4759102  68.9331894  52.5178528  46.1368904  67.6664352  51.7619629
   6.2466264  67.3670120   3.2067499   6.1990604  68.1563339   2.6673603
   7.1817465  67.1699066   3.2608864  17.7090244  62.9316978  75.3958130
  18.3875008  62.5167351  74.8631668  17.5909824  63.7962570  75.0023270
  33.3794441   6.8809638  83.7743759  33.6071663   6.1449218  83.2063828
  33.0106010   6.4735489  84.5580826  47.0306740  48.5911484  29.7757969
  46.7905922  47.7873039  30.2366962  47.8813782  48.8324203  30.1422997
  71.2094727  49.6809998  88.0272064  71.8667374  49.3904037  87.3949203
  70.4603043  49.1047440  87.8758698  15.9084110  49.1411781   9.6729879
  15.8382893  50.0688591   9.8982105  16.4240856  49.1287842   8.8666649
  81.8139420  54.0175171  76.9906311  81.2221909  54.3704529  77.6550827
  81.8723221  53.0838852  77.1934967  70.9725800  55.7583313   5.4543548
  70.8498383  55.6539803   6.3978996  70.9533539  56.7049255   5.3135624
  59.9285278  40.0744247   5.3973866  60.4854546  40.7936974   5.6952329
  59.1814690  40.0863609   5.9957137  12.6252480  11.3702927   2.1804008
  11.8788834  10.7812958   2.2911031  13.3538837  10.9156551   2.6030433
  80.8334198  21.0422020  29.0815144  79.8987350  20.9227695  28.9132175
  81.1721802  20.1538887  29.1927471  58.6520386   7.8787513  77.4559326
  57.9118767   8.3433495  77.0653610  59.1292610   8.5525923  77.9401093
  62.2616539   5.2092123  37.8656158  62.0555344   4.8180771  37.0166397
  61.6572189   5.9474621  37.9422836  16.5825901  57.3222466   4.3762364
  17.5026989  57.4545174   4.1479077  16.3175373  58.1444397   4.7885146
  44.3867340  34.4632339  13.9206553  44.4633751  33.5804329  13.5586815
  43.7568398  34.9025307  13.3492680   4.0281544   1.5751407  53.1759644
   4.6307807   2.3162465  53.1140366   4.3176169   0.9731253  52.4903870
  81.8115158  60.8767052  71.6662674  81.6211777  61.7578087  71.3443069
  82.6862946  60.9452515  72.0487595  50.0957260   4.1162205  46.1958351
  49.1770744   4.1049070  46.4645119  50.5702400   4.4006782  46.9769592
  15.4895163   4.2059946  66.5837250  14.7247190   4.4989614  66.0882568
  15.9165173   5.0149531  66.8656616  72.8062057  69.4750137   6.2371259
  72.7215576  70.4181671   6.0973601  71.9115448  69.1756210   6.3989158
  36.9996948   8.5259924  56.4383888  37.0574303   8.5660486  55.4837723
  36.4208527   9.2510300  56.6739655  69.0148544  60.1090546  49.6932869
  68.8160934  59.8395538  50.5900002  68.1663437  60.1115532  49.2502899
  57.1354141  57.8695068  44.0894051  56.3859863  57.9659576  44.6770134
  57.4606514  58.7614861  43.9676399  51.0219650  68.3201218  86.7908325
  51.6570053  68.6757812  87.4124985  51.3058243  68.6552658  85.9403381
  46.8994331   4.7053466  65.2884521  47.2078972   5.5486393  65.6200256
  47.2650871   4.6467886  64.4057846  49.2415962  70.8011093  18.5035000
  48.7233276  70.2590866  17.9086552  50.0502243  70.3061752  18.6353703
  78.8184433  54.2313385  65.3633347  78.2960815  53.4630814  65.5938797
  78.1760941  54.8804054  65.0764008  83.5618591  27.0534172   0.5914680
  83.8349609  27.1255188   1.5060439  84.3104248  26.6535339   0.1487880
  51.5686188  21.0418530   8.3732891  50.6870232  21.3807716   8.2178717
  51.4677353  20.4418468   9.1122389  45.6287117  56.3650055  13.6022110
  45.8314400  56.5792580  14.5128307  45.2797203  57.1779976  13.2368612
  19.0282059   1.5710751   7.1172805  19.6372604   1.8325471   7.8078728
  18.6451340   2.3933733   6.8118081  84.4722977  53.6068230  14.1406651
  85.0507355  54.3307304  14.3806505  83.6759415  53.7576370  14.6498861
   2.0603819  15.0475874  32.8283958   1.4881207  15.7638311  32.5531807
   2.6360097  14.8991365  32.0781631  56.7551422  35.4722137  63.5779724
  56.2804871  34.7318497  63.2000961  56.9693031  36.0272865  62.8281326
  68.6141357  31.4314919  86.0133362  69.3960190  31.9735985  86.1182785
  68.4510574  31.0747681  86.8864822  29.2675991   0.8448861  30.8001328
  29.0543404   0.2071059  31.4813004  28.6897335   1.5870632  30.9775486
  63.9612732  43.8982773   2.6706934  64.6643372  43.2725449   2.4963620
  63.1942291  43.5234070   2.2378616  36.8167534  46.5782623  81.7427444
  36.0901375  46.2694397  82.2839355  36.4176750  47.2085075  81.1429443
  21.0400162  28.3084850  84.6763229  21.4703560  27.6311092  84.1545944
  21.7539730  28.8745289  84.9697418  48.3622932  14.9065380  82.7195511
  49.0713501  14.2637386  82.7362595  48.1025352  15.0004902  83.6360245
  83.5948181  28.7291317  27.5392265  83.4663773  28.7730694  26.5917015
  82.7467880  28.4484024  27.8831215   3.9989991  52.4840508  67.2903976
   4.0255837  52.0516586  66.4368439   4.8630819  52.3209381  67.6685333
  15.3838577  12.7965183  14.1931772  14.7343006  13.4242754  14.5097666
  16.1883106  13.3078232  14.1056890  73.5437164   1.4813539  36.4088402
  73.0227890   2.1136155  35.9137535  73.1126862   0.6411301  36.2524147
  31.7607307  34.4733505  88.8439789  31.1982059  34.3042984  88.0881882
  31.6971416  33.6778793  89.3725739  69.5714188  50.1607018  81.2830963
  69.9526749  50.8554459  80.7462540  70.2709732  49.5130081  81.3687744
  43.2866516  11.4491806  38.0344238  42.4884758  10.9452744  37.8755989
  43.4701576  11.8770761  37.1980820  68.4309998  45.8879662   3.6775525
  68.7162552  45.0787163   3.2533195  67.6964035  46.1918297   3.1443825
  16.5880795  46.4085236   4.7185073  16.6211948  46.3824043   3.7622368
  15.6551733  46.4681931   4.9243164  55.2713661   1.4553688  83.2641449
  56.1946526   1.2740973  83.0883255  55.2557106   1.7605200  84.1712723
  60.4094887  67.6633682  41.3284111  60.7432175  68.2794495  40.6762619
  60.6367645  68.0588913  42.1699181  65.2064285  70.2753906  58.7596626
  65.3402786  69.4311752  59.1904945  64.2983246  70.5041046  58.9578171
   5.1325221  62.7702942  86.8138733   5.5963340  62.3484688  87.5371780
   4.2254229  62.4799385  86.9092484  58.3422775  31.8016376  47.7800293
  58.6321373  31.0173283  47.3141212  57.4843292  31.5668240  48.1336174
  78.1741638  68.7961578   8.7996864  77.3895645  69.1662674   8.3951454
  78.1325455  69.0849533   9.7113333  85.5090790  60.9755440   2.3468852
  84.6492462  60.7666130   1.9818261  85.9846878  60.1450386   2.3299949
  43.6526108  27.4812183  16.0745983  43.1731224  26.7109776  16.3796425
  42.9706421  28.1119995  15.8438015  55.4632759   8.7667074  47.3608932
  56.1635780   9.0201731  46.7595901  54.6821747   8.7137699  46.8101540
  42.1318245  59.0006256   4.7732539  42.8263016  58.3428726   4.7373109
  41.8792038  59.0320282   5.6959829  43.8291245   0.6157590  20.3531151
  43.8732147   0.0051713  21.0889626  42.9550781   0.4850246  19.9854450
   4.6546526  48.7690430  54.6316528   3.9859183  49.1809769  55.1787682
   5.4787569  49.1534958  54.9304504  41.9529953   0.4337094  85.4112778
  42.8454590   0.5246397  85.0774078  42.0303802   0.6014063  86.3504868
  22.8022575  31.1379089  25.2309704  23.3742256  31.7794800  25.6522408
  23.0290947  30.3057671  25.6460800  13.1099339  71.6594162   9.5142059
  13.3837671  70.9631271  10.1112185  12.3136759  72.0143967   9.9094219
  55.5833321  16.0035686  62.0925522  54.6600456  16.2533989  62.0556564
  55.9477272  16.3099499  61.2621460  66.6629257  60.3306122  78.1932144
  66.1293335  59.7482185  78.7338867  66.6806870  61.1566582  78.6764984
  26.6516514  28.8700504  13.4178047  26.4513206  28.2620850  14.1294756
  26.9839401  28.3133392  12.7136106  14.6191463  12.2828159  79.0613174
  13.9311838  12.3049574  79.7264862  14.1590300  12.0768366  78.2476196
  69.6647339  30.1609173  37.3998108  69.1875534  30.7523537  37.9818153
  70.2424698  30.7346573  36.8965416  47.4826202   4.5218182  15.8673763
  48.1479416   4.8646569  16.4640675  47.4052544   5.1894484  15.1858215
  15.2545290  19.2664013  84.4003448  15.2852058  18.3314686  84.1973877
  14.3363590  19.4356766  84.6113968  58.9667702  29.8313255  74.8098145
  58.1217575  29.3859406  74.8715744  59.4218292  29.5947895  75.6180267
  55.6290283  33.6387138  35.0379562  55.6357803  33.6918831  34.0822563
  55.0228271  34.3269958  35.3118515  84.9943542  13.9914246  79.8117371
  85.1036072  13.9705477  78.8610229  85.5421829  14.7215805  80.0998077
  46.3470879   3.3410795   4.1039968  45.8311920   2.7110579   4.6071467
  46.6217270   3.9941370   4.7476730   8.9365263  62.6093712  18.3282852
   9.3797216  61.7609711  18.3232956   8.0661077  62.4228325  18.6801472
   0.9414076  27.9740849   6.3244357   1.3000193  28.0428181   5.4396162
   0.3026707  28.6848412   6.3798761  18.2033787  36.6334076   3.5873182
  17.8317375  37.5145378   3.5457678  17.5000496  36.0620308   3.2789590
  45.3640060  16.7847919  88.1253281  44.9600945  17.3233128  87.4448242
  45.4406090  17.3693924  88.8793869  83.8583374  57.9210854  22.4515648
  84.6931839  58.3881760  22.4186268  83.2143097  58.5597954  22.1457634
  51.3185654   5.0365272  80.3377533  51.9362221   5.4702315  80.9265060
  51.5059052   4.1033421  80.4392471  14.3629684   1.8878096  68.2641830
  14.7990427   2.3935552  67.5784073  13.4416504   1.8771514  68.0047836
  12.6897774  23.5098553  73.2535477  13.2933474  23.0631371  73.8471603
  13.1797152  24.2707844  72.9418106  74.5881042  23.8927193  47.3378906
  74.6752472  24.8401890  47.2332916  75.0627213  23.5248032  46.5924988
  59.2861633  54.6574898  72.5109787  59.0279808  54.2753143  71.6722260
  58.7595825  55.4535141  72.5837021  84.6185226  42.0855827  13.5830297
  83.9045792  42.1935310  14.2114077  84.3793945  41.3069496  13.0802584
  14.2199688  28.6594162  78.0428543  14.9296494  28.0450211  78.2302170
  14.6411734  29.3729343  77.5635681  77.0165863  57.3148117  45.8505478
  76.8562698  56.5132217  45.3525658  77.7754822  57.7135620  45.4247589
  41.6176643  28.3481789  30.1929035  42.0128708  29.2199764  30.1895885
  41.0241547  28.3514023  29.4419250   6.6942739  21.6207466  39.8611107
   6.7372456  22.5338898  39.5772896   6.6356854  21.1196079  39.0476875
  45.9203720  36.1995430  15.4650297  45.5083733  36.2271690  16.3285828
  45.4490776  35.5104752  14.9967356  40.2447357  14.4886799  85.1748581
  40.0920448  14.0584927  84.3335114  40.9498405  13.9823904  85.5782547
  75.6837540   5.7600675  87.2981262  75.4253387   5.7824550  86.3767395
  76.5886154   5.4481292  87.2855835  61.9678307  25.3411961  20.4444294
  62.2381744  24.8093262  19.6959248  61.2948723  25.9243431  20.0932903
   4.5837226  14.5140514  12.0012522   5.4636941  14.5890856  12.3703747
   4.0213537  14.3404036  12.7561159  19.4909515  67.8441849  68.8652115
  20.0182209  68.5502930  69.2388840  18.5937519  68.0509491  69.1269684
  24.5423756  58.6240501  80.5688171  23.6783466  58.2169418  80.6316528
  24.5627003  59.0088348  79.6926041  12.9381227  10.8147621  67.3790054
  13.7585773  10.7924252  67.8715363  12.4888306  11.5976744  67.6974716
  59.8031311   9.9408598  60.0125656  59.0320358   9.3795662  59.9313393
  60.5264244   9.4020510  59.6920013  76.0828400  11.2071552  70.5193100
  75.8319702  12.0413027  70.9161606  76.8634644  10.9370003  71.0029144
  47.1748924  65.9954987  67.7080917  46.3222847  66.0113525  67.2733078
  47.7586136  66.4591217  67.1076355  18.5930996  49.3920403  31.0770664
  19.2627392  50.0524521  30.8990955  18.7717762  49.1050415  31.9725761
  70.4083786  63.0460014  70.9986572  71.0045395  63.7355766  70.7065735
  69.8251419  62.9021149  70.2534256  15.0635853  42.7935448  66.7637100
  15.3418894  43.5579681  66.2592926  15.2098846  42.0524483  66.1758270
   0.3253747  31.4575138  71.1189728   1.1872361  31.8231144  71.3183746
  -0.2874709  32.0113602  71.6026077  86.7281952   4.6983562  55.1188850
  87.3871307   5.2899833  55.4822273  85.9615173   5.2531004  54.9750137
   9.0531063  32.5294418  84.6621094   8.1249027  32.4853516  84.4324951
   9.3033428  31.6197681  84.8236847  72.8577118  55.1029091  46.8801193
  73.3242798  55.1501694  46.0456696  73.5039139  55.3753471  47.5316086
  29.6512699  12.3074389  57.4688225  29.4759254  11.8679514  56.6367531
  28.7866402  12.4350548  57.8591537   6.5162525  41.6412888  35.9277954
   6.7854218  41.5510025  36.8419228   6.3379254  42.5757408  35.8218040
  12.8884144  52.4472427  28.5298824  13.4141493  52.8167419  29.2393227
  13.5034103  51.9094734  28.0310669  24.1240616  13.3488874  42.3574944
  23.5547066  13.4748363  43.1165733  24.8795700  13.9110909  42.5288620
   8.8357096  30.8580399  54.3812370   9.6377745  30.3490982  54.2633286
   8.4884853  30.5660343  55.2240906  75.0289841  41.5901985  42.1598282
  75.7433548  40.9678268  42.0236282  74.4361115  41.1454849  42.7656059
   9.6063499  18.7297440  54.5193405   9.3509493  19.4330082  55.1163521
   9.4865675  17.9280624  55.0284500  10.3954372  19.4011974   4.0507379
   9.5163107  19.5843182   3.7193251  10.5774097  20.1194897   4.6566863
  49.9249802  37.9884186  13.0667706  49.3474960  38.6181030  12.6352139
  49.5480118  37.8767433  13.9394989  12.9326162   6.4286661  12.1469316
  13.7365618   6.4491830  11.6278152  13.1101332   7.0098925  12.8864555
  11.1298332   3.7758865  50.5012741  11.8551970   4.2419119  50.9170876
  10.5749846   4.4681687  50.1419449  10.2800026  18.3544025  32.7976112
  11.1209831  18.4876423  32.3603134  10.1765003  17.4034767  32.8330917
   3.3451047   3.7773993  12.4567928   3.3855429   4.3399105  13.2302122
   2.9120052   2.9804561  12.7626324  13.2390480  56.4833221   3.7485831
  13.0284672  56.8473206   4.6084619  13.7246380  57.1795273   3.3061676
  25.0197277   2.3207529  70.9778290  24.5745983   2.7965291  71.6790619
  24.9844513   2.9129937  70.2266693  86.2178421  49.4504509  33.8649940
  85.7156448  48.7164764  33.5109978  86.3627472  50.0258942  33.1139297
  51.6223602   6.9547114  19.2196445  52.0076599   7.6865029  18.7377148
  51.2698059   7.3515973  20.0161495  43.5009537   6.4732122  16.1933994
  43.4874535   7.4074273  15.9853315  42.5776749   6.2263865  16.2469215
  44.6912956  16.4385033  82.0219955  45.4159622  16.7804527  81.4983902
  44.2485504  17.2184677  82.3564529  29.2014694  42.9685097   0.0148891
  29.6425400  42.2653961   0.4916734  28.2819881  42.8901939   0.2691586
  56.0741463   2.3330636  79.2675171  56.5398331   2.7240162  80.0067902
  55.1479454   2.4442914  79.4820175  49.5623207  60.7884026  77.8535843
  49.7393723  60.2322731  78.6122742  49.7726784  60.2382545  77.0990524
  34.7333565  64.3161621   6.4272017  34.0723343  64.8649979   6.0052218
  34.5646477  64.4156342   7.3641510   1.1704173  23.0564594  36.9169464
   1.0258300  23.6464176  37.6567268   2.0798206  23.2111416  36.6614265
  74.1710510  11.2100153  38.5360603  73.7202377  10.5696239  39.0864258
  75.0720520  10.8907499  38.4860306  60.3525887  38.5191994  35.0480309
  60.2172508  38.0063858  34.2512016  59.8352776  38.0671234  35.7145500
  12.6595745  45.1228027  84.7343597  13.1618299  44.4581223  85.2057037
  12.3233356  44.6666145  83.9629517  59.0157661  44.3925476  36.6257210
  59.8352661  44.8869476  36.6109276  59.0830040  43.7950935  35.8809013
  27.9906445  17.0811634  69.6130142  28.3955326  17.1689358  68.7501144
  27.5599117  17.9228535  69.7622070  52.8780518  54.1429100  78.3673401
  53.0344620  55.0237541  78.0269318  53.6994095  53.6766548  78.2117462
  68.3522720  32.4867439  62.6556778  68.3865891  32.2132645  61.7390175
  68.6823120  31.7320633  63.1432915  14.7571077  42.0606766  77.4313965
  15.0020256  41.5632439  76.6511383  14.4410992  42.8981056  77.0921555
  26.2889061  27.0673790  22.5557995  26.9209347  26.6947956  21.9410210
  25.6378670  27.4955788  21.9999008  25.7991714  58.3808975  63.2990265
  26.4151478  58.4025879  64.0313797  25.8478355  59.2581062  62.9190674
  59.7798424  47.9143715  37.8190117  58.9684982  47.5850716  38.2056808
  60.4123840  47.2083931  37.9521294  64.7202454  11.3508625  52.9928741
  64.5446167  11.5357332  52.0702629  65.6502228  11.5484362  53.1039276
  63.8557434  45.0638809  54.0432167  63.7603378  44.1723595  53.7080688
  64.7842636  45.2653427  53.9270515  84.9824142  47.9411888  47.0090599
  85.4642029  47.2095947  47.3949127  85.6263046  48.6468964  46.9489632
  65.5901642   1.4249570  24.5029030  65.1024933   2.2370212  24.6406136
  65.3197632   0.8578005  25.2250175   4.9000463  30.4446659  78.8800507
   4.3332844  29.9967995  79.5080872   5.1156521  29.7744026  78.2315979
  80.2229233  33.6268196  86.6839828  79.7782364  33.6461487  85.8365631
  79.7350388  32.9816666  87.1958237  34.9504051  54.8753700  45.9558487
  35.8554344  55.0538826  46.2113647  34.8470802  53.9323502  46.0834122
  50.2262039   8.0344419  49.8217201  49.3470573   7.6632891  49.8964386
  50.6663704   7.7723012  50.6302795  55.9244461  48.0420876  41.4787102
  56.4452782  48.7931824  41.7630081  55.0212860  48.2868309  41.6802902
  15.3446541  26.3541260  27.0168781  14.8688946  25.8047466  27.6398296
  14.7174826  26.5152225  26.3119411   1.5523493  53.1919289  46.1381760
   2.1825309  53.8498535  45.8445168   0.7662369  53.3652725  45.6202850
  21.3488998   7.8286533  15.4971695  20.5837116   8.1664000  15.0317144
  21.2453804   8.1497955  16.3929272  17.0294495  64.3495331  58.3390503
  17.6515579  64.5880737  57.6518021  17.4865284  64.5497437  59.1558876
  61.9489594  57.3949356  64.9988403  61.9587517  57.6214256  64.0688782
  61.2960625  56.6984749  65.0688705  80.2847595  57.1887093  49.9008255
  79.9084167  57.0329056  50.7670364  79.9222870  56.4921761  49.3533859
  71.4357529  46.3173637  64.8894958  71.8018723  46.2982178  65.7737045
  71.8922882  45.6152534  64.4259796  36.8258400   3.1913660  26.7848301
  36.0103226   3.2190833  27.2852287  37.4388351   3.7192996  27.2964516
   5.5643644  49.0428848  64.1772919   5.0903201  48.2639389  63.8861580
   6.4760623  48.7584076  64.2414093   2.3606858  46.9335175   4.5597711
   1.4932483  46.8143730   4.1730042   2.3678758  47.8436890   4.8560276
  86.2088699  25.9726219  12.5407982  86.6703796  26.0597954  11.7067471
  86.1431503  26.8679619  12.8728838  40.3888054  10.2309084  74.5561905
  41.0529976   9.7656374  74.0476608  40.0328789   9.5683813  75.1483078
  59.0453491  31.1747112  23.8723717  59.6789818  30.4752979  24.0322552
  58.8921738  31.5608616  24.7347279  53.2824745  60.3176231   3.4211395
  54.0592232  60.0503960   3.9125502  53.6263695  60.8316269   2.6905446
  64.2765808  36.9963951  12.1043224  63.8009911  37.4482307  12.8013830
  65.0178833  37.5697708  11.9095392   9.4664373  46.7009621  47.7744026
   8.5611677  46.9175987  47.5512695   9.7358789  46.0756569  47.1016273
  32.4497490  44.8202515  85.4216461  31.9922676  45.6128349  85.1410217
  33.0612411  45.1218185  86.0934830   1.8058926  36.9705772   1.8423445
   2.7025282  37.1971817   2.0891755   1.8145616  36.0172005   1.7572957
  46.9587021  46.2307816   8.7837343  46.8028831  46.7165833   7.9738288
  47.8154297  45.8230019   8.6573792  51.7346725  16.3739758  13.2808647
  51.4481316  16.4190273  12.3686714  52.3552895  17.0968800  13.3729477
  61.8066292  53.7473526   7.9608231  61.5381012  52.9628716   7.4825816
  62.4467926  53.4316597   8.5986032  40.3250580   2.0977633   2.1301444
  40.7974434   2.8500223   1.7735071  39.6488380   2.4821205   2.6880221
  34.1277046  60.1991310  83.8259888  33.8273201  61.0895309  84.0081558
  34.5196686  59.9056168  84.6484528  42.7804337  67.8360443  21.7646313
  43.4811935  68.4459229  21.5339603  42.9667854  67.5885620  22.6703129
  45.7368431  65.3426208  38.6711502  46.6598129  65.1448441  38.5122910
  45.7007332  66.2981415  38.7149048  18.3026943  37.1430931  84.9103470
  18.0122089  37.4116974  84.0387421  18.9945145  37.7654457  85.1346054
   8.5074320  30.1541958   9.3339491   8.8811970  30.6228447  10.0802069
   8.8031855  30.6474876   8.5688190  44.8624992  30.8458328  83.1530075
  44.3617172  30.0863667  82.8552475  44.5816727  31.5581093  82.5785217
  37.9034424  53.1212845  48.5740204  38.0907631  52.9326057  47.6544876
  37.7263107  54.0617371  48.5942879  62.8631287  39.9079590  46.0399361
  62.4438477  40.0933266  46.8802147  62.4523277  39.0966835  45.7410889
  65.6995163  70.7109146   7.7162752  65.0742798  70.1805878   7.2222528
  65.1556168  71.2461777   8.2941122  83.5324326  27.4612236  46.7072334
  82.9711151  26.7384224  46.9877892  82.9488602  28.2192955  46.6755333
  78.9383926  33.5362625  52.2744713  79.0182419  33.7835197  53.1957321
  79.4607773  34.1870842  51.8056679  36.5075378  47.1673317  21.7990742
  37.4592361  47.1281624  21.7043533  36.1703644  46.8802414  20.9504719
  67.0332947  30.2801361  88.3611374  67.2671661  30.8661346  89.0809555
  66.6916656  29.4964333  88.7916336  77.9027328  30.2853680  79.7524872
  78.1879578  31.1329041  80.0939026  78.2908478  29.6443443  80.3480453
  59.5989952   1.0262446  50.0466614  58.9201622   0.3603944  50.1565018
  60.0962448   0.7373819  49.2814598  16.7895145   4.9361582  19.4825230
  16.4256897   4.2137861  18.9706230  16.0328274   5.4805717  19.6999359
   2.3997219  44.2556190  45.4001198   1.6639078  43.9157753  44.8908844
   2.0567830  45.0449944  45.8190575   1.7612222  53.8393440  75.6837540
   1.3945031  54.4430122  76.3297653   1.8322463  53.0054893  76.1483765
   8.8821878  11.7314434  59.5244064   8.6756182  12.0065002  60.4176598
   9.0952625  10.8016043  59.6033440  16.5817070  44.5853386  72.7519760
  17.4415970  44.4664574  73.1553268  16.3645210  45.5028458  72.9170227
   1.6504471  34.7525558  70.4499435   1.8263639  35.6665802  70.2266846
   1.5683026  34.7504807  71.4036102   0.5656056  20.1746273  39.6776276
   1.4245300  20.3036842  39.2753525   0.2661662  21.0582314  39.8916588
  16.4683971   7.5901194  35.7756844  15.6546917   7.4568505  36.2618446
  17.1574841   7.3244729  36.3846359  83.3608246  17.2342510  15.6511574
  83.5977631  16.5800476  16.3085060  82.4211349  17.3683815  15.7745943
  15.1925974  33.4668465   8.2008505  14.2835732  33.6482391   8.4396057
  15.2321272  33.6392593   7.2601361  65.1563339  29.2775726  49.5483093
  64.8534393  29.9393234  48.9265594  64.9785461  28.4427319  49.1151047
  28.8824177  63.4191322   6.1749754  29.4227390  63.5237007   6.9581432
  29.3248672  63.9429169   5.5070529  75.2309570   7.9699082   8.9233160
  74.6193314   8.3938131   9.5253592  75.8934021   7.5773449   9.4919033
  22.0654182   5.5157309  55.9703178  21.5840321   5.5389314  55.1432953
  21.4146175   5.7475572  56.6328468  19.0879517  14.5025749  74.2374420
  19.1773586  14.3160629  75.1720276  18.2290974  14.9174795  74.1570969
  74.5218964  61.4449615  27.8607159  73.9749756  60.9008369  28.4273167
  74.4225540  61.0596313  26.9901524  68.0912399  25.7686291  75.5692673
  68.7990341  26.2477379  76.0002136  67.7223511  26.3951168  74.9466324
  15.6567297  18.4852257  15.5660858  15.8213711  18.2441101  16.4776707
  15.0676661  19.2377720  15.6200304   8.1321526  31.4491787  41.4100533
   7.6075988  30.8062935  40.9327965   7.8721285  32.2927475  41.0398979
  81.8854599   8.6512451  71.1800156  82.0427704   7.9504447  70.5472717
  82.3007660   8.3440332  71.9858475   3.4374104   8.8591356  12.8230200
   2.6884243   9.3843050  12.5411520   3.0523894   8.0384712  13.1304274
  21.2279892  65.0557709  78.9464951  20.9282093  64.8221130  78.0679855
  22.1823177  65.0780945  78.8758698  15.0500355  52.2301674  44.3825569
  15.9349337  52.1939964  44.0194054  14.8627949  53.1652946  44.4644699
  39.6296387   3.3363619  51.4950562  38.6966476   3.1234860  51.5160713
  39.6684799   4.2031970  51.0909271  82.1136246  52.1136856  82.4149323
  82.3115311  51.2477226  82.7715454  81.3542328  52.4112091  82.9159698
  70.9090805  52.2283058  52.2008476  70.5550461  51.8033257  51.4196434
  70.5347519  51.7362938  52.9316216  80.4674835  68.8022461  19.3794098
  79.5122604  68.7493057  19.4105949  80.6791534  69.5995636  19.8649101
  81.4477692  54.2511635  64.8554993  81.6769257  53.7779541  64.0556259
  80.4936676  54.1914101  64.9041214   8.7351503  58.3962708  72.3348999
   8.7956114  57.4458313  72.4309998   9.6436920  58.6874504  72.2574539
  55.0630417  56.8870316   3.9988322  55.6459351  56.1405334   4.1374245
  55.2102661  57.1399002   3.0874517  49.4852867   4.6192355  73.0935745
  49.8350334   3.7430680  72.9315872  49.4369545   5.0219045  72.2265396
   5.8376765  38.0583992  73.2608032   6.3570867  38.5237045  73.9164963
   5.9258642  38.5859108  72.4669571  85.6234055  37.9222336  40.3540230
  85.2307968  37.1246605  39.9991074  86.0601425  38.3279610  39.6051025
  10.6927767  26.2144794  24.4232502  10.3260450  27.0985641  24.4349308
  10.8413944  26.0290604  23.4960155  77.2883377  44.7308769  14.6070232
  77.7658234  44.9508743  13.8071260  77.5082474  45.4339066  15.2182674
  71.3443985  46.3105240   4.4918904  71.2297974  45.3692207   4.6224427
  70.5621719  46.5827675   4.0120630  64.3924255  58.1982384  14.7399397
  63.8043327  58.8986855  15.0223436  63.8927956  57.7175255  14.0799990
  44.6468086  47.6908569  28.1767635  45.3395882  48.0017166  28.7595634
  44.2169075  46.9906960  28.6678734   2.0994346   3.5825655   7.7443347
   1.7143284   4.3394017   7.3026061   1.8039618   3.6588194   8.6515903
  71.1896973  15.8634701  68.0671387  72.1312027  15.7943344  67.9089966
  71.0600662  16.7689171  68.3492584  75.4064560  69.5709686  74.9556274
  74.7147064  69.1106110  75.4307938  76.2028656  69.3860016  75.4533768
  17.3113174  12.5043335  50.2577629  17.0731945  12.7894049  51.1399574
  18.1820145  12.8747702  50.1132050  62.6543350  26.7634792  45.5926056
  61.7997208  26.3908825  45.8094749  62.6451492  26.8447475  44.6389046
  13.6616945  16.2408218   4.5990858  13.5450687  15.3318911   4.3225441
  12.9939890  16.7261677   4.1144814  77.3155823  26.2937775  79.6549377
  76.7956390  26.4765644  78.8723221  78.2232361  26.3285103  79.3529816
  63.2573738  51.6387367  79.8184052  64.1101456  51.2486954  79.6263657
  62.6935806  50.8928795  80.0235138  21.7933979  49.3198853  31.4334583
  21.2627087  48.6596451  30.9877205  22.4856434  48.8192444  31.8651848
  67.5876312  16.6814842   0.5641899  67.7449493  16.4386940   1.4766235
  67.8300858  17.6062775   0.5172040  73.5853729  39.8626671  82.1272812
  73.7916260  39.0179520  82.5274658  73.9540100  40.5092354  82.7291870
  33.5238647  41.5483017   1.9407805  33.2911758  41.3771477   1.0282044
  34.3151512  41.0300484   2.0874410  63.6637688  49.0861130  71.1432266
  64.4069061  48.5585861  70.8504944  63.4355125  48.7240601  71.9994049
  54.5816803  42.3726311   3.7517977  55.3715744  42.0519943   3.3164890
  54.8801765  43.1206169   4.2691460  61.4144135   0.6377345  67.6160278
  62.2244568   0.1833343  67.8475113  61.6866646   1.5386292  67.4413834
  67.7048798  19.8455086  35.6466331  67.1872177  19.1476097  36.0481224
  67.4309692  20.6403999  36.1041870  48.2913322  17.2487202  88.1655121
  47.3386230  17.2116928  88.0805969  48.5314255  18.1003094  87.8002930
  38.6335449   9.5156393  19.1793041  39.4189949   9.9175129  18.8080921
  37.9102974   9.9040794  18.6871052  47.6190147  52.7009430  17.1173840
  47.0774078  52.0547142  17.5704651  47.4589691  53.5193329  17.5873318
  20.3659744  70.5054855   0.3634421  19.6376743  70.4878693  -0.2574446
  20.2463837  71.3211823   0.8498237  57.5089760  43.1867638  63.2114563
  57.4762764  42.7181778  64.0454788  58.4431915  43.2728729  63.0215759
  67.3227539  35.7543602  41.6140137  68.0034790  36.3119965  41.2373314
  66.6114273  36.3573875  41.8298683  70.0151062  26.0576134  77.9947662
  70.0664520  25.9614334  78.9457397  69.8880539  26.9960613  77.8554611
  26.1592808  16.1321945   7.2987709  26.6100502  15.2883635   7.3302021
  26.3299732  16.4622097   6.4166217  84.6192169   2.7668509  50.3050880
  84.7470322   2.5968239  49.3718224  84.4741592   1.9018579  50.6884651
   5.0879216   0.2956823  61.7209625   5.2603974   0.7787526  62.5291252
   4.9061041  -0.5983776  62.0104980  25.0663986  36.5477219   8.8971739
  25.7820301  36.2169724   9.4400473  25.4927349  37.1276474   8.2661791
  84.8198624  65.7086258  64.4458160  84.1516190  65.7357178  65.1306152
  84.3527985  65.9493637  63.6457367  61.4145966  39.8065224  31.5029278
  62.0014381  39.6815300  32.2487335  61.2049484  38.9191055  31.2117672
  30.1598854  71.2491302   0.6192859  31.0455456  71.0505676   0.3152899
  29.7841358  70.3958664   0.8360627  52.2857399  65.7958450  37.5659180
  51.8893661  65.9457397  38.4242020  52.8211098  65.0110703  37.6831055
  67.0902252  61.0310555  54.4787331  67.3313446  61.7171822  55.1010857
  67.7935410  61.0386620  53.8294868  54.3330040  10.5668726  23.4302387
  54.3440552   9.6460371  23.6913357  55.2351608  10.7528696  23.1699600
  45.0699615  61.0496521  83.6059952  45.7328300  60.6162872  84.1436157
  45.5620346  61.6826019  83.0830536   9.9475060  33.6276360  48.0326729
   9.1400251  33.1352501  48.1801949  10.5710974  32.9751091  47.7139587
  77.2917175  67.1661911  43.0213127  77.0899200  66.6282120  42.2557487
  77.6501846  67.9757080  42.6574211   7.0642681  21.4507332  63.2597923
   7.5213189  20.6636944  63.5562820   6.4922051  21.6851158  63.9905701
  45.2869492  48.2315445  22.9555779  45.2718201  49.1146965  23.3244228
  45.3417168  47.6546898  23.7174625  18.7501812  65.9376907  23.8997536
  19.3426361  65.2643204  24.2341099  17.9670086  65.4564896  23.6326923
  50.2816734  30.7088127  37.9569435  50.1905823  31.5050716  38.4803047
  50.7002754  30.0813999  38.5463142  63.8839874  31.6040268  52.3400993
  63.2408333  32.1241455  51.8583717  63.5920715  30.6992397  52.2288589
  24.8302917   7.9794893  53.1171341  25.1052628   7.5439668  52.3103256
  25.6331978   8.3666830  53.4659233  76.7662125  17.1602497  47.9459915
  77.6274185  17.5685558  47.8574448  76.9048309  16.4396763  48.5606384
  14.2710524  69.9051285  11.7220602  13.5181437  69.7881317  12.3014317
  14.7172699  69.0584030  11.7352343  66.5805130  59.1519470  65.1214752
  65.8013763  59.6997910  65.2165909  66.3111572  58.2936211  65.4485168
  71.3216095  43.1383018  62.4699059  71.8393707  42.9539986  61.6862106
  70.4195099  43.1906395  62.1541443  15.8349485   0.2718261  60.4046860
  16.7633953   0.0395677  60.4212418  15.4687433  -0.2555836  59.6947823
  22.0338898  27.4355774   3.0323973  22.8350372  27.2975960   2.5270684
  21.3340416  27.1129246   2.4646480  50.5073471  13.3085861  87.0791168
  49.8443794  13.1357918  86.4106522  50.6852684  12.4518185  87.4670944
  76.1866760  24.3490601  72.7694778  76.8669281  24.0690060  73.3819046
  75.5856094  24.8707008  73.3013000  68.4337463  30.7780838  23.3229275
  69.0591965  30.2578526  22.8185482  67.6845474  30.1958141  23.4489937
   4.1065245   2.8436923  36.3658714   3.8405209   3.0290868  37.2664833
   4.3693776   3.6941290  36.0138817  29.9942570  58.4912796  51.2882385
  29.7981396  58.3532143  50.3615723  29.5432034  59.3059731  51.5097198
  41.1125870  66.4827423  52.8389130  41.2183533  65.6631470  53.3219337
  40.9810524  66.2102966  51.9307823  56.4127617  63.8031616   3.8813400
  56.7752380  64.5865860   4.2949662  55.4996758  64.0276184   3.7021120
  75.4233246  49.8188438  38.0008125  74.8646011  49.5748215  38.7387276
  74.8147507  50.1406631  37.3357582  15.0332232  23.9533348  57.9995537
  15.8479214  23.6924992  58.4290428  14.7144785  23.1521988  57.5838394
   3.9214454  32.0391693  26.2896290   3.8861606  31.1122875  26.5260086
   3.0632696  32.3825951  26.5382748  58.1916313  29.0335865  85.4422760
  58.3188248  29.7013645  84.7683868  59.0311241  28.9926071  85.9003220
  80.3586884  30.0118961  20.8219414  80.4351959  30.2263813  21.7516575
  81.0068817  30.5706253  20.3931065   1.5020828  59.6465874   1.9420633
   2.0348499  59.6670151   2.7370310   1.2565303  58.7268600   1.8418711
  74.9232712  29.6429291  55.6990509  75.3001633  30.5196915  55.6250610
  74.4050140  29.5369034  54.9013023  17.9531422  32.2894211   7.4981990
  18.4591904  32.7710266   6.8438268  17.2386608  32.8819122   7.7320819
  38.3729973   2.5296004  59.4734154  38.0008278   1.8117653  59.9856949
  38.7130699   3.1397245  60.1278839  74.1224823   3.8986228  66.4088974
  73.4798431   3.3102582  66.0125732  73.6030273   4.6283979  66.7462769
   4.2307682  48.0596886  34.4416237   3.7612801  47.8043747  35.2357445
   5.0679626  48.3998642  34.7572479  65.1412811  58.1330338  46.9376793
  64.9769669  57.3834877  46.3654785  65.3796921  57.7442055  47.7792244
  86.1771698  50.7667618  18.4429092  85.8569260  51.5439034  17.9849529
  86.9883957  50.5385437  17.9889603  21.1668625  53.1668320  41.3646889
  20.2855625  52.9193268  41.6444817  21.1350021  54.1204643  41.2885208
   8.8503046  11.4375639  34.4200554   8.5368938  12.0783005  33.7817307
   9.7745037  11.6542969  34.5429955  16.2191582  42.3819008  10.2467394
  16.8501148  42.9889221   9.8598928  15.3664694  42.7822685  10.0768633
  24.7493954  -0.0079439   9.0213566  24.3609123   0.4576151   9.7620096
  24.6568298   0.5953850   8.2840252  72.4360962  26.2208500   9.1922340
  72.6168823  27.0996342   9.5258350  72.5532990  26.2953796   8.2451639
  62.3680840  69.1728745  60.3761711  62.7935104  68.7097168  61.0977859
  61.8426895  68.5031662  59.9383621  31.6136799  25.6948013  30.7399902
  31.6198635  25.9606705  31.6595039  30.8143749  26.0827656  30.3838615
  74.7173309  64.5519943  83.2307281  75.6379089  64.8137283  83.2470093
  74.5691986  64.2529068  82.3335953   4.2624326  26.2064743   6.8076282
   3.3161600  26.0639591   6.7855039   4.4344373  26.7880344   6.0670652
  41.0498047  62.5181046  43.4580116  40.7015610  62.7312050  44.3237762
  41.0023460  61.5633354  43.4091225  79.1961899   1.9005773  63.1381950
  78.5981827   1.5250361  62.4919815  78.6837692   1.9372468  63.9458542
  14.3798494  63.5859642  38.1190605  14.8734989  62.9656258  37.5826607
  13.5108404  63.6103745  37.7184868  72.0239182   4.3423352   8.0757198
  71.5815811   5.1647768   8.2858524  72.7038651   4.5894232   7.4489398
  37.7800522  32.2753716  23.4064598  37.0707626  31.6470051  23.2711868
  38.3456726  31.8614273  24.0583439  53.2470436  14.9331303  41.5987701
  53.7871819  14.2332535  41.9657288  53.0589447  14.6468887  40.7049484
   4.3090839   6.0864248  47.7795906   4.1019735   5.5779634  46.9954948
   4.8087673   6.8352828  47.4543800  28.5187607  53.3638077  54.1111183
  27.6388512  52.9872360  54.1247253  29.0189381  52.7831573  53.5376167
  15.1085176  67.4516830   8.2574663  14.4029322  66.8055496   8.2277098
  15.8272495  67.0438919   7.7743931  54.1587830  26.9044342  34.9795303
  54.8156967  27.3821945  35.4859314  54.0565376  26.0734329  35.4434433
  60.7548981  59.8621979  56.6158142  61.5609398  59.4174538  56.3536530
  61.0424500  60.5351372  57.2328186  10.3066683  41.7015533  33.5797882
   9.3816690  41.8959503  33.7308426  10.3030806  41.0500336  32.8785439
  71.0740204  26.4061813  33.8056946  71.5550537  25.7025528  33.3700943
  70.1933670  26.3604240  33.4334183  58.1000900  61.0984116   0.7444768
  58.6612320  60.6961670   1.4074625  58.1819038  60.5256500  -0.0180735
  10.3608341  15.9276838  10.4968567   9.6620111  16.5341625  10.2517824
  11.0205908  16.0328789   9.8113737  80.3565445  39.7282791  20.5675774
  81.0518417  39.3019371  20.0665550  80.1544876  39.1106186  21.2703590
   9.3079367   0.2425802  73.2880096  10.1767082   0.5641372  73.0470276
   9.2323093   0.4344259  74.2227325  23.4367352   3.6988966  19.7682800
  22.6050587   4.0402546  20.0969448  23.6152248   2.9345992  20.3162060
  74.8146057  42.2744446  67.9005203  74.0403290  42.7880058  67.6703339
  75.0345078  41.8001747  67.0986786   9.6033554  39.9308052   1.5679179
   9.6420908  38.9818916   1.4483582   9.2884817  40.0466003   2.4643984
  81.0299988  48.1198883   4.2367864  80.0845032  48.0869408   4.0912580
  81.3739624  48.5825806   3.4726923  26.0681038  37.8587189   6.4801140
  26.2719231  36.9534073   6.2453909  25.2774906  38.0634079   5.9808493
  17.7731876   4.5155530   8.0631704  18.3188324   4.7064447   8.8261013
  18.3588371   4.6310940   7.3149071  75.3132401  35.1151848  49.6966095
  75.9354706  35.8379173  49.7786102  75.8564301  34.3531418  49.4954376
  51.0615654  40.4907951  36.0155716  51.5548973  40.9489555  35.3351707
  50.3375130  41.0808601  36.2248688  32.3249855  64.6205139  35.1352119
  32.7942696  63.8002434  35.2874222  31.5146122  64.3556366  34.7000504
  44.5178833  55.0120964  18.6510563  44.4788055  54.0746384  18.8404808
  44.9708481  55.3900795  19.4048347  49.2541924  31.7053242   3.4522214
  49.7851105  30.9844437   3.1135659  49.5255013  31.7939510   4.3658781
  22.0542717  14.8767443  50.4004974  22.3268051  15.4794626  51.0923691
  22.6188602  14.1120043  50.5129356  38.4526138  57.0365639  18.0030575
  38.0617104  57.8172722  18.3953800  38.6655579  56.4749832  18.7483864
  46.3032341  13.8240957  37.6687241  45.9490891  14.5567684  38.1727104
  46.3303909  13.0967159  38.2903481  31.8279266   1.8240844  40.1359825
  31.6699085   0.9640851  40.5254250  31.2675762   1.8423010  39.3601570
  42.0290947  50.2693253  82.4407349  41.4650497  50.9686890  82.7708511
  42.5270309  49.9818649  83.2060165  18.2703686  42.7102623  70.9812775
  18.3634052  41.7660446  70.8546829  18.7661953  42.8949776  71.7789383
  67.9902802  38.8181496  51.5874100  68.3369751  39.1236496  50.7491379
  67.5031967  38.0233955  51.3698082  19.2753353  67.6995010  32.5133629
  20.1142921  67.3491898  32.8128014  18.6477680  66.9972916  32.6845093
   2.2325132  70.8834686  15.9326830   2.4155779  69.9527664  16.0611591
   1.3385861  70.9984665  16.2550220   4.2844639   4.0133414  60.9771729
   5.0281029   4.2887297  61.5132637   4.6211553   3.2834628  60.4574127
  66.8825684   7.3205562  52.4346428  67.2096252   8.0235939  52.9958916
  66.1759033   7.7249851  51.9313583  85.2247391  61.8621254  21.1076088
  85.7029953  61.0882759  21.4053612  85.8980408  62.5344887  21.0035992
  75.1074829  66.7685928  11.9440422  74.9018021  67.2143631  11.1223278
  74.2839661  66.7736359  12.4319162  74.6352997  28.0332890  84.1382141
  74.8424301  28.6193981  83.4103394  75.4065323  27.4724159  84.2210236
  41.3260040  68.2053375  40.4293594  40.8187714  67.6772614  41.0458641
  41.1321106  69.1104126  40.6732216  58.8880730  26.1642570  70.3028564
  58.1568108  26.5850067  69.8506927  58.7656517  26.3959694  71.2234802
  70.6084137  22.8989964   6.4582820  70.6367950  22.9187756   7.4148564
  71.2307968  22.2139034   6.2143111  44.2249603  13.6398754  68.0826035
  44.9208641  12.9877319  68.1642075  43.8470345  13.6979485  68.9601212
  25.3839874  48.6682396  17.0448360  25.5104580  48.6664200  17.9936409
  24.4575214  48.4588623  16.9262962  36.2049789  63.7966232  71.6577606
  36.7998199  63.2002182  72.1124039  36.6682587  64.6341629  71.6460419
  68.4311905  36.3218346  45.8226891  69.0984116  35.6627769  45.6311340
  68.1928864  36.1629753  46.7360382  28.9734077  18.5339413   5.3563557
  29.7050552  19.1337967   5.2111030  28.5227947  18.8871155   6.1234598
  85.7392731   5.9424920  25.3794804  85.7032242   5.7638721  24.4397850
  85.5579300   6.8795319  25.4522972  27.5135956  50.6051064  85.4706955
  27.1630726  49.8011169  85.8540573  28.3550606  50.3447495  85.0960236
  49.9339714  67.1443253   5.2339172  50.2362061  67.7334671   5.9251461
  48.9823456  67.2474136   5.2304707  43.1466560  67.7548904  81.4718018
  42.7491798  68.5055542  81.9131088  42.5873108  67.6009064  80.7104492
  20.5198345  50.7742119  77.5696793  19.8711128  50.5049362  76.9193878
  20.1319695  50.5303841  78.4101181  73.1663742  65.8059235  22.2599525
  73.1736221  64.9127121  21.9159203  73.9130402  65.8382950  22.8580151
  11.0219460  54.0814667  14.9332132  10.6186771  54.8480835  15.3405285
  10.3236809  53.4271393  14.9105482   9.7887287  64.4748383  20.1208992
  10.1518688  65.0581436  19.4544773   9.7371340  63.6216545  19.6900311
  47.6419868  59.1441231   3.7885120  48.5652771  59.2915840   3.5835278
  47.5649643  59.3626595   4.7172437  21.5086555  61.0557938  36.1394806
  21.5016041  61.9484138  35.7939186  21.8970528  60.5310287  35.4394836
  53.2866478  38.9645157  29.6739254  54.1219559  38.6093330  29.3700638
  52.6441956  38.6380806  29.0438995  77.5476074   3.2358458   8.8794985
  76.7246933   3.6106713   8.5655575  77.3481903   2.3116765   9.0290833
  80.5939407  55.9888153  18.1665630  80.1936264  55.1732559  17.8651619
  80.3503113  56.0481148  19.0903378  34.2215385  49.9045792  77.5755615
  34.1052094  49.1450500  78.1463623  33.7664948  49.6686020  76.7671738
  67.1240692  15.5325947  77.4187927  67.8829880  15.2368031  76.9160233
  67.4925842  16.0945663  78.1004257  10.9788046  40.5333176  18.1914997
  10.9644375  41.4609795  17.9559727  10.0611467  40.3123627  18.3506069
   5.4825602   7.7360387  11.5108805   4.7297955   8.1881084  11.8919449
   6.2202578   7.9897137  12.0655727  42.8718681  65.2417831   8.0511551
  43.5278740  64.9959717   7.3988776  42.3132401  64.4687271   8.1321316
  73.3767776  58.5188065  55.3666687  72.6972504  58.1356468  54.8119888
  74.0801697  58.7486496  54.7595139  29.9385586  31.7681942  24.4111099
  29.4597130  32.2591743  25.0788517  29.5567379  30.8908901  24.4390297
  85.4645538  50.0621414  87.2318192  85.3546371  49.8715515  88.1633987
  85.3854065  51.0141296  87.1711502  81.1390381  63.0686340  67.3572769
  81.3719864  62.6452332  66.5310211  80.1926880  63.2005844  67.3003311
  58.4358177   2.3277371  26.5212383  58.7488861   3.0483625  25.9745026
  57.5719795   2.1163099  26.1672459  73.2026672  26.0447121  43.9625168
  72.5892334  26.7463417  43.7442398  73.5116959  26.2617702  44.8420715
  24.9745197  32.9467964  88.2232132  25.3912582  32.3663826  87.5862808
  24.5775032  32.3552246  88.8624725  85.0491257  53.2057343  83.9871292
  84.2452545  52.6980705  84.0980530  85.7533035  52.5760193  84.1414795
   1.4381845  61.3877563  49.9066696   1.4476113  62.2330818  49.4577065
   0.7220917  61.4597054  50.5377502  84.7806168  38.5454597  62.4372864
  85.7052383  38.3344269  62.5668144  84.3181076  37.9911957  63.0658607
  71.5604477  46.3949547  43.2119064  72.2509384  46.5851707  43.8469429
  71.9894714  46.4760780  42.3600960  65.8596420  62.6864433   5.1774907
  65.9999161  62.4077759   6.0824213  64.9772110  62.3811455   4.9669185
  16.0739803  15.9997301   6.0380249  15.5417137  16.0927544   5.2479167
  16.5738754  15.1957512   5.8967705  12.2644463  59.6751060  33.4123077
  12.5814734  60.3224983  32.7825394  13.0225143  59.4885254  33.9661598
  25.2442856  12.1151962  30.1154118  25.8846970  11.8577776  30.7786160
  25.4630318  11.5816488  29.3514023  51.5450745  20.0677681   3.6073086
  52.0193748  20.7858391   3.1882098  51.9183922  19.2759495   3.2201574
  65.1229477  18.5278091  21.7898693  65.9071045  19.0762138  21.7658596
  64.4626617  19.0726395  22.2181473  73.4186783  63.0381393  34.4628716
  72.8044662  63.3300667  35.1364822  73.0122223  62.2552795  34.0911789
   2.5923851  15.7655048  24.2060966   3.1814742  16.4868069  23.9848976
   1.7607492  16.0006771  23.7946262  22.7592678  16.7647285  -0.0099391
  23.4716034  16.1293869  -0.0817086  22.0278416  16.2646065   0.3521737
  77.4066391  21.5200596   4.9139562  78.3525238  21.6386986   5.0002389
  77.2666626  20.5868568   5.0744972  66.0363464  16.6300259  23.4864922
  66.3019104  15.7947178  23.1018276  65.5006104  17.0453739  22.8106956
  42.6956978  62.1365395  77.3495560  43.2429962  62.1949539  78.1326752
  42.6753044  63.0291405  77.0044708  13.6413326   8.4932737   9.5700512
  14.2820854   9.1899767   9.7124290  14.1437559   7.6835976   9.6607552
  43.5039406  67.2643433  18.4775391  44.0423470  67.2166595  19.2675228
  42.6912537  66.8174133  18.7142315  69.3814240  54.0761375   4.1539612
  68.5412979  54.2433090   4.5811267  69.9974976  54.6556664   4.6021099
  82.6945343  60.6715813  29.0963612  81.9637833  60.0904922  28.8852406
  83.2032852  60.7203865  28.2870255  78.7060165  51.4302902  63.9176483
  78.1266861  51.6187592  64.6559448  78.7667236  52.2593613  63.4431076
  33.5192986  54.1096115  40.9429550  34.4389458  53.9310455  41.1394157
  33.5431709  54.8514061  40.3384666  54.2120819  51.9869804  48.9888573
  53.8086586  51.1615753  48.7201805  53.5153389  52.4557343  49.4482613
  79.1258621  26.2351532   1.4063451  78.5223923  26.2999096   2.1465218
  78.5578003  26.1411552   0.6416870  19.1171513  53.1188278  66.1085281
  19.6089172  52.6971054  65.4038620  19.6795292  53.8381386  66.3958511
  16.0712147  64.4243469  77.5228043  16.7256050  63.8816757  77.9626999
  16.4444618  64.5960922  76.6582718  69.4818573   8.7474155   9.2876482
  69.6535950   8.9908705  10.1973009  68.6962585   9.2408504   9.0518713
  74.6596756  65.4985657   1.5093671  74.2555313  65.4323883   2.3745368
  74.0559998  65.0372925   0.9271005  64.5776825  15.1415539  77.3203278
  65.5344696  15.1221085  77.3404999  64.3209763  15.2506742  78.2359848
  16.3409748  39.1565666   2.4966586  16.8114662  39.9770660   2.6437914
  16.3001766  39.0713539   1.5441324  54.0365562  65.2708282  21.7366409
  54.1314926  66.0088196  21.1344891  53.2496872  64.8161545  21.4360733
  39.5796280   8.5261784  60.4776573  39.1247177   8.4162960  61.3126526
  40.2332458   7.8269615  60.4671707   7.5940251  14.8083887  42.2168770
   7.7102008  15.6369514  41.7518845   7.8039103  15.0135689  43.1279640
  70.3249435  12.3070898  51.7128410  71.0048752  12.6863203  51.1559677
  70.4926910  11.3650360  51.6878128  68.6041260  16.0314560  61.8223724
  69.2064362  16.7371788  62.0577736  69.1545105  15.3836546  61.3823013
  45.8718529  60.4253960  37.7433434  45.2748642  61.1297836  37.4910049
  46.6467819  60.8766327  38.0781593  15.6119118  41.0913582  48.5998001
  15.5172033  42.0206604  48.3908615  16.0060081  41.0809326  49.4720459
  27.0915985  10.4531374  20.0171280  26.8726501  11.3847103  19.9955635
  26.4838142  10.0498409  19.3973026  55.0430603  48.3184624  14.0022144
  54.8843193  47.9508476  14.8716354  54.7809753  47.6245193  13.3972502
  12.8372765  49.7349434  84.0489426  12.5859928  49.2494202  84.8346558
  13.7203484  50.0532570  84.2362671   0.5288104  16.2074986  57.9329987
   0.5481693  15.3435431  58.3446274   1.3685308  16.6030483  58.1667519
  42.6951637  22.7833366  14.0982485  42.1589203  23.5009594  14.4354315
  43.5886650  23.1265182  14.1089287  67.2522049  66.6073914  41.9833679
  67.7957764  66.8759613  41.2426682  67.7314301  65.8804169  42.3809700
  38.2760162   3.6369579   9.9733953  38.9658852   3.2212019   9.4562273
  38.3753204   4.5725188   9.7970533  72.9091644  51.2181435  37.2193985
  72.1517868  51.6629448  36.8389206  72.6599579  50.2941399  37.2378235
  63.6478691   3.3625281  16.5326271  64.1408844   4.1782789  16.6204529
  62.9238129   3.5822065  15.9463511  62.6343422  51.3893890  63.5573158
  63.0025063  51.0428734  64.3700943  62.3069344  52.2572746  63.7935600
  25.7519932  67.5380554  46.7833023  26.1718407  67.1125183  47.5308838
  26.2622452  68.3358841  46.6442184  39.5475159   6.3926611  84.5301971
  39.8659248   5.7308741  83.9162827  38.7119408   6.0464211  84.8435059
  37.6054916   7.6548896  73.1611938  36.9628296   7.0422921  73.5188828
  38.3140182   7.0977249  72.8390350  75.5285645  57.7628479   1.5838401
  74.7993240  57.7204819   2.2024286  75.6401215  58.6972580   1.4087284
  74.8074875  69.1265564  49.1891632  75.3563995  68.5019608  48.7150154
  74.6554794  69.8349228  48.5635872  87.0320740  55.8507843  28.8170013
  87.0004807  54.9948235  29.2442760  86.1300888  56.1692886  28.8517895
  82.2396011   8.5106812  26.1389027  82.9816208   8.3089237  26.7089291
  81.9729309   7.6627612  25.7837257  76.4555664  64.1399231  39.1754150
  75.5543289  64.2005692  38.8586693  76.8024979  65.0271301  39.0819778
  57.5775642  25.1369095   0.9793370  58.3404961  25.5750065   1.3564769
  57.3515129  25.6658745   0.2142688   7.0930686  62.5762863  28.1066360
   6.1409316  62.6398964  28.0316639   7.4227023  62.9351196  27.2827358
  10.3444614  11.1809301  40.3841362  10.9717550  11.4104013  39.6985168
   9.7349873  11.9186392  40.4078026  52.9195175  26.2910366  15.5613031
  53.5838661  26.6192131  16.1672535  52.1115837  26.2804394  16.0744915
   7.1793909  19.9587269  80.4619446   6.6323605  20.0216827  79.6789856
   8.0726643  20.0810375  80.1404877  31.9346180  19.9970551  38.4358711
  31.3338909  19.8909130  39.1735001  31.3641376  20.1474609  37.6821060
  68.7648163  36.3185921  69.2704010  68.9490585  36.9629974  68.5870056
  69.2868042  35.5543785  69.0259857  66.3912125  69.2265778  31.2364674
  67.2329102  68.8642807  31.5130978  66.4050446  69.1623688  30.2815247
  48.4836121  45.9417763  15.7459564  48.2375870  45.3955040  16.4924736
  48.7211761  45.3175125  15.0603275  17.3655567  50.3401527  83.0289078
  18.0853691  50.7909431  83.4703674  16.7025967  50.2237053  83.7094650
   1.4573898  48.1594162  85.9179306   0.5118636  48.0193748  85.8669357
   1.5604430  49.1106606  85.8906326  67.8802109  15.4746885  41.4373550
  67.5149384  14.6927948  41.8514214  67.6638336  16.1873798  42.0385857
  51.4033852  54.6417923  67.1196671  50.4603882  54.7811852  67.2065735
  51.7796021  55.5213242  67.1531448   3.8704686  35.1237984  23.0038719
   3.9050457  34.9778595  23.9492493   3.3500617  34.3941154  22.6677589
  12.5597639  59.2620697  36.6479111  12.7181635  58.8624001  37.5031357
  13.3232212  59.0182991  36.1245155  32.7786560  48.5618706   0.2316287
  32.6863708  49.4709206  -0.0535773  32.0378265  48.4193001   0.8207611
  80.0528336  21.8504353   4.8478379  80.2094269  21.7961826   5.7905822
  80.7374115  22.4362049   4.5246506   5.0574584   1.0968406  41.4154053
   5.6132112   1.7745261  41.8002625   4.8489003   0.5146604  42.1460228
  14.2568083  15.1652088  14.7301836  13.7869377  15.9255209  14.3875790
  14.7438555  15.5032911  15.4816599  10.0434265  70.8268280   8.2610998
   9.1158667  70.9887466   8.4332762  10.4973097  71.5488739   8.6956930
  82.9812927  12.0487585  28.2384892  83.4289932  12.4350185  28.9912167
  82.0825500  11.9124947  28.5383816  72.8622284  45.0380211  29.8596668
  73.0656586  44.2483253  30.3608932  73.0048523  45.7563133  30.4760685
  10.4457541  59.0874519  57.9239273  11.0424318  58.8618317  58.6375809
   9.9456415  58.2864075  57.7675667  31.8172417  13.6747150   5.2877460
  31.2446270  14.4338779   5.3973618  32.0500374  13.4194212   6.1804180
  62.2561340  62.9133492   7.8199334  62.9410057  63.1813011   8.4326172
  61.6176300  62.4500771   8.3620844  77.7903900  12.9162884  32.1738091
  77.2754745  12.2046614  32.5541801  78.6738281  12.5565662  32.0940132
  36.6046867  25.0355930  25.3991985  36.1076775  25.0948963  26.2151012
  35.9738922  25.2662315  24.7171917  40.5288124  39.8813248  42.1971207
  40.4619865  39.0963898  41.6533890  40.0748596  40.5590172  41.6962318
  12.5910435  54.7190018  79.7585297  11.9978886  55.4701729  79.7467346
  12.1700678  54.0905876  80.3451309  72.8813629  22.9625072  56.2429237
  72.7955704  22.0097618  56.2768097  73.8059235  23.1264992  56.4287491
  18.7447491  31.5727806  44.2582588  19.4525204  31.3614521  43.6494598
  17.9437199  31.3991585  43.7638512  31.4244099   7.0864515  56.9818306
  30.6513805   7.6080222  57.1977501  32.1416092   7.7199097  56.9575729
  57.9750671  19.8514671  16.5876827  57.7651863  19.4365978  15.7509842
  57.1680984  20.2989464  16.8422337   0.5557828  49.0383873  20.6602001
  -0.0850182  49.7181549  20.4515781   0.9977229  48.8627815  19.8294868
  11.0579767  56.3356972  73.7222061  11.3873949  55.4550858  73.9017487
  10.2839851  56.1953087  73.1768112  67.0949478  54.4548187   5.8231797
  67.3327866  54.0857544   6.6737404  66.2034836  54.1428833   5.6675677
  19.2686977   9.2026949  53.5849419  19.2104530   9.4289665  52.6566963
  18.8932076   9.9568672  54.0393257  55.9030571  46.2477760  76.8801651
  55.4229050  45.4796677  77.1895065  56.3889885  46.5513039  77.6469574
   2.6990685  11.0737238   5.8471093   3.2146430  11.7708969   6.2525291
   2.2644565  10.6394520   6.5811067  51.0821228  14.6731377  30.0813866
  51.0339203  15.1067333  29.2293873  51.4064331  13.7942581  29.8848476
  43.9331512   0.0746129  66.0880356  43.3151741  -0.0224560  66.8125458
  43.4162369   0.4642554  65.3828964  60.5892754  28.0918446  20.1119595
  59.6380920  28.1312180  20.2115974  60.8031044  28.8412514  19.5561733
  24.5254478   1.2093663  34.7491570  23.8187962   1.7960684  34.4796104
  25.1168060   1.1852409  33.9968605  37.7044449  17.4563961  24.5628719
  38.1854973  18.0230312  23.9597588  38.2058105  16.6411266  24.5769424
  49.6966553  47.3351479   6.3419762  50.3980141  47.7216225   5.8176098
  49.0263405  47.0919762   5.7033978  18.1054935  61.1714325  88.3537750
  18.1972427  62.0465240  87.9769135  17.6949291  60.6541100  87.6609268
  36.5314217  36.6969872  84.5387115  37.3779182  36.3228416  84.7830276
  36.6303139  37.6360283  84.6957474  27.1083107  15.6653690  71.9459076
  27.4127483  14.7699213  71.7985153  27.4344330  16.1564064  71.1917419
  13.3628588  47.5868454  28.8771915  12.7965002  46.9376411  29.2943325
  12.8706341  48.4058266  28.9338875  53.2771301  71.0438919  35.6493683
  54.0837021  70.8806076  36.1382599  52.5802422  70.7286835  36.2248840
  80.4347610  20.4763393  88.0662003  80.0509644  19.8903484  87.4138641
  81.1724319  19.9838200  88.4260788   6.5983696  38.2154655   4.2020454
   6.8443990  37.9871635   5.0984716   6.5910964  39.1725845   4.1920500
   8.4080372  55.1713829  53.6837997   8.5166101  54.6773148  52.8711853
   7.4692693  55.3524094  53.7304382  62.8065338   9.4028111  39.8629684
  63.0147896   8.4711618  39.9329033  63.2586670   9.8056087  40.6042900
  81.3541718  43.3127823  59.2375526  80.9670639  42.7094460  59.8718758
  82.2986145  43.2060547  59.3509827  25.4721489  60.8256989   4.4188485
  26.3145771  60.8563271   4.8722887  25.2602406  59.8935318   4.3699098
  17.1267128  68.7805176  51.8736916  16.7630501  68.0056229  51.4452896
  17.8695221  68.4488754  52.3781509   3.6170905  49.4077110  15.4322062
   3.8736379  49.4581070  14.5114050   2.9550471  48.7169037  15.4589233
  63.2253647   4.1355872  49.1869774  62.6471405   4.0747371  49.9473610
  62.6502762   4.4013104  48.4694176  72.7197647  44.6044769  32.7499886
  72.8651352  45.4407883  32.3076324  73.5410385  44.1265411  32.6345711
  77.3679886  65.4212036  82.6579971  78.2077560  65.0663605  82.3662643
  77.4912033  66.3703384  82.6440811  25.3894730  26.7307072  25.1781425
  25.7237530  25.8709908  25.4338303  25.5495281  26.7793121  24.2356720
  59.9060593  16.4610138  84.2348480  59.2442284  15.9387026  84.6880646
  60.5654984  16.6448669  84.9038544  10.9199991  22.0847797  41.0306740
  11.5766354  21.9035912  40.3581924  11.3466530  22.7060204  41.6208115
  34.3110275  65.1968155  84.4087143  34.0553360  65.6765442  85.1965637
  34.1262512  65.8011398  83.6897659   7.2479386  57.6337852  21.1108322
   7.4818206  58.4926186  21.4628811   7.2958417  57.0450439  21.8640404
  83.8326492   0.1846759  48.1163025  84.0214081  -0.1376062  47.2349739
  84.6114502  -0.0400610  48.6254120  21.9894218  14.4639978  54.3414268
  22.0000057  15.3137760  53.9009743  22.7695541  14.0154209  54.0152283
  13.6551666  62.7136688  25.3870640  14.5441484  63.0211563  25.2098751
  13.3634634  63.2402649  26.1312656  76.0650253  51.2802429  73.6968231
  75.9693146  51.3510513  72.7470551  76.2945175  50.3631287  73.8467026
   3.4387536  55.4218140  44.6255951   3.8691790  54.6259689  44.3131905
   2.6884725  55.5332909  44.0417442  85.9564972   7.7652636   8.7066154
  85.0648117   7.9987779   8.9646740  85.8436813   7.0758219   8.0522642
  33.8275528  13.2067194  45.0035515  34.5220757  13.6428328  45.4971809
  33.0184135  13.6010590  45.3291588   4.1344175  46.9997139   1.6505131
   4.2064896  46.6678009   0.7555996   4.2408099  46.2250328   2.2025847
  10.3082819  55.8713837  77.2070999  10.9846382  55.3526535  76.7715607
  10.6507463  56.7652016  77.2007523  25.4335480   9.9852018  13.3388691
  24.9701996  10.8001099  13.5324316  24.7387619   9.3400526  13.2073860
  45.9207649  51.2559090   4.4585142  45.6788940  50.4841003   4.9704161
  45.8346977  51.9862862   5.0711942   2.2525923  43.6615257  15.4636011
   1.8173835  44.4572639  15.7695875   1.6412644  43.2817383  14.8325148
  67.6200485  39.8307762  19.1536522  68.4434280  39.3609238  19.0213242
  67.7847748  40.7061119  18.8031044  21.3133335   9.2614632  70.2432175
  21.4382420   9.6785040  71.0956879  20.5237942   8.7308474  70.3495560
  74.1976013   5.9048634  35.1651878  74.4385147   6.2481303  34.3047447
  73.8074036   6.6511946  35.6201286  79.1389847  13.6472101  65.2229080
  79.2477798  13.7498016  64.2774658  79.8591766  13.0742416  65.4860992
  84.5126343  60.8848801  73.2638931  85.2792282  60.9452667  72.6938629
  84.4262161  59.9500999  73.4508362  68.5245590  23.4807320   9.7786198
  68.6847992  23.9442501  10.6006327  69.3949051  23.3566151   9.4000425
  68.2943802  63.6984901  32.1565018  68.9672699  63.5225258  32.8141365
  67.7284775  62.9268608  32.1804504  59.8432426  49.3403282  20.6260338
  60.1676674  48.4404488  20.5915070  59.5075684  49.4398994  21.5168991
  68.3901367  33.3843918  22.5594482  67.4652328  33.5955429  22.6867447
  68.4615784  32.4624557  22.8067513  39.3209839  69.3947678  72.8034897
  39.9055138  69.4528503  73.5592575  38.5825005  68.8695068  73.1116714
  33.7775497  64.4244919  51.6300926  33.5527267  63.5480042  51.9422722
  33.0043335  64.7113266  51.1441917  47.0362015  70.1248550  44.6259537
  47.3826408  70.2463913  45.5099449  47.6370392  69.5021286  44.2167549
  51.4993095  49.7838287  27.5398674  51.8549461  49.6747169  26.6579113
  50.8387833  50.4705505  27.4485073  15.2909193  24.7983570  34.1493416
  15.5508184  23.9191551  34.4244576  14.3440018  24.7394810  34.0224075
  80.5965729  59.3141174  28.0581913  79.7100983  58.9796104  27.9221687
  80.8611755  59.6469727  27.2006245  62.6353836  43.3607559  16.2966576
  62.5148544  44.2041550  16.7329903  61.7462387  43.0408783  16.1439171
   5.4119430  34.7547226  50.5872307   5.5516114  35.6140251  50.1893272
   4.9498835  34.9414482  51.4044609   9.4809837  69.1407700  23.4254322
   9.2331724  68.3416672  22.9603996  10.3653774  69.3343048  23.1145859
  68.7212372  37.0687981   6.5473094  68.1055756  37.5135612   7.1298752
  69.0696259  36.3481140   7.0721622  49.8251915  67.7886810  39.2396660
  50.4170723  68.1837463  38.5994873  50.2718544  67.8992844  40.0790062
  82.8419342  66.3349991  13.2758284  83.7887115  66.4304276  13.1722155
  82.5673218  67.1379013  13.7187347  63.4381752  15.8236904   5.8395867
  62.6176682  15.9351606   6.3197651  64.0712357  16.3572216   6.3200207
  81.3722610  37.8187447  49.3193169  81.9011612  37.3232346  48.6940422
  81.6775131  38.7214394  49.2288246  81.2664948  59.9278069  34.4086876
  80.8484650  60.2383308  33.6055336  81.9426270  59.3208504  34.1075478
  53.0515633  68.2424774  73.3451691  52.1935883  68.0122452  72.9886475
  53.5414963  68.5762482  72.5936356  32.3618584  67.4290161  16.1877213
  32.4892159  66.8377533  15.4458132  31.5687885  67.1076736  16.6166859
  85.5018082  13.8076038  23.1124249  85.7164001  13.6457195  22.1937428
  84.8407211  14.4993267  23.0856705  34.3734550  38.3632774  23.2056179
  33.8443947  37.5976982  22.9815331  33.8160133  39.1110077  22.9902229
  42.7878342   4.1124711  67.7523422  42.9492874   5.0509114  67.8497772
  43.5394325   3.7905357  67.2546539  43.6637230  48.3097229  72.2923737
  44.2154045  47.5817757  72.0060654  44.1505737  49.0936470  72.0380707
  74.9917831  49.8890228  23.3807411  75.8166733  49.5146408  23.0715027
  74.3311157  49.2356758  23.1507702   0.2853526  26.1590958  21.9318390
  -0.3960706  25.4897041  21.9935703   0.7016146  26.1573315  22.7937870
  54.7185173  18.8127213  33.4284401  55.4259720  18.6584473  34.0544891
  54.7437477  18.0531197  32.8465424   6.0921168  71.2926865  66.8897171
   6.6404915  72.0670624  67.0156555   5.6226683  71.1943512  67.7180786
  27.9004211  19.7816486  28.6008644  27.7956104  20.0836430  27.6986198
  27.7666531  20.5659580  29.1330242  16.9909191  45.2906189  84.8010330
  17.2820568  44.9566879  83.9525299  16.0680084  45.5075951  84.6691666
  11.7082863  43.5380859  43.6236038  12.3058310  43.3859978  44.3557510
  11.2285061  42.7149963  43.5310593  67.3899994  71.0226898  66.1642151
  66.9663849  70.5830536  66.9014435  67.8230743  70.3182983  65.6820297
  63.9094772  46.0051308  41.5588722  64.7397995  45.9265137  41.0891647
  63.8245087  46.9411697  41.7400932  37.0029678  50.0118637   8.0553083
  36.8123131  50.9017029   8.3520794  36.1424980  49.6148834   7.9203086
  76.0971375  66.5446625  52.3193512  76.6360092  66.3843079  51.5446663
  76.7248077  66.7758942  53.0040398  55.2434311  14.7290735  11.5381308
  55.1040421  14.5505724  12.4681530  54.9594460  13.9292574  11.0955477
  32.7747192  50.2094688  85.6582184  33.7143784  50.0938950  85.7993393
  32.4787369  49.3666763  85.3142319   7.7651701  18.0144291  88.7091446
   8.0368433  18.9223766  88.5747604   7.0833735  18.0650883  89.3790894
  80.2882690  70.6584167  62.4512978  79.5248947  71.0951080  62.8291855
  80.7378082  71.3452682  61.9589806  69.8222580  27.5261536   3.5716496
  69.6911316  26.8762074   2.8812814  70.2375717  27.0391197   4.2833676
  40.7566299  43.5566635  31.4629478  40.0207939  44.0757408  31.1383858
  40.5906792  42.6735306  31.1331520  58.2578735  61.8714104   5.0752988
  57.6193504  62.4776115   4.6997476  59.0704041  62.0575981   4.6048069
  51.0591812   4.9675150  29.4436340  50.8678017   4.7139516  30.3465786
  51.9984093   5.1521025  29.4406357  19.8097992  19.2397270  77.4324646
  19.0899410  19.5111847  76.8629456  20.3097630  20.0415516  77.5852585
  18.1234226  10.3557892  62.2252388  17.4538593  10.7397738  61.6591339
  18.7680206   9.9898367  61.6195946  58.8597336  60.6162071  71.6790390
  58.1572266  60.2751656  71.1254959  59.6530762  60.1986885  71.3436050
  36.4910431  58.6738663  51.1829872  36.5810471  57.9855309  50.5239525
  35.8776932  59.2980576  50.7951508  38.3340492  10.7948904  29.7774048
  37.9273109  10.3622894  30.5281715  38.5148277  11.6840382  30.0823135
  71.4534454  13.1840048  63.4487114  70.9128723  13.5706110  64.1375885
  72.3455429  13.2242937  63.7933426  13.6802301  23.6081314   1.9584491
  13.9393244  24.0842419   2.7473860  13.9650517  22.7082176   2.1173992
  23.1394157  59.0336189   2.3815989  22.8750019  58.3480644   1.7681390
  24.0808792  58.9033051   2.4951572  32.4054565   4.4971223  68.1872253
  32.1875000   4.2661905  67.2842255  32.3568611   3.6689105  68.6646500
  60.1605682  48.3198128  68.0900879  59.5062485  47.7303543  67.7150726
  60.2330894  49.0322952  67.4549942  11.3415213  32.5909386  19.4915676
  11.3107910  33.5459213  19.4341793  10.4985685  32.3027039  19.1414452
  57.3870621  69.4424896  53.4551735  58.1206894  69.7086792  54.0093994
  57.3495827  68.4905701  53.5483208  86.6447906  51.1199837  10.0730429
  86.7545166  52.0595512  10.2193356  85.7417297  51.0287743   9.7690678
  66.3925476  57.7485771  69.1519699  65.5335007  57.8759956  69.5545044
  66.9993896  57.7059402  69.8909912  41.9558372  32.9814606  23.0912666
  42.0300941  32.6205673  23.9747105  41.1907272  33.5553093  23.1304913
  56.7030296  37.4219475  34.0966034  57.2686729  36.6883011  33.8556862
  57.2988815  38.1663933  34.1802063   1.4537343  21.7075119  14.2251196
   0.7403576  22.3343315  14.3452168   1.0984914  21.0525990  13.6241856
  84.2465134  49.5963745  59.3670235  84.3159103  49.3305206  60.2839432
  84.2915649  50.5522194  59.3907204  19.0209827  12.4282761  12.1818657
  18.4749870  13.0306187  12.6871405  18.5393982  12.2961349  11.3652592
  14.0752039  48.8442039   6.8999734  13.1345787  48.6670723   6.9089298
  14.1391573  49.7936630   6.7966976  36.8032455  13.5540876  68.2829742
  37.4325104  13.6373415  67.5665054  36.8785629  12.6419039  68.5631104
  74.4698639  15.2900467  32.1637192  74.7355347  14.6968660  32.8664207
  74.3826599  14.7266321  31.3948288  22.6869049  39.4900703  77.4375610
  23.1544342  40.3078766  77.2677231  21.8040962  39.6446152  77.1014099
   2.1283026  60.5585213   9.3796701   1.8077104  60.6327057   8.4808092
   3.0025275  60.1787834   9.2915821  58.2152748  11.6535110   1.3210706
  58.6760559  11.2090797   2.0326838  57.5837593  12.2214451   1.7625141
   5.3442206  18.6801300  31.2145023   5.9772439  18.2369556  30.6496048
   5.8684111  19.3004971  31.7210617  70.6769638   9.9483786  75.2606430
  71.0229950   9.0642929  75.1386185  70.8482590  10.3895741  74.4286346
  19.5746460  19.0602684  22.9074211  19.3886814  18.1513939  23.1432133
  20.2200546  19.3479691  23.5531044  10.4866390  16.9731369  73.4059372
   9.6342754  17.1270237  72.9984741  10.4355707  17.4273434  74.2469635
  59.0046806  69.9479904  55.8443108  59.8978348  70.2875824  55.9007416
  58.5620117  70.3095627  56.6121292  58.9178658  44.8708725  85.0311356
  58.1134872  45.3653870  84.8740921  58.6848259  43.9644432  84.8303604
  33.7490311   3.7213781  50.7316589  32.8635750   3.8774891  50.4032860
  33.8470917   4.3369727  51.4580612  56.4698219  10.8378878  40.1737633
  55.5185051  10.9176455  40.2435341  56.6235924   9.9004726  40.0561256
  62.0845146  48.0874519  16.4109306  61.7953606  48.3092537  15.5258179
  62.6003456  48.8436012  16.6909180  12.9847784  63.5152512   3.8560452
  13.0618401  63.7885017   2.9419188  13.8011723  63.0491753   4.0363460
   7.2119722   1.7464302  48.9441566   7.9816785   1.8453579  49.5045090
   6.9343033   0.8399928  49.0764542  17.2921791   4.5878305  11.7853060
  17.4721718   3.7217777  11.4195366  17.1971531   4.4356966  12.7255487
   5.3337178  52.0587120  37.7352219   6.1203356  52.1229477  37.1936150
   4.6516094  52.4879112  37.2187462  24.4514103  51.3867912  16.6357632
  24.7262707  51.6985817  15.7735147  24.6020908  50.4419327  16.6080246
  45.7616348  69.9004593  60.7880135  46.1042366  69.7301865  61.6654358
  46.5203285  70.2036285  60.2893181  60.0517502   4.8657188  44.3618584
  60.0083923   4.4724922  45.2334824  59.5324821   5.6665587  44.4342957
  75.4413910  39.6841812  85.9227905  75.6211319  39.8741417  85.0020142
  76.2802124  39.8197823  86.3634949  86.0473557  26.3248234  24.6693497
  85.1610794  26.1630802  24.9927483  86.4978943  26.7418633  25.4037342
  52.8503151  21.0910892   1.3356336  51.9232635  21.0840054   1.0973955
  53.1313438  21.9923553   1.1775948  65.0473862  59.1189957  24.0891609
  64.3288803  59.7107658  23.8660336  65.3092194  59.3821564  24.9714432
  40.2498055  60.6956444  38.7056236  40.5060883  61.5445137  39.0661392
  39.3662186  60.8367310  38.3656235  76.5539093  43.0151901  48.6704369
  76.5298386  42.0674744  48.8026695  75.6431808  43.2936554  48.7666664
  61.2709541  63.7758827  26.8294334  60.6494560  63.7780838  27.5574207
  61.5245667  64.6933060  26.7282486  66.0525742  53.4144211  64.5415115
  65.2135620  53.8499298  64.6919174  66.6477585  54.1210670  64.2912292
  61.7288055  42.1264076   5.8082142  61.5510483  42.1866684   6.7468324
  62.2355843  42.9137306   5.6093888  56.7307854  51.1589890  47.9437523
  55.8201256  51.4526749  47.9697876  57.1040268  51.6031876  47.1824303
  81.0639572  41.2869911   6.4232163  81.2957153  40.3706322   6.5742412
  80.3680420  41.2530022   5.7668734   1.8478662  36.5513000  60.6219139
   2.0430157  35.7147141  60.1996841   1.4739110  37.0900192  59.9246559
  15.7901583  14.0631313   9.3202896  14.9271727  14.3592119   9.6098118
  15.8927622  14.4416857   8.4471331  19.8965111  23.2546024  72.2717209
  19.3719540  23.1348438  73.0633774  19.3019276  23.6774445  71.6521149
  78.4077759  21.3952141  46.6907959  78.3349457  22.2503510  46.2669220
  79.1789169  20.9941006  46.2899361  22.6352139  62.8449478  44.0782661
  21.7335892  62.9890823  43.7909927  22.5663795  62.7065048  45.0228958
   6.8755159  51.6856995  18.5059509   6.5079503  51.0903282  17.8527584
   6.2963753  51.5977631  19.2629814  42.6244698  64.8398132  75.0042572
  42.9233322  65.6974335  75.3065796  43.2984543  64.2310562  75.3065643
  58.9238930  51.1444054  71.6108627  59.3427849  50.2990341  71.7724533
  58.5382919  51.3855247  72.4531250  69.6422501  31.5684643  74.0920410
  68.8996277  31.4350395  74.6810608  69.2698441  32.0225143  73.3361435
  42.4294662  55.5536385  20.6891670  42.6500320  55.2620659  19.8045387
  42.9023743  54.9522743  21.2644482  81.0392685  13.4333887  23.8833313
  81.8164825  13.4023161  24.4411869  80.4386978  14.0210419  24.3418217
  86.2923126  66.0113831  14.9990788  86.5192337  66.0410233  15.9285212
  86.8431244  66.6827927  14.5965271  32.1910896  17.4271545   2.6595974
  31.2418652  17.5405846   2.6112084  32.3309860  16.4982643   2.4756904
  13.2158031  15.5343084  68.3433762  13.2246504  16.4336510  68.0157547
  14.1345139  15.2658854  68.3311157  42.3363609  50.9395218   7.9292350
  42.2685890  51.8499298   8.2169800  41.6519432  50.4823112   8.4178667
  45.6609840  51.3254662  78.3489685  45.1786842  51.8794861  77.7352295
  45.5572891  51.7594833  79.1957855   4.7065582  12.0461760  72.3733444
   5.3812466  11.6748571  71.8048859   5.0890012  12.8613558  72.6980820
  78.8443069  32.3357010  88.4922714  77.9551086  32.0764809  88.7338638
  78.8602982  33.2842178  88.6199112  78.8373260  54.3535042  62.4535103
  78.1886520  54.4168282  63.1545372  79.2101135  55.2329788  62.3919792
  38.3431396  68.6082001  16.8091373  38.5276947  69.4066391  17.3037796
  39.2062759  68.2613373  16.5835075  56.4854431  40.2020111  27.1476078
  55.9361343  40.8311195  26.6799393  57.1959572  40.0043640  26.5374107
  68.8751678  54.6215744  35.3363075  68.5884857  53.7568779  35.0424614
  69.0885544  54.5015030  36.2616615  66.8126907  60.7456245  31.8596153
  66.4268112  60.0413322  32.3804741  66.0653915  61.1656380  31.4337482
  73.9958038  57.1222076  79.7298508  73.5090256  57.7895126  80.2135696
  73.8157654  57.3143959  78.8095856   3.7681186  62.6277771  83.0192413
   3.4170861  62.7035370  82.1319580   3.3256593  61.8629608  83.3873672
  79.3442459  28.4164524  45.4346466  79.7194138  28.1206055  46.2640762
  78.7360458  27.7206898  45.1851692  79.8904419  60.1606674  73.6347198
  80.3991470  60.1656036  74.4455414  80.4366455  60.6330147  73.0064087
  84.8708115  19.7424412  28.4244404  85.1086426  18.8694954  28.7369061
  84.7873001  20.2672825  29.2205563  84.0285110  13.6160078   6.7839637
  83.8153610  14.5434141   6.6804471  84.4364929  13.3699064   5.9537735
  67.4511414  16.4239807  47.4539490  67.9280090  16.5291882  46.6306839
  68.1088028  16.1065960  48.0728073  78.7315826   8.7968645  49.4795647
  77.7840271   8.7765293  49.3455772  78.8419876   8.6965113  50.4250641
  51.2371254  56.8723679  45.0818825  52.1250000  56.5569115  45.2503967
  50.7285652  56.5696182  45.8341713  37.9757462  51.0487595   4.7520695
  37.7908745  50.1505356   5.0263858  37.2203903  51.5522041   5.0557427
  35.2247047  55.2933006  37.1700401  35.9916000  54.7862854  37.4365768
  35.2266159  56.0538750  37.7512054  81.9412231   7.6016359  42.3928146
  82.5811081   7.8690376  41.7330627  81.2875290   8.3008509  42.3896904
  82.9888687  69.0611572   0.5366623  82.6184311  68.2102966   0.3020639
  83.8058014  69.1117706   0.0403897  17.4538326  18.9654694  12.1228447
  18.1752205  18.9985371  12.7511272  17.7802029  19.4399109  11.3582401
  54.2264862  41.2333298  18.7734985  53.9403229  41.7193718  19.5468712
  53.5395889  41.3887291  18.1252270  59.8307114  50.4675255  53.3392487
  59.6526985  49.7380524  52.7456055  60.6884155  50.2674255  53.7141304
  10.7613888  34.2227402  69.7104034  11.5181913  34.8088112  69.7104187
  10.3444481  34.3699837  68.8614578  45.5904579  12.2823496  73.9731979
  45.4276428  12.1399012  73.0407639  45.2306938  11.5051098  74.4006271
  64.2384033   5.2485590  62.3269157  63.4315453   5.6714787  62.0330582
  64.6561050   4.9436979  61.5214233  86.0766525  55.8764992  15.5362759
  86.5000076  56.6765747  15.2250195  86.1927032  55.8980827  16.4861679
  77.5220337  29.4415112  71.4270782  77.1499405  30.1580257  71.9412613
  76.7771530  29.0786667  70.9477844  61.8378410  -0.0553410   0.2892961
  61.5016518   0.6288374   0.8681816  62.7896690   0.0200755   0.3568997
  32.6080132  67.2761230  10.3041258  31.9803085  67.0235367  10.9811935
  32.3179436  68.1429291  10.0199642  75.1014557  46.8251648  50.8809471
  75.5133591  47.5231895  51.3901901  75.6441269  46.7490692  50.0961189
  75.0304947  28.1007633  70.6811829  74.1945648  27.9182701  71.1103134
  75.2885361  27.2643147  70.2938843  85.0727844  32.4103775  85.3590851
  85.5070190  33.2598763  85.4367447  84.2052841  32.5492020  85.7390823
  54.7755890  41.7836189  26.0974426  55.0686913  42.6241608  25.7455750
  53.9039192  41.9624901  26.4501934  55.4253311  54.3384209  56.9937630
  54.8068237  54.5674248  57.6874733  55.3668404  55.0636063  56.3717346
  67.1678314  19.3751945  11.6668777  67.5709076  20.1570759  12.0442619
  67.3977814  18.6709003  12.2729492   5.7939215  65.4143372  21.4861202
   6.2806015  65.3171158  20.6676331   4.9815383  64.9294281  21.3407745
  52.3955116  49.5462227  77.2004089  52.7304497  49.4115944  78.0869293
  51.4614334  49.3471642  77.2644730  76.9668121  31.9830627  20.3083687
  76.9914703  31.7102985  21.2255516  77.5766373  31.3923416  19.8663349
  68.2929230  62.5282402  59.5423164  69.0867538  62.3950386  59.0243263
  68.4279404  61.9985085  60.3280525  44.8214417   6.7514095  71.0938644
  45.1343613   5.8485746  71.1504364  44.9705086   7.1117845  71.9680176
  71.3745728  53.6831779  60.7138786  70.6696548  53.0359116  60.7331810
  72.1268845  53.2293930  61.0937996  77.8926392   6.5352530  22.2315254
  78.5795822   5.8703284  22.2786102  77.7571640   6.8044138  23.1400566
  61.7526360  57.4831657  80.2710724  62.5457764  56.9765053  80.0965576
  61.3732414  57.0738792  81.0487442   9.2464466  34.5684013  82.6664963
   9.4490032  33.9154396  83.3364563  10.0953999  34.9447975  82.4344711
   1.4501368  16.0269260  12.7330627   0.7484752  16.1740475  13.3673010
   2.1340322  15.5800180  13.2318535  22.6703758  40.9583321  57.2927780
  22.6253033  41.5924950  56.5772095  21.9019012  40.4014473  57.1680412
  49.7627678   9.8648176  14.8787537  50.6965790   9.7055569  14.7414093
  49.6790695   9.9995260  15.8227243  12.6175337  61.1063576  44.5168381
  13.1016407  60.2815361  44.4775581  12.2632647  61.1340523  45.4056320
  42.7930527  10.4703522  69.0314102  42.3676071  10.2573004  69.8619690
  43.6964378  10.1739082  69.1420822  34.2142143  12.4855089  61.4081535
  34.9199600  13.0359077  61.7475929  33.4770622  12.6518564  61.9956627
  70.7229233   7.1806493   5.3105865  70.8486176   7.9025583   5.9264431
  70.0253601   7.4813790   4.7281795  85.0153656  40.0951004  80.2272949
  84.1328430  39.7254143  80.2006454  85.2716827  40.1696320  79.3080673
  72.1794052  28.8013630  34.6465683  72.4776535  28.4001255  35.4628334
  72.1078186  28.0705032  34.0326042  45.2406616  20.8040676  75.3025589
  44.9672813  19.9856319  74.8882370  46.1310234  20.9488697  74.9823685
  18.3670559  42.2705879  37.1725006  19.2754288  41.9904137  37.2847252
  17.9434566  42.0474930  38.0013695  47.4178886  58.0752678  69.1209946
  46.5951920  57.5890846  69.0659485  47.2024307  58.9484901  68.7934418
  73.3238297   8.4144983  46.2858505  73.2344284   7.4635715  46.3489189
  72.5749359   8.7583008  46.7728729  59.8505554  41.9479446  63.4677620
  59.9921875  41.2681046  64.1265411  60.6453590  41.9340515  62.9345398
  79.1115189  61.5214844  87.6932526  79.9773178  61.3626137  87.3172379
  78.5864639  60.7728271  87.4103088  15.8180933   1.3089205  20.3724327
  16.4489460   1.9474192  20.0399036  15.4485064   0.9058716  19.5868187
   8.5271597  28.8276005   3.2402530   9.3640928  28.7342033   3.6952829
   8.2608423  27.9298267   3.0419807   7.3118529  31.6919022  43.8423004
   6.6692400  31.0002823  44.0002251   7.7843266  31.4058781  43.0605125
  79.0870285  18.5787430  66.0615463  78.3871307  18.7034645  66.7024994
  79.4724503  19.4484749  65.9554825  48.3999519  51.7101059  86.7811279
  48.1803970  52.5322571  87.2194138  47.9849968  51.0345268  87.3174438
  19.2966080  64.4803848  60.5921249  19.4669228  63.5737114  60.8474007
  19.3541756  64.9743347  61.4100113   1.5794624  31.1994514  31.8804493
   1.5611780  31.3601685  30.9370155   2.3410058  31.6885433  32.1920166
   2.4150050  56.5715675  39.6704941   2.0348554  56.0367241  40.3673897
   3.2992730  56.2232552  39.5565643  58.9197006   7.9995422  40.5541611
  58.0996323   8.2485771  40.1278992  58.9671783   8.5604372  41.3283539
  26.2259388  53.8470612  20.6740913  25.4595470  53.4747086  21.1102467
  26.2965813  53.3574753  19.8546124  39.7276802   3.9620528  65.2356796
  40.4765701   4.4084110  64.8405075  39.1911316   3.6896045  64.4912872
   4.5656881  42.2070618  22.1423988   5.3427362  41.7171135  21.8733654
   3.8888884  41.5396461  22.2552223  55.4612999   6.1156554   1.1157165
  55.0380745   5.9743972   1.9625684  56.2840004   5.6299953   1.1751409
  61.3988686  60.4783554  73.8351898  61.2788620  61.3849068  73.5523529
  60.7125130  60.3381119  74.4874802  25.7252102  60.1957970  72.9405441
  26.3587532  60.7227135  72.4534988  25.0149078  60.8039169  73.1452103
   2.2462389  37.5922279  36.4177284   1.6573440  38.2375145  36.8089371
   3.1194804  37.9696808  36.5236168  26.5411053  68.9705582   2.9726439
  25.9094410  69.3507004   3.5831561  26.0641727  68.2578278   2.5474553
  67.0551529  37.0043449  71.2706375  67.8184509  36.8571053  70.7121353
  66.3083954  36.9532890  70.6740036  70.1964951  45.1324730   7.6541905
  69.2642212  45.3037186   7.5208507  70.4891586  44.7447701   6.8294082
  70.9068375  22.8422604  15.8938656  70.5321655  22.2087231  16.5058193
  71.4513931  23.4094105  16.4397869  86.3283081  36.0907135  58.0448647
  86.5201721  36.0391045  57.1085129  86.6695633  36.9439964  58.3126068
  32.8024445  19.0100250  35.6375885  32.0586166  19.2057838  36.2073517
  32.7569618  18.0637188  35.5009575  43.2800407  69.1558075  88.9173889
  43.6337013  69.7563858  88.2612915  42.3388634  69.1387100  88.7438354
  69.8023148  64.9377060  78.1564407  69.4303894  65.0010147  79.0361557
  69.9360962  63.9997902  78.0198898  85.0971603  41.7644005  19.4331074
  85.5763626  42.0252914  18.6466389  85.2342606  42.4855804  20.0473824
  55.8913040  23.4235611  83.9838486  55.5178108  23.2872219  83.1131287
  55.1483765  23.3311348  84.5802994  64.4301682   7.1745300  76.1586685
  63.8820114   7.4449172  76.8953171  63.8824997   6.5653419  75.6635132
  66.6903610  63.3253365  15.8485069  66.1624680  62.8450699  16.4863968
  66.7137756  64.2217407  16.1833858  48.9091759  12.4865055  78.7192001
  48.4814835  13.2497559  78.3309250  48.6014023  12.4747095  79.6254959
  43.0146217  25.8972340   5.5153151  43.8936195  25.5670433   5.7012563
  42.6201096  25.2270584   4.9572315  83.5823669  39.4448318  13.1809444
  83.0205917  39.5931473  13.9416294  83.0736389  38.8617401  12.6175385
  75.6596909  45.1342506  67.0499191  75.1243286  44.3576546  66.8871002
  75.1169281  45.8654633  66.7550201  81.1356735  53.5024033  51.5074959
  81.0963440  54.1774139  52.1850243  81.9793396  53.0721931  51.6467133
  18.1136837  25.4757538  25.3332462  17.3244305  25.1730480  24.8841572
  18.0991402  25.0213585  26.1755924  82.8342590  26.2874775  59.5842514
  83.1845703  26.9527588  60.1766319  82.6706314  26.7572174  58.7664490
  73.1040192  57.6820183  26.2207623  73.5258102  58.3083115  26.8090439
  73.8039474  57.0783920  25.9718380  80.5893097  22.8076096  79.3868408
  80.2590790  22.5127640  80.2355118  80.9115524  23.6940384  79.5500565
  48.9894104  32.5281105  15.7163076  49.5605278  32.6740112  14.9621391
  49.0066605  31.5804558  15.8500328  57.1509781  31.6238918  88.5492783
  56.8327332  31.4726486  89.4392624  56.8558693  32.5092812  88.3366165
  83.1196671  17.2626457  78.2862930  82.3462219  17.8004856  78.4558334
  82.7678680  16.4010944  78.0622482  85.7282639  10.9787941   4.5191870
  85.5815811  11.9246016   4.5320024  85.0898743  10.6289682   5.1407223
  19.0147476   7.1150942  83.4869690  18.3553066   7.7832928  83.3002014
  18.8564873   6.4333043  82.8340149  61.1504364  42.6782722  12.6612406
  60.8510437  42.2348862  11.8675108  61.0789986  43.6105347  12.4562559
  82.5172729  54.2958183  58.3038292  81.9267273  53.9587212  57.6301460
  82.9998169  53.5264053  58.6061401  37.8707733  26.4008503  81.3339691
  36.9303360  26.5791435  81.3298874  38.1793976  26.7619267  82.1650009
  37.9762726  13.6019144  31.1181126  37.8778458  13.2109919  31.9862843
  38.0806122  14.5382175  31.2874699  30.6625671  61.5459785  27.9811535
  30.9284801  61.9271774  27.1443672  31.4771729  61.4654350  28.4773026
  17.5067387  19.8627224  58.4343262  16.6670895  19.4048347  58.3948402
  17.4379005  20.5470562  57.7686081  55.8436394  17.0979710  21.0122681
  56.4049301  16.9799633  20.2459393  56.3026047  17.7449741  21.5479660
  47.3279533  50.5622330  11.6830950  47.8236084  51.0910110  12.3083563
  47.7811584  49.7192230  11.6700907  15.7148256  52.5953827  29.3525219
  16.4426250  52.3910980  29.9397259  16.0562477  53.2798462  28.7770443
  33.7393341  11.5970688   6.7103229  34.5496445  11.6975498   6.2107925
  33.2064362  11.0003443   6.1848030  32.3191338  52.5353165   3.0238059
  33.0496941  52.8340034   3.5653741  32.7240372  51.9698296   2.3661525
  42.1335907  60.3445778  75.0965958  42.8536339  60.8680725  74.7448502
  42.2442741  60.3924294  76.0461731  76.1131058  63.6820068  86.7630615
  76.8500061  63.8383369  86.1724854  75.7399597  62.8521080  86.4659805
  62.3506355  46.5745316  26.8220539  61.5105019  46.9119644  27.1327724
  62.3887672  46.8369598  25.9023209  49.7296562  60.0723915  46.3311005
  49.7763329  59.7347679  47.2255630  49.0208626  59.5744324  45.9238167
  41.2051201  59.8746300  31.4502373  40.9367142  60.0835037  32.3449783
  41.5343323  60.7022057  31.0995712  83.4341431  59.0990219  68.7569580
  82.9719391  58.7296448  69.5093918  84.3442993  59.1680107  69.0452271
  58.0527420  46.8179359  47.5700607  58.0739174  47.5333138  48.2056885
  58.2443390  46.0341797  48.0850830  41.4173813  38.8485298  22.0074329
  41.2031250  38.2926788  21.2581959  40.6384544  38.8128815  22.5626183
  86.9110489  55.3446999  35.0291023  86.2735138  55.9786682  34.7006836
  86.4060593  54.7766647  35.6109581   7.1555214  49.7595482  55.2089195
   7.6518011  49.6746902  54.3948326   7.1276560  50.7017593  55.3753357
  71.9426651  51.1394310  62.3515472  71.6398621  50.2706413  62.6156387
  72.4444427  50.9851227  61.5511475  51.3727684  60.9240570  86.2819824
  51.3898163  60.4069862  87.0873260  52.2421608  61.3216782  86.2341919
  84.8520813  49.0107574  42.3431664  84.8254547  49.5142059  41.5294952
  83.9327621  48.8477478  42.5541496  19.4724350   6.7443476  86.1177826
  19.3857384   6.9009123  85.1774597  18.5715942   6.7185259  86.4403534
  76.6579666  61.3751945  55.4828987  76.6053391  62.0864105  54.8444366
  77.5899200  61.3084602  55.6908264  86.7753448  54.0568657  51.2887077
  85.9672012  54.5056458  51.5371628  87.0444412  54.4815331  50.4741631
  52.6066284  67.2957153  20.3526630  52.6535568  68.0263901  19.7361069
  52.2083054  67.6704330  21.1382580  52.7649689  47.7148132  43.9271622
  52.8719292  47.6458664  42.9784622  52.1252708  48.4169388  44.0456696
  72.4336853  29.5785065  64.5611877  72.7476959  29.3748112  63.6802063
  71.7333527  30.2164917  64.4242859  75.1215897  60.4552269  73.9233170
  75.9019547  60.7201118  74.4102402  75.3500137  60.6035843  73.0056915
  65.9751816  71.6497650  63.8320770  66.4714279  71.8277359  64.6310196
  65.8356628  70.7028503  63.8427124  29.7081337  33.1656494  13.0494261
  29.2003860  32.4024544  13.3250313  29.7609901  33.0869179  12.0969343
  41.0206299  67.8514404  57.0498962  41.4743614  67.4075012  57.7663345
  40.5117607  68.5395737  57.4785614   3.1981897  58.3832626   4.0181360
   3.1450047  57.4535713   3.7965927   3.4666343  58.3955765   4.9368405
  22.9963779   8.6684856  13.0494890  22.3528748   8.4897184  13.7351837
  22.4924812   9.0865412  12.3512411  79.3771973  52.4746361  74.5532761
  78.9126053  52.0605125  73.8260345  78.7272720  53.0507698  74.9556427
  69.9470367  21.0522594  77.3630905  69.0751495  20.9157333  76.9924088
  69.8797760  21.8830032  77.8338013  80.6094284  56.4439659  36.0404663
  80.3668747  55.5520401  35.7917290  81.1132050  56.7717628  35.2954903
  61.1841431  21.5067368  60.7000809  61.7675629  21.0278664  60.1114044
  61.0824585  22.3656654  60.2900391  84.8535538   5.9234643  60.5573845
  84.3462372   5.1261730  60.4051018  85.7380829   5.6116443  60.7487259
  11.9103470  70.1119308  23.0857830  12.5877361  70.6164856  22.6354485
  11.4647131  70.7515717  23.6412106  72.3346100  22.0890789  48.2722778
  72.7142868  21.7090073  49.0645027  72.8627090  21.7317600  47.5583687
  78.3960724  66.2010345  57.6746025  78.5995407  65.3028564  57.4136391
  77.5683594  66.3964081  57.2353439  39.8686256   5.8288226   2.6457779
  39.4179726   5.8881655   3.4881685  40.7183723   6.2419181   2.7991123
   9.4161921   7.5031266  37.0745811   9.6922665   7.6971273  37.9703369
  10.0211029   8.0007668  36.5244293  27.4039822   5.3033986  55.0123062
  26.5632973   5.6018219  54.6652870  27.3369198   5.4444046  55.9566841
  62.4620476   0.6774376  15.7555447  61.7920341   1.3236464  15.5325499
  63.0970039   1.1627901  16.2823200  81.7133331   2.0880210  51.8094864
  81.1250763   2.8084195  52.0357857  81.5362091   1.9156423  50.8847427
   5.3265834  19.7656326  46.0382347   5.5056877  19.0949230  45.3792191
   4.5914865  20.2631531  45.6799889  11.9741430  40.6841927  37.8162842
  11.9183674  40.0885048  37.0691071  11.8375044  41.5537033  37.4400978
  69.9384537  53.5424042  31.9606724  69.9086609  52.6389198  32.2754135
  69.2894516  53.5726814  31.2577419   7.9534230   9.8633556  32.4054565
   8.5124941  10.2109709  33.1003189   8.3993921  10.1076488  31.5944920
  73.7592545  31.7658863  49.6991119  73.0002136  32.1618500  50.1272430
  73.8616867  32.2616310  48.8867226  75.7143173  10.9012079  42.2875557
  75.0944824  10.4088182  41.7494240  75.2442398  11.0650530  43.1051216
  34.9235649  17.9519386  83.3888016  35.1511040  18.2335396  82.5027084
  35.4621391  18.4996700  83.9599075  30.5451565  50.2096558  87.5303421
  31.4745522  50.2263222  87.7587662  30.5233612  50.4305534  86.5992355
  79.4175034  41.2284431  58.7898712  79.2263489  41.2164726  57.8520279
  80.3382263  40.9736862  58.8499107  12.2855282  10.3159227  15.8212709
  11.9747629  10.9749222  15.2004833  13.2376719  10.4141321  15.8181906
  45.2813187   0.0098085  11.3208447  44.9538879   0.9069709  11.2566395
  46.1329002   0.0957316  11.7493963  53.0276260  13.3478651  16.2520580
  52.4187775  13.4631577  16.9816093  53.8920898  13.3269920  16.6625443
  22.3727417  61.6391945   2.4805465  22.7330055  62.0586624   3.2618849
  22.7244968  60.7492447   2.5027113   4.2118011  59.2042923  61.1642303
   4.6854901  59.8087425  61.7356262   4.8405838  58.5065308  60.9798622
  81.3645401  43.2459793  69.5070496  81.8502121  43.2946968  70.3304443
  82.0196304  42.9912262  68.8572845  67.3282394  59.9784737  68.2415085
  66.5362778  60.3209724  67.8271255  67.0632324  59.1321793  68.6017685
  16.9777470  18.9994659   9.2069035  16.0575085  18.8499565   9.4237909
  16.9581757  19.6856861   8.5398579  17.5429497  33.3184967  87.2596588
  16.7457676  33.7967033  87.0315094  17.9210300  33.0672951  86.4169312
  72.2085876  48.6621857  36.9847603  72.5994949  47.9210930  36.5219383
  71.7666245  48.2685852  37.7370796  82.1032867  23.7257328   5.1848693
  82.9113770  23.9800415   5.6304688  82.0452194  24.3198471   4.4366112
  52.7548599  51.5559464  31.3273544  52.3737335  50.7428932  30.9958096
  53.5771751  51.6486244  30.8462715  79.6396637  33.7755623  47.2902870
  79.1030350  34.4662857  47.6790886  79.5009308  33.0168114  47.8571053
  17.5778198  62.6796455  45.9430809  16.6981106  63.0557823  45.9725037
  17.6519699  62.3124580  45.0622253   0.6882383  64.4825974  41.3154144
   0.8317283  63.6293335  40.9060555   1.5666405  64.8473740  41.4230232
  35.2930641  67.0189209  47.1548042  35.2573624  66.4407578  47.9168282
  35.1218300  66.4434586  46.4093132  57.9704628  18.6159096  10.7051582
  57.0471039  18.4882412  10.9227457  58.0642509  19.5632629  10.6053791
  36.8958969  54.6513214  24.4186802  36.2084084  55.3105202  24.3235474
  36.9895248  54.5376778  25.3644886  10.4618664  40.9227219  46.4144745
  10.1165924  40.9911041  45.5243416   9.8605614  41.4450111  46.9453964
  69.2899399  27.8332367  86.4139328  69.0788651  28.3888035  85.6635818
  70.2308655  27.6749096  86.3375626  46.2939224  68.1180191  14.1517773
  46.0194893  68.0066757  15.0620089  46.6491356  69.0061340  14.1156368
  50.4178886  31.8436184  69.5347672  49.7005882  31.4571934  69.0323868
  50.6089554  32.6667671  69.0851593   7.6797009  62.9302979   3.0000050
   8.1747217  62.2122955   3.3945405   8.3011503  63.6573563   2.9623358
  41.9265518  65.6070480   4.0346379  41.6452217  65.5218964   3.1236844
  41.1416397  65.8929291   4.5019884  43.1450577  62.8415184  83.3192978
  43.7894211  63.5209236  83.1207123  43.6603317  62.0388451  83.3995667
   2.6206825  60.2405167  76.9462814   2.6436911  59.2878761  77.0367126
   3.4261634  60.4560013  76.4761810  21.5423183  62.1628113  55.6354599
  20.9031372  62.3533897  54.9489021  21.1143856  61.5068016  56.1856918
  52.1210213  29.1215210  18.6139431  51.7678719  28.2401161  18.7349644
  52.5198860  29.3375511  19.4568348  64.5847778  11.4398956  62.2003403
  65.4626465  11.0888262  62.3497696  64.0201797  10.9274340  62.7789993
  68.8907013  44.6298256  80.7064056  69.1686478  44.0625420  81.4255524
  69.3733978  44.3062363  79.9457932  26.4629478   1.7065951  65.3071976
  26.2197914   1.0592376  65.9690399  26.4323368   1.2263089  64.4797821
  34.7305908  63.2887001  28.3293648  35.1786156  62.6340637  27.7936802
  34.1007767  62.7855263  28.8454952  83.0453644  49.9853096  49.8637276
  83.1662216  49.0862579  49.5582161  83.7295303  50.4840317  49.4171524
  85.9416580  49.4826431  63.4800758  86.0769424  50.2913361  63.9739838
  85.0082474  49.4848061  63.2680244  74.1258698  44.0774193  42.8328705
  73.8719940  44.0496941  43.7553711  74.3436813  43.1706581  42.6170425
  56.3373909   8.8320494  68.8905792  55.6231575   9.1700420  68.3503418
  56.4475021   7.9259062  68.6024628   5.5587630  30.0683556  57.3135796
   4.8212008  29.8475666  56.7448196   6.3022137  30.1587543  56.7174759
  84.0045319  35.9955826  79.6652451  84.8760834  35.8035965  80.0113144
  83.9780579  35.5465355  78.8203278  68.6683655  35.9278221  35.1534348
  68.9931107  36.3734741  35.9358482  68.9718933  35.0250282  35.2486572
  38.2568207  48.4622726   6.1129546  37.6723824  47.7071533   6.0461802
  37.9302254  48.9519081   6.8678217  31.7070770  56.4143257  88.8861008
  32.5585785  56.0183754  89.0715866  31.9155846  57.2210350  88.4149551
  54.7775192   0.7339905  42.8886719  54.9372711   0.1847070  43.6561356
  54.9895515   0.1718684  42.1434937  34.8100395  25.9460964  88.7700500
  35.5048141  25.4529972  89.2063751  34.2711983  25.2775364  88.3470764
  69.3782806  54.3131180  76.2798233  69.6153870  54.9092064  75.5694122
  69.8017960  53.4860649  76.0499344  77.0047150  67.8227539  62.1178169
  77.0918198  66.9869843  61.6594162  77.2070236  68.4821701  61.4541321
  34.2659721  57.1439743  12.1013241  33.8981209  56.3901367  11.6401854
  34.6641579  56.7723045  12.8884335  82.2110443  55.5029068  53.1535187
  82.9698181  55.2741737  53.6903343  82.4301834  56.3567696  52.7805176
  61.3874893  16.4313869  81.8155670  61.4016228  17.3418598  81.5204926
  60.8115082  16.4362946  82.5800629  64.8757629  17.1677570  80.0158157
  64.7303467  17.8784733  79.3913422  65.7960587  16.9315128  79.8997726
  21.8274422  65.2812271  15.4743319  20.8988075  65.0536728  15.4286394
  22.1564484  65.1237717  14.5893488  50.3042030  57.0522881  13.8897257
  51.0999603  56.6024361  14.1736927  49.6822929  56.3475304  13.7086849
  71.9703369  52.1583328  83.3312836  72.2986832  52.4219780  82.4716873
  71.1283340  52.6060715  83.4136887  44.8760910  33.7139893  66.1271744
  44.4047241  33.2225761  66.7999039  44.6252136  34.6255798  66.2764969
  13.1690264  43.1533470   9.7245092  13.6641712  43.6347466   9.0616980
  12.2868843  43.5221405   9.6792631  27.2351513  21.8432350  16.1245232
  28.0975609  22.1084156  15.8048983  27.4193649  21.1738930  16.7835197
  85.9875259  55.9581680   4.1630030  86.2230759  55.2084198   4.7094626
  86.5402374  56.6710281   4.4832678  22.4078732  56.3905487  36.7919312
  23.1385269  56.1917801  37.3774834  22.2263775  57.3183556  36.9418221
  57.2624550   2.8776696  76.2542038  56.4202995   3.1587825  76.6119537
  57.1275063   1.9603195  76.0165329  66.7548294  31.6318531  12.3556166
  67.2572632  30.9167156  12.7459612  65.9859467  31.2055798  11.9770002
   1.1282446   5.1963000  83.5225601   1.7452507   5.8360181  83.1671753
   0.8410706   4.6920190  82.7613373  59.5916634  70.5242157  66.7947083
  59.7178764  71.0675583  66.0168457  60.1537399  70.9228439  67.4590836
  65.6076126  15.3870344  30.7740822  66.1867371  14.6639843  31.0149975
  65.0611115  15.0326796  30.0726490  17.3400478  42.1427498  31.4562359
  17.6668930  43.0119057  31.2239170  16.5414009  42.0409279  30.9385223
  13.6432629  18.4328861  67.2581940  14.0651588  18.6923828  66.4391098
  14.3472815  18.4510288  67.9064713  10.4283943   0.1542982  54.5994301
   9.8824587   0.8381951  54.9873352  10.9547491   0.6113189  53.9434471
  12.8715725  53.8211212  38.7454185  13.1342897  52.9294586  38.9737778
  12.0144596  53.9311333  39.1571045   6.0938816  56.0167427  25.7982731
   5.9379621  56.5344734  26.5881310   6.9903355  55.6955719  25.8954964
  76.0542755  66.9141922  56.4177246  76.4109192  67.6527939  55.9242592
  75.5715637  66.4029388  55.7682266  54.1365089  67.4954834   4.9281363
  54.1514893  66.7544861   5.5338807  54.0262108  68.2622604   5.4903789
  50.0797577  71.2319031  62.0464020  50.0280724  71.4384766  61.1131897
  50.9475288  71.5367508  62.3114929  76.4726639  57.2624779  56.1297531
  75.9208450  57.7935753  55.5555916  76.0792770  56.3903465  56.1004105
  84.0070572   6.3801589  39.6591759  83.1256866   6.6604085  39.4124298
  84.5697556   7.1139112  39.4117661  65.0193100  19.8473454  85.6861801
  64.7079163  20.5226650  85.0835114  64.2646255  19.2721424  85.8119888
  15.5687618  10.4266930  49.2857819  16.4358692  10.2873116  49.6664810
  15.2002058  11.1528416  49.7888794  39.6486168   3.1146419  23.9542294
  39.8650246   2.1994243  24.1324863  38.7143936   3.1826231  24.1513119
  24.3672218  35.4612808  19.8050938  24.4443836  34.6705933  20.3390312
  24.2690544  36.1705894  20.4402905   9.4182796  25.3999710  82.5061874
   9.7973518  24.5578270  82.2545395   8.5401049  25.3906841  82.1254578
  42.4938240  71.0193787   4.9594011  41.5831985  71.2775955   4.8168530
  42.4443016  70.0985718   5.2160974  61.2864456  23.3210506  64.8730316
  61.7141762  23.8960781  65.5075607  60.5485497  22.9432125  65.3515472
  80.4003372   3.8841851  15.2860975  79.9739990   3.0868118  15.6001997
  80.1473694   3.9440751  14.3648748  46.9356956  23.7592449   3.5690548
  46.9871826  22.8088646   3.6708229  47.7292442  24.0886440   3.9909647
   2.3128898  10.6578674  64.4594879   1.8951272   9.9171038  64.8987808
   2.0969574  10.5405254  63.5343742  58.5489922   8.3097057  13.8205767
  58.1823883   8.4093323  14.6991606  58.2133446   9.0627031  13.3341932
  79.4586868  43.6862984   6.6104598  80.1774902  43.0984879   6.3780160
  79.5070267  43.7584839   7.5637093  57.5604439  68.9390717  65.8562775
  58.2507248  69.4164047  66.3166046  58.0241165  68.2577133  65.3694611
  28.9548359   9.8426905  84.6482925  29.6478539  10.1488886  85.2332687
  28.1510696   9.9362926  85.1595917  61.0015068  15.9639645  51.0911522
  60.0894203  15.9322863  50.8024864  61.4940834  15.5675831  50.3724861
  62.6754112  67.6300964  18.3729000  62.3927727  68.4231873  17.9175396
  62.4803276  67.8005753  19.2943726  16.7463875  19.9049568  55.5677872
  16.3933525  20.3032722  54.7722130  16.8987656  18.9902687  55.3303909
  85.1291275  57.8358498  86.6551590  85.0338058  58.6148338  87.2031784
  84.3197403  57.8011780  86.1453171  41.0653152  59.7252617  62.7069054
  40.9250374  58.7973557  62.8954430  41.8454056  59.7417450  62.1524506
  47.3515892   4.9195647   6.8324509  46.4886284   5.2574048   7.0720191
  47.7862129   5.6560602   6.4024382  69.5397797   8.8962088  19.8282623
  69.5958939   7.9735398  19.5797367  70.1354675   8.9803705  20.5727787
  32.6515732  26.6194992  78.8913116  33.3221970  26.1088181  79.3448563
  32.9757004  26.6971684  77.9940186  63.6078300  55.1627617  68.6026382
  64.4101639  54.8706589  69.0352783  62.9374580  55.1158714  69.2842789
  50.1122665  20.5920925  16.0406246  50.0889320  19.6469936  15.8907127
  49.1936111  20.8603325  16.0218372  63.5214233  46.6323700  35.0475845
  63.8550644  47.0507011  35.8412590  62.7235603  47.1179619  34.8381805
  80.5025330  43.3592224  74.5504150  80.5625534  43.3972702  75.5049667
  80.3263168  44.2619438  74.2853317  22.2220993  34.6274414  24.6240005
  22.3859081  34.0088730  25.3358784  22.9593372  35.2367744  24.6617718
  69.4653549   2.0810773  45.3753433  68.5321579   2.1879780  45.5595894
  69.9050980   2.5117643  46.1083984  16.7583771  57.8638916   8.3329954
  15.9527349  57.6192131   8.7883034  16.7453403  58.8209229   8.3206930
  81.6903610  51.2554779  76.0230331  82.2461090  50.6793900  75.4981537
  80.9547424  51.4673538  75.4484024  77.0861511  46.6946373  63.6412125
  77.0531006  47.6050491  63.3474579  76.3620605  46.6169662  64.2624130
  45.2697029  20.8643761  32.3996849  45.7542419  20.3335171  33.0318604
  45.4079514  20.4238930  31.5611782  40.5984917  48.1859131   8.8278522
  39.8664894  47.6231461   8.5754700  40.4748154  48.3336754   9.7654572
  38.8964272  19.2842636  22.9670830  38.2530556  19.1310463  22.2751102
  38.9348755  20.2369404  23.0517082   6.6378322  51.4884186  61.8397179
   7.0462232  51.9079018  62.5970039   7.1629462  50.7023964  61.6891975
  16.9317398  44.5134048  69.0007401  17.0484715  43.8850975  68.2881165
  16.9971981  43.9868622  69.7974167   3.5291331  11.9324837  83.3490906
   3.0683692  12.4977741  83.9690704   3.1089272  11.0779457  83.4461670
  24.5935841  58.3803520  54.8009224  23.7546043  58.3057747  54.3461914
  24.4488220  59.0582809  55.4609909  21.0233154   3.9242496  46.4585304
  20.8329544   3.8448074  45.5238190  21.1061192   4.8662519  46.6068802
   3.7381718   6.4851246   5.3969750   3.9254842   7.2336721   4.8305631
   2.8461540   6.2266626   5.1651711  57.2671661  69.6913605  72.6773300
  56.4784966  70.1193542  72.3440857  57.8810921  70.4088745  72.8338623
  72.4422836  13.0296907  50.2527847  72.4164352  13.1219883  49.3003960
  72.9513474  13.7827845  50.5526772  62.1628952   6.5174074  24.5436497
  62.6020279   7.3172293  24.8329239  62.5516396   6.3260269  23.6901360
  14.7729044  63.8025742  45.8068695  15.2474213  64.6297379  45.7239914
  14.4846239  63.6015778  44.9165154  10.8703203  15.9653749  69.9865112
  10.4262657  16.6794052  69.5291214  11.5943289  15.7243690  69.4086227
  54.5524597  50.4958115  27.9183006  54.1083488  50.4323654  27.0727406
  54.5360718  51.4296188  28.1279755  11.6298809  21.5158710  34.5598221
  12.1634789  21.8531418  33.8402710  10.9358816  22.1660824  34.6685562
  85.9236145  62.6055489  32.8410797  86.4595566  61.8154831  32.9103470
  86.4998550  63.3121605  33.1324310  20.8078079  65.8783112  49.1014214
  21.2549210  65.3231201  48.4626007  21.4715633  66.0603790  49.7666359
  10.9600925  37.2753181  68.0606842  10.3421421  37.9354401  68.3746948
  10.4099655  36.5355415  67.8031540  81.6966705  27.3148098  29.8138638
  81.6351700  26.6344872  30.4843941  81.5699692  28.1343765  30.2918720
   9.2058430  61.1878433   4.4535542   9.8875093  61.8347816   4.6353059
   9.3887796  60.4703026   5.0601039  11.6009264  55.5162735   1.5426342
  12.4561319  55.6049957   1.9633294  11.7232027  55.8905678   0.6701749
  15.0994644  71.3512955  53.6179924  15.3313446  70.7114868  54.2911263
  14.5176096  71.9672394  54.0632896  56.0475693  21.3353539  70.0282440
  56.5578232  22.1449528  70.0077362  56.7006111  20.6388607  69.9599533
  26.7423306  30.2876492  88.7572250  25.9323826  30.5351791  89.2032547
  26.5616169  30.4411755  87.8298569  53.9116669  13.1785746  63.4111671
  53.4066925  13.8562746  63.8605614  53.4040680  12.3772011  63.5391273
  67.1309662  24.6489487  79.5945740  66.9576340  25.5226746  79.2441559
  67.2840347  24.1066036  78.8208466   5.6965384   2.1261828  73.3041000
   6.4201140   1.8465978  72.7433014   4.9481168   2.1976061  72.7116547
   1.9452027  45.3520775  49.9988403   2.6819735  45.1938667  49.4086113
   2.3426940  45.7353859  50.7807007   8.6473913  23.0337505   7.2141957
   8.6628685  23.9808369   7.0762920   9.4360600  22.8532753   7.7257257
  52.5794411  58.5791626  33.1852989  52.9472809  59.0697632  32.4502907
  51.6688232  58.8698311  33.2355042  13.1248922  10.2683487  62.1311226
  12.6199627   9.9837589  61.3693581  12.7176418   9.8171587  62.8705864
  25.0126305  66.2610626  13.4721966  24.6115303  66.6237717  12.6823883
  25.9135437  66.0650864  13.2149458  82.6079025  37.0120811  74.0129852
  83.3256836  37.5182838  73.6324921  81.9193268  37.6570435  74.1745911
  64.1672516  14.0566788   3.3565984  63.7215385  14.7930498   3.7753208
  64.9251099  14.4500504   2.9239969  77.3106155  37.7738228  56.0609245
  77.4341583  37.1986389  56.8159943  76.4591904  38.1850700  56.2098808
  35.8619919   1.8810823  14.7952967  36.6883583   2.0761728  15.2372141
  36.1145554   1.6745175  13.8954210  44.5679817  12.8870363  48.8676109
  44.0950127  13.6476927  49.2051506  44.0487137  12.1356649  49.1540260
  43.9643097  43.8406029  63.4234009  44.6301193  43.5064621  64.0244675
  43.1744766  43.3459930  63.6419296  78.9098969  16.4497643   8.8556738
  79.2591400  16.6649170   9.7205267  79.3790283  17.0305653   8.2566576
  11.7353230  38.9511871  48.5336571  12.0504189  39.7242355  48.0653191
  10.8244781  38.8569832  48.2548714  73.1497803  70.0122070   1.6725041
  72.5914154  69.8638916   0.9093102  73.9762192  70.3277817   1.3069376
  54.0132675  31.1261826  23.2065792  53.8220024  31.6643085  23.9747391
  54.9299850  30.8725777  23.3140411   0.6888235   2.0603511   1.2323802
   1.6074691   1.8025155   1.1559412   0.3904503   1.6463634   2.0422070
  73.8183136   1.7249999   0.2262217  74.3941879   1.0998101  -0.2139353
  73.0297928   1.2220129   0.4298615  32.2200470   5.6346388   2.6652629
  32.0865822   5.7748804   3.6026802  32.0680237   6.4933319   2.2705884
  64.2775726  37.9269371  35.5677261  65.1855621  37.7509003  35.8142891
  63.7723846  37.7275352  36.3559265  48.0926056  47.7477989  11.8894434
  48.8831825  48.0028419  11.4138689  48.3780975  47.6595993  12.7988091
   8.1604319  23.6784210  85.9086685   7.6240511  23.4204388  86.6583176
   8.2004433  22.8940277  85.3615341  61.9088936  52.0827751  77.4971313
  62.5579491  51.9271240  78.1832275  61.9236603  53.0305595  77.3640213
  39.1075859  52.5603142  70.9899521  39.0214806  51.9939728  70.2230911
  38.5554047  53.3167801  70.7922440  73.0753708   4.0633087  61.6066513
  73.9899902   4.1402674  61.8782616  73.0209427   4.5764518  60.8004532
  62.2172165   3.7477932  78.2947617  62.0443420   4.0001631  79.2017670
  61.3756676   3.4265592  77.9709778  54.9249039  29.4799938  30.8188763
  55.6658401  28.9167709  31.0425301  54.1987686  28.8737144  30.6726265
  71.3331909  54.8326263  53.1484299  71.5018005  55.2676659  52.3126411
  70.8585510  54.0356789  52.9121628  82.8169556  30.3088055  33.4392738
  83.5128555  30.9633675  33.3800392  83.2143402  29.5790825  33.9144821
  43.6955719  59.1283875  19.5223370  44.3982964  59.3559113  20.1311417
  44.1280212  58.6189537  18.8369884   3.5769436  66.2620926  19.6322975
   4.2142034  66.9605942  19.7813988   4.0792756  65.4537506  19.7346039
  45.8031540  15.7761326  20.8048515  45.5840034  16.6088638  20.3868046
  44.9559250  15.3832874  21.0148697   8.3733826  14.9909496  28.3508892
   7.9246211  15.2491932  27.5458069   9.1056433  15.6030807  28.4238377
  29.6713581  58.0437355  76.6724930  29.2181339  58.5100784  75.9701080
  29.5379677  57.1177254  76.4701462  63.8996162  27.8874302  23.2291012
  62.9913940  27.6014957  23.3271008  64.3266830  27.1714897  22.7587032
  38.7366600  29.0334072   1.9680092  39.5749283  28.6046162   1.7957364
  38.9604874  29.9557476   2.0922000   5.2389016  52.5644913  45.4543762
   4.3802876  52.1744003  45.6182137   5.5541115  52.8222389  46.3206558
  33.6804047   0.9495046   3.2575376  33.9735832   1.3184743   4.0906878
  33.0500336   1.5868670   2.9219229  14.6435499  13.5073633  71.6830978
  15.0489426  12.9081221  72.3098297  13.8913012  13.0238924  71.3416138
  19.3221741  14.7592258  20.8207684  18.3770008  14.9077616  20.8493271
  19.5714207  14.9745798  19.9220295  78.5713577   4.6688237  28.6801167
  79.1783066   4.0053525  29.0082169  78.4035263   5.2338195  29.4343357
  79.7068939   5.0511522  81.9071274  79.0455780   5.3013229  81.2619095
  80.1565628   5.8692260  82.1187515   6.8502874  68.4602966   5.8775139
   6.5003619  67.7807236   5.3013544   7.5389590  68.8800964   5.3620200
  47.2404709  32.9133568   9.6336718  47.0933228  33.7588196  10.0576620
  48.1168404  32.9844627   9.2553110  70.3292007  23.6777592  63.4604263
  70.3369370  22.7753334  63.1413651  69.8249664  24.1593437  62.8046341
  80.1644897   7.1503701  83.4799805  80.1050186   6.2534666  83.8090134
  79.2833786   7.5064116  83.5944824  19.4613094   7.3859863  73.8568420
  19.5029678   6.4707680  74.1341019  19.1214676   7.3501496  72.9627228
  60.5824661  38.3558807  86.2631683  61.1856422  39.0980835  86.3025055
  60.7181358  37.9829025  85.3921204  25.8163452  58.9364777  60.1862450
  25.8495560  59.8454323  59.8880348  25.1186848  58.9247208  60.8415031
  75.9470978  55.9650574  34.4605293  75.9693680  56.6516457  35.1271133
  76.6049347  55.3315506  34.7471352  69.6158752  54.5253372  25.9198895
  69.8390961  55.2310104  26.5268726  68.7325897  54.7386703  25.6190052
  30.7022324   3.6297197  70.8270264  31.2408085   2.8418994  70.9012451
  30.3994503   3.6281912  69.9189758  76.0568771   0.5110273   9.6671543
  76.1828461  -0.1968956   9.0353241  76.6276932   0.2818702  10.4005642
  59.9821625  12.3876190  57.8008080  60.3998604  11.7767496  58.4079323
  59.1733284  12.6479130  58.2415619  51.2862129  47.4304047  29.2056332
  50.4909363  46.9200592  29.0529461  51.2094536  48.1769867  28.6115303
  25.3508949   0.8084964  81.9631119  25.5038490   0.6929175  82.9009171
  26.1261387   0.4327764  81.5458984  57.9580498  58.2136154   7.3131800
  57.4820061  57.4399757   7.6150007  58.8017120  58.1662636   7.7628760
  44.5546303  36.9832726  65.9986954  45.4249725  36.7875404  65.6516724
  44.4596100  37.9292336  65.8874817  67.4359512  55.8163338   8.4902592
  67.1876907  56.5381241   7.9126668  68.3579788  55.6553955   8.2897568
  51.4091873   5.8336692  63.9544029  50.9829674   5.0029726  64.1653824
  51.1273270   6.0272036  63.0603485  24.8997631  25.0161743  81.9441223
  24.9281788  25.6712379  82.6414871  23.9992027  25.0488281  81.6213913
  32.2725182  56.0810966  46.1241570  31.6028557  55.4456596  46.3771477
  33.0514793  55.5522614  45.9515762  42.6680412  14.1280909  36.5011559
  42.4712677  14.6586742  37.2731628  43.5685577  14.3600960  36.2742653
   7.2242036   9.2551737   5.2129035   7.5042114   8.3571815   5.0355978
   8.0393114   9.7542162   5.2656980  83.4329681  15.5529242  23.1579876
  82.6260223  15.0478125  23.0583496  83.1446991  16.4005337  23.4966488
  19.0819569  46.1097374   7.7225828  18.9913769  45.2275276   8.0827665
  18.8034306  46.0258865   6.8106489   5.1903052  60.6945419  67.4213943
   4.7654338  60.1331711  68.0699158   6.1099977  60.7126694  67.6860962
  69.1437378  60.7602844  61.4635696  69.6636658  60.7302437  62.2666931
  69.2145462  59.8779602  61.0992622   2.2957015  19.9968185  16.3771839
   1.9611105  20.8049030  15.9882326   3.2458949  20.1118889  16.3882904
  42.9523048  70.9895401  48.6266174  42.5404510  71.6349106  48.0520668
  43.0819702  71.4534531  49.4537849  25.7963600  35.0894585   5.7097626
  24.9371166  34.7956696   5.4070697  26.0238895  34.4804840   6.4123402
  31.5004158  65.7411575  69.8767700  31.6840897  64.8128510  70.0207977
  32.1582985  66.0194321  69.2396011  47.0908699  63.0650940  67.7080231
  47.6582298  62.9923668  68.4755173  47.2107010  63.9654732  67.4060516
  30.0346584  28.2071934  88.2195435  30.3026543  27.8631229  89.0716171
  30.0837288  29.1579514  88.3189697  39.6395302  59.1589928  21.6876583
  39.0186996  59.5170288  21.0531445  40.2267570  58.6121063  21.1658211
  85.4931946  31.4697227  32.3350754  86.4109421  31.2309971  32.2047806
  85.4830704  32.4248734  32.2732735  26.8871174  30.2992630  35.0158768
  27.7814770  30.0250893  34.8129425  26.8749657  31.2371445  34.8249245
  17.1797619  70.0160751  17.8542690  16.3897152  70.5359726  17.7067337
  17.5325165  69.8624344  16.9778042   4.2538991  57.3078346  88.8666992
   4.4786096  56.3908920  88.7087250   4.5271645  57.7621346  88.0697250
  65.7041016  34.4468384  61.0824356  65.2517853  35.2859039  61.1696701
  65.1671448  33.8321571  61.5825081  47.7036858  49.1169014  85.2575302
  47.2366219  49.6201553  85.9244766  48.5177460  49.6008987  85.1186600
  46.3365936   6.3775816  20.7563915  47.0353279   5.7414646  20.6035595
  46.0227165   6.6035757  19.8808117  51.0390053  64.0612640  44.0584564
  51.1215210  64.0092697  43.1062393  51.0299110  63.1490250  44.3482437
  51.1715889  17.4405212  79.7385254  50.4504700  18.0512619  79.5861435
  51.2605400  17.4078121  80.6910172  51.2739525   1.3046501   7.9595704
  52.0851021   0.7988923   8.0093470  50.5798187   0.6456237   7.9691906
  66.0317688  49.4509163  12.8707743  65.3427505  50.0816307  12.6617479
  66.5445328  49.3807297  12.0655575  13.0911207  24.3416214  80.7202606
  12.3518419  24.7675858  80.2863770  12.9723454  23.4098186  80.5362244
  21.2580070  40.2986755  14.3495998  20.8762875  41.0650864  13.9216557
  21.4894047  39.7124977  13.6291256  65.4605942   8.8676376  69.1125793
  66.0551605   8.4285688  68.5043488  64.5858917   8.6642885  68.7812576
  79.8074570  48.4990845  77.2184219  80.4310303  49.1145630  76.8329620
  80.1098557  47.6385040  76.9282684  33.0114250  10.2060270  50.4618835
  32.7632408  10.5039759  49.5867462  33.9607124  10.3243141  50.4949150
  84.1894150  65.4662399  56.1102142  84.7648621  64.7658157  55.8027992
  84.7647247  66.0483170  56.6066399  74.7001114  62.0649109  12.2946663
  74.4706573  62.7685471  12.9016876  75.6317062  62.1955109  12.1177349
  61.9987679  28.0252686  66.6909332  61.2748489  28.3695984  67.2140121
  62.7808952  28.4234943  67.0729370  54.0958633  62.8553658  52.7351875
  55.0509186  62.9004288  52.6897125  53.7950516  63.5391502  52.1367035
   2.2305429  61.4407845  29.0470314   1.3338156  61.1138916  29.1195107
   2.4198759  61.8136520  29.9080505  24.9690380  52.2719269  61.7917786
  24.1706848  52.4376945  61.2903938  25.6247997  52.8448105  61.3942719
  78.6199188   9.8627949  18.7269993  79.2985153  10.5367298  18.6877308
  78.4927826   9.7051353  19.6625271  10.1352110  61.8628922  71.3667908
  10.5567760  61.8836136  72.2259064  10.7326488  61.3536911  70.8190536
  85.6102753  14.5306997  87.7484055  85.6093292  15.1140089  88.5073395
  85.6145325  15.1195297  86.9937592  63.2980728   6.7147479  69.4025421
  63.9229126   6.8985901  70.1039734  62.8971748   7.5624986  69.2106247
  15.3998127   4.5688262   2.4298604  15.8246574   3.7119129   2.4677913
  14.9214230   4.6357694   3.2562342   5.2095947  24.1179428  51.3821335
   5.9979787  24.5632877  51.0717316   4.9112902  24.6469269  52.1220131
  41.0639267   1.6904266  26.5648861  40.9099655   1.3578306  27.4491405
  40.8844147   2.6285739  26.6272259  70.6911316  53.6574135   1.9066767
  70.3652649  52.7993546   1.6350635  70.2564850  53.8249741   2.7428794
   2.5819685  17.4640274  61.7943001   2.3099315  17.3133907  62.6995850
   1.8141094  17.2325020  61.2717857  84.4632797  50.1874390   3.8167050
  83.9899368  50.8048592   4.3743486  84.1965103  49.3247643   4.1342859
  66.5495224  54.4856377  84.1289520  66.0472107  54.0638428  84.8260956
  67.0659409  55.1553116  84.5773773  53.2000580   1.9973760  35.4431152
  52.3749428   2.1112463  35.9147682  53.2731895   1.0518503  35.3132515
  53.3419533  53.9887962  40.1672554  52.9300652  54.7739029  40.5280724
  53.4438019  53.4048233  40.9188080  76.2445908  15.3273640  70.3470535
  75.6661148  16.0331192  70.6360245  76.5799942  14.9453554  71.1581116
  34.0139694   2.8528168  26.8593102  34.0364532   3.4897056  26.1450977
  33.1331291   2.4802201  26.8203239  67.4942932  57.9268913  43.6784897
  68.2706146  57.3681297  43.6418839  67.8374710  58.8181763  43.6146698
  54.5869064  48.6247101  66.6575851  53.9271088  48.5918350  67.3502731
  55.2286263  47.9594498  66.9062958  15.8482656  57.2215385  37.2662888
  15.9719944  58.1355629  37.5221863  15.1371298  56.9101982  37.8262787
  68.5531998  53.7417564  45.3792839  69.2391739  53.0909195  45.2306786
  67.7717438  53.2253456  45.5764503  84.6595917  50.4080086  52.2599335
  84.3271027  49.9898529  51.4656868  84.0101089  51.0800743  52.4666443
  66.4969177  60.0615463  26.7637424  67.2689209  60.5270386  27.0855446
  66.8497849  59.2889786  26.3223171  22.6950455   9.2215519   5.3161621
  22.2333813   8.5441189   4.8220139  22.4815388   9.0381279   6.2310410
  84.8318710  24.0350552  49.8767891  84.7355652  24.9870205  49.8499870
  84.7667618  23.7618771  48.9617119  25.0160160  18.2948685   8.6998405
  25.1617470  17.5912304   8.0674744  24.0973473  18.5364456   8.5818691
  66.7557373  49.8624954  56.9611893  66.6323318  49.3750992  57.7757111
  67.0454025  50.7302475  57.2428551  13.6847725  71.4473648  47.6869698
  12.9151745  71.1784058  48.1885796  13.3309565  71.7576065  46.8534279
  63.7474785  69.1739273  10.8302841  63.7189827  68.6028748  11.5979509
  63.6898575  70.0597305  11.1884336  37.7648811  14.3544512  10.5869255
  38.7128487  14.3582039  10.4543467  37.6547470  14.4614849  11.5317249
   9.2172756  47.0577507  60.5304184   9.7952061  46.3748207  60.8707581
   9.4397755  47.1187859  59.6014404  72.6718597  68.5706329  71.4198380
  72.0102386  68.8480988  72.0534821  72.5634460  69.1707458  70.6820450
  50.0925102  53.7199898  80.7516174  50.6613579  53.0748177  80.3316193
  50.3764191  53.7306175  81.6656799  25.4767189  53.5767899   8.5691319
  26.3361282  53.8306007   8.9056234  25.6670876  52.9311256   7.8886132
  65.7322922  53.1305580  48.6311684  66.3523483  53.7228813  48.2058334
  65.9899445  52.2587051  48.3316383  57.0597763  53.2014885   8.4796762
  57.5995522  53.9337921   8.7773371  56.1801605  53.4084435   8.7953978
   9.9147768  64.8878937  53.1412926  10.6752691  64.4940643  53.5688210
   9.7921600  64.3697510  52.3458519  68.8466721  17.6581650  23.9678955
  67.9224014  17.4121056  23.9303265  68.8638840  18.4412117  24.5181408
  46.4854546  27.7539806  80.9412155  46.3413315  26.9524002  80.4382935
  45.7337189  27.8047352  81.5316010  29.8272133  44.4214134  27.6592999
  30.4252663  43.7004700  27.8562984  29.1291771  44.3378677  28.3089142
  67.4292450  28.6738796  79.5609283  68.3747330  28.6495056  79.4136505
  67.0508881  28.7107582  78.6824570  63.8478394  18.6369476   3.8501658
  63.3062706  19.0419750   4.5275779  63.2242241  18.3594036   3.1791167
  26.5831356  69.3074799  33.9399490  26.9497814  69.3956223  33.0601540
  27.0116978  68.5316467  34.3014069  33.7609100  61.0807343  19.8407440
  34.1504250  60.2064285  19.8306313  32.8378754  60.9293747  20.0440521
  49.1639671  71.4947433   0.4062977  48.2221375  71.3850098   0.5372372
  49.5240974  71.5492783   1.2914886  43.5123520  13.4042149  40.1947098
  43.3778114  12.6900558  39.5717278  43.3618279  14.1994295  39.6836243
   3.8258581  25.3786831  84.3212280   3.2695882  25.4706345  85.0947571
   4.7108278  25.5555992  84.6402283   7.8723226   5.0837827  11.6272345
   7.1391306   5.6941433  11.5489902   8.5756712   5.6030264  12.0170012
  34.7826576  60.6103363  73.5449524  34.2720299  61.4197235  73.5645065
  34.4433746  60.0953484  74.2770081  64.9657211  14.5503397  42.4954720
  64.1763535  14.0413065  42.6798973  65.6397629  13.8929682  42.3229408
  18.0166931  53.3462029  18.0446281  17.3867302  54.0570717  18.1631260
  18.1422901  52.9884872  18.9235458  27.3425331  30.0453167  56.4042473
  27.9911270  30.0404530  57.1081886  26.5471611  29.6992245  56.8090096
  74.9243088  31.4593754  72.2441864  75.1491852  31.2970161  73.1603165
  73.9674759  31.4408226  72.2255096  29.6991749   4.4441605  39.3863754
  29.2754135   3.9735761  38.6685944  30.5803089   4.6315103  39.0627480
  81.6218414   1.2307243  56.2636948  80.8386383   1.7568454  56.1023712
  82.3468399   1.8511775  56.1885376  64.3135223  56.6628532  84.0607376
  65.1481323  56.7807770  84.5143280  64.2006683  55.7136993  84.0097122
  75.9684830   0.7259477  39.0322762  75.0652847   1.0363234  38.9680252
  76.3479691   1.2392516  39.7455406  62.2258720  16.1079102  32.0456619
  62.6842690  16.9239311  32.2461967  61.5848198  16.0139179  32.7502556
  16.8350601  60.7815285  79.5979233  17.3516312  60.4437141  80.3295441
  17.4732685  60.9208450  78.8982697  60.8991890  60.3052063  50.5565987
  60.1490135  60.6767159  50.0924339  61.3051758  59.7148514  49.9218636
  24.5392189  47.0092545  76.1763000  24.3601055  47.4459152  77.0090561
  25.2865105  47.4841995  75.8126907   4.3700171  41.8837891  29.9132938
   3.7243502  42.4182701  29.4510441   4.0088897  40.9976540  29.8890762
  64.0554352  17.0845203  35.6219025  64.6770630  16.5519924  36.1181145
  64.5297165  17.3278503  34.8268661   8.4802523  13.8687887  11.3104563
   8.4686155  13.9085560  12.2667589   9.1806536  14.4688301  11.0542908
  85.6612015  70.8943329  70.5362930  85.3061829  70.4832611  71.3244705
  86.1029816  70.1825714  70.0731888  28.6879978  10.6104803  72.2321854
  28.9762650  11.4825144  72.5018005  29.4939899  10.1581001  71.9832687
  13.8386707  19.5257645  60.2730522  13.3389597  20.3315811  60.1419792
  14.0372972  19.5167313  61.2093735  12.1411343  21.3235054  71.6560287
  12.1716719  22.1817760  72.0787277  11.4697542  21.4133587  70.9797134
  31.5356731   0.4598950  45.1298027  31.8167210   1.1144012  45.7692261
  31.2022648   0.9723387  44.3932762  74.4749298  69.9991074  86.1536026
  73.8497849  70.3509674  85.5198669  75.1844177  69.6438217  85.6182251
  47.3040657  53.4249954   2.5886874  46.9161835  52.6707268   3.0323713
  47.0466232  54.1759377   3.1235149  20.1647739   0.8676320  30.8609943
  19.8656025   0.6221948  31.7364883  19.4849949   0.5365681  30.2740269
   6.4726763  29.6621189  87.0735092   7.0415530  30.1591988  86.4856949
   7.0547018  29.0254745  87.4884338  43.7279129  58.3712730  66.1777039
  42.7805595  58.5080185  66.1705017  44.0057831  58.5727081  65.2841492
  17.9581451  65.4706116  33.6400642  18.4095764  65.8069839  34.4142075
  17.0468655  65.3748932  33.9169083   7.9256506  28.5725460  18.8445148
   8.1857948  28.4171906  17.9365387   7.0621409  28.1663227  18.9191132
  73.6420135   0.3563500  27.1328011  73.4870605  -0.3756631  27.7297764
  74.1081772   1.0029966  27.6626797  11.9321404  53.5241165  17.9024010
  11.4770651  54.2845383  18.2642002  11.4312410  53.2953796  17.1194515
  31.4692917  66.6958008  46.2019081  31.9155750  67.3667755  45.6853256
  31.9094963  65.8793564  45.9655533  73.1325073  49.1908493  54.7322426
  72.9109726  48.9272995  55.6253815  73.1359787  50.1476746  54.7587547
  16.2163124  69.2429352  30.1293430  16.3787804  68.5168381  30.7315178
  16.0011539  69.9821930  30.6980610  48.2933083  18.9657173  79.1898346
  48.0762367  18.1928215  79.7111282  47.4586029  19.4202995  79.0764542
  35.9943962   2.5176280  19.5884914  35.4393883   2.3733122  18.8220901
  36.0323639   3.4696026  19.6808739  39.4818268  66.6157684   4.9175954
  38.7161140  66.1772537   5.2885756  39.2302818  66.8148575   4.0157528
  42.0247536  53.8667641  51.4669991  42.5275688  53.2145844  51.9549217
  42.1883278  53.6565666  50.5476036  40.0754051  35.3366623  89.1361313
  39.5866318  34.7178001  88.5935974  40.8878288  34.8779297  89.3500595
  44.7006607   9.0338125  27.9479580  44.9911270   9.9262972  28.1359272
  44.0155945   8.8637285  28.5944767  52.9385986  70.5480652  64.7155151
  53.8101730  70.7355347  65.0640030  53.1007538  70.2043152  63.8370132
  49.1417274   5.5677900  20.2096825  49.5877876   6.2054739  20.7670174
  49.6230774   4.7518415  20.3466682  23.3955402   9.3089085  64.0943527
  22.6971645   9.7034502  64.6166916  23.5297680   9.9221201  63.3717270
  60.9718552  16.1720772   7.5901370  61.3118591  17.0457802   7.7832026
  60.4294052  16.2929840   6.8108029  57.8396759  29.7003803  10.1532745
  57.0282326  29.1954384  10.2064734  58.4273949  29.2757874  10.7782059
  83.3958130  48.9315224  62.6043663  83.6474152  48.1163406  62.1703110
  82.4550400  49.0073242  62.4448662  58.7084274   0.7052835  60.0272598
  57.9543610   0.2833798  60.4390945  59.4161797   0.6051485  60.6638870
  25.1236553  49.9583855  74.1088791  24.5375042  50.3686981  73.4730301
  25.9861355  49.9902649  73.6949387  34.5652657  29.0227585  23.2724857
  33.7107773  28.9648647  23.6999531  34.4038429  28.7337666  22.3743458
  15.4620581  65.0400391  42.6376877  14.9102707  64.3293381  42.9642830
  14.9835091  65.3885117  41.8854980  13.2422256  13.9148369  33.7634430
  13.2441053  14.1823540  34.6824989  14.1546621  14.0006170  33.4871559
  77.4132004  56.3315544  88.4427032  76.5026550  56.1678543  88.6883392
  77.9267197  55.8616943  89.0997849  14.5014448  64.5802536  74.3876419
  13.8086128  64.7096786  75.0353012  14.2692490  63.7618790  73.9488068
  62.5611801  11.0914984   6.0495172  62.4323959  11.6540327   5.2858415
  63.4909363  10.8651276   6.0261827  53.7631454  57.1809006  36.9288483
  54.0370712  56.3915062  36.4618874  52.9697723  56.9195251  37.3962593
   1.4281718  38.2039490  70.3089523   1.5740641  38.6954803  71.1172485
   0.4764067  38.1844177  70.2089844  12.2974005  67.4356384  72.7672806
  12.3424234  66.6039581  73.2389984  11.6847601  67.2715073  72.0503693
  66.3284073  36.1517639  20.0756779  66.0470810  35.2391396  20.1405277
  67.1148529  36.1218262  19.5308552   7.6389976  69.6529999  46.8495216
   8.0495729  70.5175247  46.8656311   7.2208657  69.6024094  45.9899673
  56.7274399  12.0678978  68.7706833  56.2094307  12.7401571  68.3280029
  57.0646973  12.5025501  69.5539932  82.6278381  42.1227455  15.3906059
  81.6970520  42.2797203  15.2317791  82.8034973  42.5513420  16.2282696
  74.7780838  31.8910275  63.5738411  73.8697968  31.8368874  63.2766685
  74.8282623  32.7255974  64.0398941  83.7429962  21.0623703  79.1577911
  83.0346298  20.4186573  79.1670074  83.8029556  21.3394604  78.2435379
  16.1353569  48.6096535  25.6538010  16.6537018  49.2009773  26.1995926
  16.6703453  48.4749794  24.8715725  32.0282707  52.7485390  45.1407394
  31.4618111  52.8302193  45.9079971  31.8164959  51.8887939  44.7771149
  56.1173668   2.6919925   2.9220998  56.0803299   1.8951982   2.3929694
  55.2589722   2.7401800   3.3428981  54.1515503  12.7789717   9.3251123
  54.5970306  12.3382654   8.6015387  53.2724533  12.9582615   8.9915295
  37.7061234  64.3735886  21.6174259  38.5179787  64.1737518  22.0834637
  37.6573715  65.3295441  21.6203308  67.9430389  14.0725641  26.8701210
  68.6180115  14.2254972  27.5313721  67.5006104  13.2746277  27.1595707
  64.1130066   5.1538229  54.7255478  63.8379593   4.5502472  54.0354195
  65.0694580   5.1229453  54.7035599  54.8843651  42.2727852  15.3673191
  54.5257607  41.4118042  15.5826054  55.6301498  42.3762283  15.9583645
  73.3981476  67.9303818  84.0563660  73.7115021  67.0485306  84.2572937
  72.7991104  67.8096313  83.3196182  64.2382126   1.5061768  58.2064705
  63.5592995   0.8606583  58.4029884  64.5994415   1.7415795  59.0610619
  27.6844311   7.2286439   5.0776415  27.7667351   6.2759991   5.1215181
  27.4687481   7.4918728   5.9723053  37.7789841  70.6413040  36.4078712
  38.6185150  70.6112976  36.8666954  37.1246452  70.5369797  37.0986557
  18.8689480  14.3092117  83.0407562  18.4536915  15.1570444  83.1987839
  18.2165356  13.8110313  82.5484085  43.5998688   6.5175300  50.3518906
  42.8737526   6.4224801  49.7354851  43.7090683   5.6448750  50.7297516
  15.4789639  11.8362007  42.1905861  16.3331566  11.4562044  41.9851875
  15.1262321  12.1051130  41.3423500   3.4033229  39.1292801   7.4838347
   4.0666780  38.4459915   7.5803280   2.8536739  38.8289680   6.7600026
  50.8103027  37.8158722  75.5720596  50.6607666  36.9880676  75.1153259
  50.5450325  38.4874458  74.9436874  39.1357117  60.0238228  74.4292603
  39.6800652  59.3997345  74.9092865  39.0497627  60.7713165  75.0209503
   8.1173201  23.7721882  25.9547291   7.5369663  23.3752613  26.6042442
   8.2124796  24.6803608  26.2417774  65.1217880  50.2159119  62.4581146
  65.2405701  50.4734802  63.3723221  65.4790039  49.3291283  62.4107666
  36.3971786  67.2714157  37.0947571  36.2411728  67.4432220  38.0233994
  37.2379074  66.8142929  37.0736923  72.8430481   1.6529891  17.5391502
  73.1913147   1.8896068  16.6795254  72.5729599   2.4859698  17.9257107
  50.3727875  65.5857620  84.7165146  50.9125443  65.7226410  85.4950790
  49.8900833  66.4057693  84.6125259  85.1661911  40.1094322  87.1523895
  85.6933899  39.3113327  87.1888351  84.2623062  39.7975845  87.1079407
  69.2780533  21.5868912  57.6977425  69.2549973  22.4563904  57.2981529
  69.1235886  20.9846573  56.9699478  60.6908112   7.3439269   0.8009980
  61.5142021   6.9082327   1.0210674  60.8942146   7.8607521   0.0214141
  44.0496521  62.7186584  11.7747202  44.6965332  63.0848579  12.3777742
  43.7901077  63.4575119  11.2242975  83.4820862  21.1887341  75.4524689
  84.3992386  21.3562908  75.2357178  83.0074081  21.3690338  74.6410446
  49.2616501  10.6393843  55.8205795  49.5213966  11.2236385  55.1082535
  49.6357079  11.0384312  56.6061211  59.9363022  24.8414516  36.1389923
  59.2266388  24.6816540  36.7611465  59.9962196  25.7951794  36.0838013
  11.5890188  39.4289284  66.2034912  11.5764437  38.5497093  66.5817032
  12.4824181  39.7398415  66.3497925  62.8238678  58.8610687  10.4470291
  63.6114922  58.7443924   9.9157400  62.5525208  57.9710655  10.6717377
   0.0506856  52.4511261  21.8095837   0.5581847  52.9667053  22.4363670
   0.6792789  52.2184601  21.1262341  73.2780380  65.5674057  48.6154099
  73.0745163  66.2992172  49.1978683  74.1573715  65.2922363  48.8747826
  45.0166473  22.7629356  70.3864136  45.8990440  22.9422855  70.7111359
  44.6497498  22.1450100  71.0186996  73.3913193  69.2002335  24.4765396
  72.6383362  69.6725616  24.8317337  73.4677505  68.4217834  25.0282688
  69.5182648  60.0971107  17.3339195  69.3644562  60.7250481  16.6280384
  70.4660873  60.1133232  17.4665985   1.5710680  39.7747688  40.0271416
   1.3205388  39.2746811  39.2503700   2.3381436  40.2767372  39.7517204
  65.8009949  42.7321739  45.6398430  66.5598984  42.2367668  45.9478378
  65.6215820  43.3569450  46.3424873  25.1484623   4.9766145   6.8482819
  24.9702644   5.2864413   5.9603157  24.6749916   5.5863385   7.4142280
  84.7354660  49.4013634  70.0109253  84.7818222  48.9273796  69.1806107
  85.6425323  49.4432716  70.3137589   5.1316791  68.8236923  65.1097870
   4.3447676  68.4407501  65.4975510   5.2705054  69.6338272  65.6003342
  21.0633965  57.0494385  77.4062958  20.2798252  57.5304604  77.6725082
  20.8060760  56.5987892  76.6019745  51.5406075   9.8741598  11.7997541
  52.3506660   9.5282650  12.1744480  51.6755409  10.8213520  11.7705688
  22.2647324  64.1700974  74.0364075  22.8414879  64.3317795  74.7830276
  22.2401886  65.0043106  73.5676498  56.8782158  54.0796356  33.8502350
  57.3379326  54.0349655  34.6886253  56.8111610  53.1683846  33.5649986
  55.6542587  55.5546074  24.5881386  55.7324982  54.8068542  25.1805706
  54.8294182  55.9718399  24.8367043  48.5154724   2.1330938  65.2639084
  49.4520264   2.0912895  65.4571838  48.1261177   2.5199599  66.0481033
   6.0007544  15.6061192  56.5342636   6.2320862  15.0254040  57.2591667
   6.4924293  15.2644882  55.7874184  27.2561913   5.4234247  68.5959778
  27.8471107   4.6725779  68.6532135  27.0407162   5.4882622  67.6656036
  10.4127131  55.1172333  64.5263824   9.9643154  55.1688499  65.3704834
  10.0681810  55.8572655  64.0265045  13.2194281  55.1722260  45.1205330
  12.4459763  54.8823280  45.6042290  13.7334614  55.6623230  45.7622566
  63.1788750  17.3088818  19.2170830  62.8505669  16.4431515  18.9742756
  64.0598755  17.1452026  19.5536594  26.3324738  15.1961279  67.7956543
  26.3589783  14.7000999  66.9774323  26.8495712  14.6740685  68.4090805
  76.7035599  26.6252880  40.2157593  75.8020935  26.5606022  39.9004745
  76.6234818  26.6366196  41.1695366  57.1897507  22.1421719  36.8217735
  56.5180130  22.2318249  36.1457825  57.0219727  21.2852955  37.2140007
  41.1327438  63.7755966  52.8151436  41.2860565  62.8404350  52.9500542
  41.2215614  63.8989754  51.8700943  63.7078133   1.2990558  82.4510345
  63.0610580   1.9963459  82.5593262  64.0734024   1.4448674  81.5785065
  30.6416550   8.7831926  51.3981895  31.4813442   9.1640816  51.1411362
  30.8692265   7.9319520  51.7721329  27.3847542  61.5748138  71.3543167
  27.7784729  62.0184174  72.1056061  27.6568966  62.0958595  70.5988846
  17.2905159  51.6334419  26.6189728  18.2251492  51.4662018  26.4976234
  17.1923370  52.5719872  26.4585724  63.9516068  23.7412148  87.0941620
  64.0593567  22.9361038  87.6005402  64.7654800  23.8221245  86.5968704
  54.5568390  40.6359367  80.4359207  55.1343117  40.8119202  81.1787491
  54.4367714  39.6863480  80.4455948  51.5776215  63.4283257  72.5176926
  52.1118507  63.9815865  71.9478455  51.4023819  63.9733086  73.2848434
  40.1667366  48.2228241   4.1417236  40.2539444  49.0158386   3.6128025
  39.5376015  48.4578247   4.8237777  59.7998428  27.4677467  62.8589096
  58.9085541  27.7027168  62.6007881  59.8302574  26.5147572  62.7745590
   3.4806399  68.4018860  31.8109150   3.0842190  68.8510818  32.5574417
   4.4214602  68.4335098  31.9843788  62.6551132  32.8952332  32.2654648
  62.8399773  32.3114662  31.5297489  63.4490242  32.8664284  32.7994194
   3.5897419  29.2764416  26.7802753   4.1670690  28.5404263  26.5772762
   3.1189172  29.0016174  27.5670586  44.4581451   3.9653373  62.9788971
  44.8617363   3.2215071  63.4261780  45.1571083   4.3239436  62.4320107
  70.5077972  52.1001129  75.1559601  71.4270325  51.8640671  75.0314026
  70.1912079  51.4879608  75.8202438   4.7161207  39.7919083   1.1520481
   5.3749957  39.7419395   0.4595031   4.7678909  38.9441681   1.5935084
  10.8160257   7.0471749  61.1053581  10.4214935   6.3172364  61.5826073
  11.5454483   7.3282046  61.6578064  64.1536255  61.9880447  82.2062607
  63.6248665  62.0836906  82.9984055  63.5151596  61.8411484  81.5084000
  24.0298557  64.6509705  33.6386299  24.9277534  64.3772354  33.4513283
  24.0838909  65.0821609  34.4915009  28.6808567  66.5351715  19.5669651
  28.4318619  67.2917404  19.0360737  28.2073708  66.6540680  20.3903141
  36.3257980  41.9689903  10.7588596  35.7543259  42.0410767   9.9943619
  36.5062828  42.8750572  11.0092630  17.9950809   2.8607626  17.3768215
  18.3501225   2.5037169  16.5627594  17.0511093   2.7170386  17.3097839
  47.8277359  66.4726257  42.9087143  48.2827377  66.0992661  42.1538582
  47.2562180  65.7689362  43.2159920  78.7427673  61.6615601  64.7393799
  78.4942551  60.7470207  64.6048813  79.3218155  61.8630028  64.0042877
   3.6179614  25.0367126  18.3226776   3.5288169  24.5831566  17.4844818
   3.8489258  24.3469524  18.9448662  16.6531277  45.6296616  33.9012642
  16.9623566  45.8275452  33.0172653  17.2689972  44.9744682  34.2293777
  31.6866589   1.0716008  71.5364380  30.8522682   0.7805045  71.9042511
  32.2465477   1.2177653  72.2989273  49.9161453  37.8122635  24.2887669
  50.0563164  38.7539902  24.3874321  50.0832100  37.6410522  23.3619385
  83.5303726  24.1344337  87.6867142  83.2891006  24.7368126  86.9830322
  83.4085693  23.2635040  87.3087234  65.3266678  57.6830215  87.7239304
  65.6376877  57.2417107  88.5143356  64.3764038  57.7247429  87.8310928
  76.2512360  58.9568710  48.0513725  75.7666855  59.6972046  47.6862030
  76.4791641  58.4214897  47.2913437  59.2349892  48.4156914  51.5139465
  58.6279564  48.2962112  50.7835579  59.4752083  47.5262756  51.7736855
  68.5771561  34.0173340  55.4019470  68.6026230  33.0607796  55.3777428
  69.4967346  34.2805786  55.4380569  80.9185333  24.2048645  18.3534260
  81.3189392  23.6939144  19.0568714  81.1707153  23.7471180  17.5514870
   7.4054408  13.8709326  16.7397690   7.3079615  14.4986362  17.4558125
   7.9101715  13.1514549  17.1190205  56.7502098   1.2282896  87.8762894
  55.8086586   1.3918604  87.8218689  56.9810333   0.8702153  87.0191193
  41.1148872  62.9546547  33.4298897  40.8858337  63.8652382  33.6158981
  41.3023643  62.9417648  32.4913177  79.7585449   0.7727892  72.0212097
  79.3568192   1.5127307  71.5658646  80.6862259   1.0016843  72.0782242
  84.4843750  16.7602100  75.9560165  84.4240799  17.1606274  75.0886841
  83.9427948  17.3172379  76.5151596  62.5123634  18.3052330  51.1728516
  63.3900909  17.9266376  51.1229248  61.9249153  17.5495129  51.1679039
  14.7555275  35.5607643  26.8701458  14.7612333  36.5118370  26.7621517
  15.2344475  35.2305222  26.1100101  12.8844166  66.1985626  31.4579067
  12.9004650  67.0933762  31.1183739  11.9632854  65.9420700  31.4136276
  34.3292542  54.2061729  16.3851299  35.2698364  54.2769585  16.2222481
  34.1996689  54.6353340  17.2308598  52.4166107  24.1326675  81.0765381
  51.7082672  24.5928631  81.5267563  52.7544670  24.7700424  80.4473801
  36.1204224  30.9496708  20.0051250  35.5653992  31.2701454  19.2941551
  35.5280533  30.8661156  20.7523556  33.9056053  58.5877991  57.8173790
  34.5577736  58.6167679  58.5174332  33.7990494  57.6556473  57.6277275
  29.2746696  15.5054483  75.0734482  29.8458042  14.8357191  75.4496155
  28.4263077  15.0720291  74.9803925  59.6609688  62.6051102  65.8301392
  59.3975563  61.8445358  65.3120956  58.8405113  63.0580521  66.0248795
  44.9672241   9.1182928  65.8061066  45.0636673   9.9281797  65.3050995
  45.3010864   9.3341150  66.6768494   9.1159239  23.2085571  50.7175598
   8.5414801  22.5359993  51.0834999   8.5642710  23.6816540  50.0945892
  70.2770386  25.3671608   5.4117265  70.8881760  25.9923649   5.8014245
  70.4358292  24.5503464   5.8848352  75.7792282  43.1394539  76.4529495
  76.6097565  42.6769791  76.5650558  75.7548676  43.3660698  75.5232773
  43.4826164  66.8649673  24.5124130  43.5299530  67.0505753  25.4502506
  43.2511482  65.9374847  24.4631958  80.9251785  30.0309238  70.7612991
  80.9037399  29.1284237  71.0795212  81.7670593  30.1065731  70.3121414
  15.8847504  25.4758835   0.8819792  16.0845184  24.8232975   1.5531392
  15.3099022  26.1027832   1.3210434  74.3778992  59.7709389   4.8534627
  74.1629486  60.4857635   5.4526739  73.6583176  59.7629166   4.2223005
  26.4889698  60.0992737  67.1041489  26.7480164  60.0517845  66.1838913
  27.3014603  59.9556580  67.5893936  25.8538628  43.4746170   9.0200119
  25.2567368  43.2814407   9.7427530  26.2761307  44.2960854   9.2712402
  36.1175041   4.9675250  14.3503809  36.2524643   4.7128844  13.4375963
  36.6833992   4.3785787  14.8495178  63.1259308  64.7273788  46.0624161
  62.5110588  64.3207397  46.6729965  62.7725258  64.5249023  45.1961937
  38.8947678   9.5377254  62.9963570  39.1659813  10.4500637  62.8948021
  39.6045189   9.1307478  63.4931984  70.7558746   9.2026787  58.8891830
  70.9243393   9.0704279  59.8221130  71.5587158   8.9111013  58.4571342
  70.4741974  70.0326157  46.3506050  70.9952698  69.3096466  46.6999397
  70.2375031  69.7519836  45.4666061  11.4053411   3.6653104  14.7583084
  11.6230392   3.8265295  15.6763763  12.2354689   3.4085245  14.3568354
  21.9511967   4.6102428  35.7938194  21.5600529   5.4774303  35.6878738
  21.3097095   4.1192613  36.3073006  39.5358238  42.2000465  21.1091156
  39.0598984  42.9190903  21.5246925  38.9976845  41.9612160  20.3543987
  60.0618553  39.7690392  64.9945602  59.3347321  39.3260307  64.5572205
  60.5307693  39.0688057  65.4484634   0.3824803   0.6019655   4.6307006
  -0.2493217  -0.1063928   4.5070610   1.2344255   0.1655937   4.6315708
   0.2290272  38.0320969  24.1273441   0.2514354  38.6415253  23.3895588
  -0.0226100  38.5721321  24.8765259  14.6705866  35.4325943  14.9580746
  14.9876480  34.5456963  15.1287127  13.8312922  35.4791412  15.4159508
  84.0389862  27.0011024  50.7495995  83.9597931  27.8707733  50.3576393
  84.9636459  26.9282742  50.9860878  52.7404060  41.2365036  13.4902267
  52.3990555  41.7437019  14.2267475  53.1076851  40.4489174  13.8915348
  86.3748627  50.7677994  77.1817856  86.5085754  50.2250214  77.9588013
  85.8963394  51.5320625  77.5029526  34.2082558   1.9813615  38.6931229
  33.3264503   2.1074493  39.0434914  34.6875191   2.7647266  38.9630775
  17.6200752  10.9402971  67.5587845  17.3758373  10.9745646  66.6339035
  18.4851570  11.3485498  67.5933456  81.9342804  28.8190937  41.7537766
  81.0974884  28.9123363  41.2984619  81.9419785  27.9113064  42.0572510
  22.6468830  18.0593262  30.1589813  22.8365211  18.7450104  29.5185852
  23.4420376  17.5269623  30.1824322  79.1274643  40.2476387  53.4825592
  79.8077316  40.8478012  53.7879524  79.2288895  40.2349663  52.5308342
  32.6482582  29.0992756  28.7160168  32.9947777  29.9778709  28.8716602
  32.7842331  28.6380844  29.5436916  36.8388977  33.5116348  16.0417767
  37.2223320  32.7460022  15.6139746  37.2702637  34.2587852  15.6271420
  66.5868759  16.4717293  51.0316277  66.0546341  16.6724815  51.8014641
  67.1671677  15.7667494  51.3188591  12.5347481  21.4075089  23.2384472
  12.1098557  22.1392269  22.7909126  13.1131859  21.0261326  22.5779991
  17.4792728  41.4815102  12.3216991  17.0265884  42.0843620  12.9115124
  17.1274395  41.6849251  11.4550571   6.4130831  22.8586521   9.1502819
   6.1141639  23.2331371   8.3216438   7.3679857  22.9059734   9.1038723
  58.8967285   5.2530799  61.0018082  59.6115608   5.2211828  60.3660164
  59.3330917   5.2400784  61.8536606  68.2288589  65.8288193  74.3444061
  68.0897141  64.9849777  73.9145203  68.7584457  66.3293762  73.7237473
  44.7551918  42.3480644  19.4560661  45.3104820  43.1264114  19.4106750
  43.8613930  42.6903381  19.4418163  75.2985229  45.1600723  18.4083843
  76.0317688  44.8570442  17.8728962  75.5400391  46.0505257  18.6633282
  40.3863831  48.7105904  23.0348225  39.9511070  49.2981148  23.6525421
  41.1406631  48.3720360  23.5171890  49.4193993  44.7352409  11.4816504
  48.4644012  44.7614975  11.4223261  49.5956688  44.3028297  12.3172245
   6.3443403  21.8066998  28.2267189   5.8027015  21.3909988  27.5558586
   5.7500749  21.9411125  28.9649677  33.9844360   3.3759017  85.1799622
  33.5725555   2.7825158  84.5518875  34.6186447   2.8300509  85.6447830
  44.9236183   4.3155093  44.6754684  44.2679977   4.8618474  44.2419815
  45.0009003   3.5436549  44.1146660  42.3969078  28.0885983  11.2732363
  43.0305824  27.4458275  11.5918818  41.8215141  28.2488289  12.0212202
  76.3785934  54.5167046  10.7773218  75.6002121  54.6284065  10.2315407
  76.6638184  55.4091644  10.9732580  85.1270065  62.1081009  50.9673195
  84.2036133  62.3320656  50.8514862  85.2012329  61.2156639  50.6292648
  48.1981659  58.2512207  22.2887974  48.2981110  58.4088631  21.3499718
  47.5010605  58.8488731  22.5591393  73.9082718  20.7155476  53.4937172
  74.4235077  21.4996738  53.3042336  74.5576172  20.0178719  53.5821877
  85.4217377  55.6044312  32.1689758  84.6008606  55.2361603  31.8422337
  86.1012955  55.0421448  31.7971249  56.8727074   4.4428196  83.7953186
  57.7270508   4.8726707  83.7558289  56.9589577   3.8029683  84.5019913
  34.5456619  51.6307030   1.6194947  34.1307182  51.5563049   0.7601237
  35.2976875  52.2046051   1.4734732  15.0952549  67.0673294  73.8633347
  14.9110203  66.1538086  74.0818939  15.0077505  67.1081009  72.9110107
  83.4450226   5.9299221  87.3863449  83.1840897   5.7597871  88.2914429
  82.6809235   6.3502998  86.9917831  59.6417847  23.1314583  20.1770973
  60.0437889  22.4293251  19.6655960  60.3384438  23.4315300  20.7609253
  52.5748482  57.1242180  67.8777618  53.3412323  57.4248047  68.3661652
  52.8505974  57.1473312  66.9614334  38.9424973  23.2716923  35.4405670
  38.5847359  24.0490780  35.0117226  39.1048126  23.5488987  36.3422585
   2.4838343   7.6142225  64.3546677   2.4360383   6.7968569  64.8505096
   1.9887784   8.2425585  64.8803482   3.8303814  26.4820862  64.5522232
   3.0413332  26.0123672  64.8224106   4.3976383  25.8050690  64.1833115
  44.1383018  48.2262306  84.2620392  44.0665627  47.2776642  84.3683853
  44.5437088  48.3409004  83.4025421  46.7464409   2.4780092  31.9404240
  46.0806541   1.8136816  31.7625790  46.8237534   2.9652274  31.1201363
  63.0953026  67.8204346  74.6403961  62.7737503  67.4187164  73.8332672
  64.0149460  67.5592422  74.6880646  23.6605511  33.3095665  26.6311283
  23.3329315  33.0841675  27.5018139  24.4197235  33.8681526  26.7980824
  66.3575439   9.9658060  80.5444412  65.6143341  10.5580997  80.6587143
  66.7387390  10.2192345  79.7037888  78.9639130  63.9470482  79.9399490
  79.4491882  63.5930786  79.1946716  78.6335754  64.7909012  79.6316833
  20.0535450  54.2000694  37.9965935  19.7090778  54.8922920  37.4323235
  20.6404362  54.6539421  38.6014023  70.2931213   7.3661880  34.9533577
  69.4918747   7.4167180  35.4745903  70.0621643   6.8053432  34.2128563
  12.9319782  12.7901402  51.7333527  12.4091778  13.5900784  51.7882195
  12.2993364  12.1048479  51.5180168   9.5574503   4.0240612  81.0444794
   9.8024569   4.9473162  81.1061554   8.8553610   3.9191625  81.6865845
   2.2446873  15.4309864  40.5121994   2.1020315  16.3115997  40.1652069
   3.1960394  15.3253508  40.5136986  33.2182274  70.3022537  32.2242126
  33.2832565  70.9228287  32.9500885  33.9133797  69.6655731  32.3904190
   6.7719226  59.0076065  58.0821304   7.2854114  59.6897278  57.6493874
   7.4151525  58.5033913  58.5803833  65.6262817  47.0543327  70.3694153
  65.7349777  46.6615829  69.5032959  66.4753647  47.4531136  70.5598373
  47.8390503  69.0626144  70.0534210  47.1896477  68.6253128  69.5027161
  48.0859528  69.8437271  69.5583191  15.6253986  50.8832092  88.6600494
  15.9600353  51.0488663  89.5414124  15.5341091  51.7530441  88.2711029
  30.8617134   7.1363387  54.2163506  31.0927238   6.2643585  54.5365334
  30.8238163   7.6785350  55.0042725  49.2714729  45.7172546  29.2658863
  48.4431725  45.4401932  28.8742390  49.1835327  45.4968109  30.1931953
  62.7400742  14.5661039  87.2089081  62.6770210  14.5546570  86.2538528
  63.0904732  15.4325895  87.4154358  28.6680565   7.7128549  17.9525490
  28.0105572   7.2862792  18.5020580  29.5017738   7.3489408  18.2503986
  69.9276199  35.0047646  38.5218010  70.2277069  35.8322792  38.1457672
  70.6765213  34.6846657  39.0247040  83.9773026  54.7078934  75.4264679
  83.5876770  55.3411980  74.8236771  83.2291412  54.3050423  75.8671417
  80.4240646  64.8282928  34.6460495  80.7808380  65.1546555  33.8199577
  80.7246704  65.4573441  35.3019180  17.7634087  14.3585806  13.7813807
  17.2341576  15.1482363  13.8934860  18.6679935  14.6668491  13.8354969
  13.2876501  10.1440449  18.4630375  12.8574543  10.3025494  17.6227760
  14.2151527  10.3073015  18.2918167  50.3162918  23.3465691  23.6783009
  49.4529991  22.9762859  23.4943275  50.1996460  24.2906361  23.5716991
  80.6227875  67.9248734  61.9868469  80.3151855  67.7810593  61.0918999
  80.4929199  68.8612289  62.1371880  44.2970467   5.0488172  25.3799381
  43.4689293   4.9002538  24.9234505  44.8309059   5.5385284  24.7543106
  64.7503662  64.3157578   9.3500195  65.0859070  64.6987152  10.1605663
  65.1224442  64.8599625   8.6560230   4.3042517  33.9976807   4.5588832
   3.6229155  34.5855713   4.8850732   4.3605137  33.3067055   5.2188964
  52.7336540  36.7541161  19.8975735  53.0069466  35.9929504  20.4095955
  53.5475578  37.2221184  19.7111168  54.4957733  10.6159859   2.8306363
  54.6593170  11.5587530   2.8046541  55.1914482  10.2373133   2.2931678
  18.1401005  69.0669556  39.4593925  18.2332726  68.5903397  40.2842445
  18.9345551  68.8551102  38.9692993  76.0830994  51.4133263  84.6340332
  75.3095703  51.5273857  85.1861801  76.5447006  52.2498207  84.6926956
  83.9177246  63.9389000  81.3434677  83.5967560  63.3710327  80.6429367
  84.8301544  64.1124496  81.1119919   0.6634482  54.8903351  48.7637787
   1.3055774  55.4331856  48.3063812   0.5725719  54.1121521  48.2138596
  14.2058392  15.6754589  54.2035179  14.4519691  15.4248686  53.3130951
  15.0175028  15.6031075  54.7057114  53.8783760  35.8045731  38.2303467
  54.2522583  36.2355919  38.9988937  54.2100372  36.3092270  37.4876747
  76.5989990   4.0691729  21.7167778  77.0093460   4.9201102  21.5626545
  77.1589661   3.6478159  22.3687973  13.8823538  58.2765083  63.2131386
  13.4076805  58.4371490  62.3975945  13.4636908  58.8538055  63.8516388
  30.4306374  21.4972496  15.8485966  30.7568855  21.3201694  14.9663057
  30.3195324  20.6313457  16.2411499   2.7455778  20.0961075  51.7773781
   1.8243616  20.3548203  51.7516975   2.8338974  19.6055450  52.5945549
  57.6584778  54.6390152  70.5127029  57.0023918  53.9434433  70.5569611
  57.6107750  54.9562302  69.6108475  69.1323166  52.4285736  60.8853760
  68.8697968  52.0502434  61.7245293  68.5295258  52.0428429  60.2496910
  19.6463432  44.5519600  58.1467934  20.1635303  45.1645012  57.6237831
  20.2668152  43.8673477  58.3968964  78.2347488   2.2861111  69.2272415
  78.0903244   3.1690154  69.5676117  77.8239059   2.2925243  68.3627243
  69.3028793  50.3339119  29.8582230  68.9435196  49.7624435  29.1796093
  69.1218262  51.2202873  29.5455132  13.5287037  60.1663513  41.3683662
  12.7012520  60.5016823  41.7134895  13.4614820  60.2910881  40.4217148
  66.0912628  51.5510979  30.4582653  65.2744827  51.8419304  30.8638783
  65.8981247  50.6710205  30.1351624  52.9396362  58.8736877  78.7198410
  52.1558914  58.9581947  79.2628326  52.8587418  58.0099640  78.3152847
  31.5409698  60.6918488  64.0993271  30.7797222  61.1098709  63.6968460
  31.2057667  59.8636436  64.4427567  28.2944107  57.9139442  12.6830864
  28.4937916  56.9808197  12.6071892  27.3445358  57.9474564  12.7964392
  25.1453381  60.5981522  49.2156410  24.4480629  61.1913261  48.9360237
  24.7760715  60.1307983  49.9649429  31.0694637  37.5428467  19.5186882
  31.8501377  38.0964661  19.5017929  30.4699421  37.9551544  18.8967495
  70.8492050   5.8128147  55.2886505  70.1651154   6.4809165  55.2451630
  70.7946854   5.4719462  56.1814346  19.4875965  13.7373238  49.3922958
  19.5036354  13.0668983  48.7092857  20.4030323  13.9979925  49.4935875
  24.3745022  67.6287231   1.6575905  24.0798759  67.7243271   2.5632873
  24.2088432  68.4836884   1.2603203  49.9039078   2.6056929   4.0648389
  50.8121414   2.6419227   4.3648915  49.4347267   3.2013781   4.6490140
  81.8267441  69.2927551  82.3467407  82.6575165  69.7131805  82.5687408
  81.9517136  68.3743286  82.5857086   5.1056929  34.4757004  40.7155151
   5.2179012  35.3784103  40.4176064   4.4036722  34.5231590  41.3644753
  62.3936844  30.4304161  34.6317558  62.9532280  30.3242111  35.4010811
  62.2820549  31.3771763  34.5456429  86.2123260  41.7809372  60.8597488
  86.3632660  42.6340752  61.2666893  87.0697784  41.3556213  60.8699875
  74.6735306  30.2244473  16.7205734  74.8024979  29.3357277  16.3892441
  75.4988861  30.6718140  16.5338078  27.9446487  14.5972004  15.1588087
  28.3786049  14.8858175  15.9616871  27.5035572  13.7838573  15.4040489
  75.0188446  67.0819016  18.9510937  74.2460403  67.1229172  18.3877754
  74.9286728  66.2531204  19.4214344  56.4868927   4.6616201   7.9262452
  55.9647217   3.8858185   7.7220297  57.3907738   4.3913527   7.7644315
   9.3360357   4.3158078  26.4924698   8.4903889   4.7642431  26.4968472
   9.8027678   4.6919951  25.7462292  15.9901400  25.8889217  66.7658539
  15.1756001  25.8169384  67.2634201  16.6709557  25.6135693  67.3797760
   1.6497498  29.7721958  66.2375946   1.5014935  29.5404320  67.1544037
   0.9214634  30.3526669  66.0164948  52.8401451  11.0081615  32.3622360
  53.5925522  10.4957256  32.0663948  52.3787155  11.2428598  31.5571060
   7.7250218  51.2699356  77.6409988   7.6646090  52.0480537  78.1951828
   8.4957790  51.4241753  77.0947647  85.7416763  43.8524246  24.5435753
  85.3319244  44.6662788  24.2503471  86.6815491  44.0150986  24.4635754
  42.0819588  46.3356857  86.5481796  41.3711510  46.8101845  86.1170883
  42.7029877  46.1443291  85.8453751  26.0678043  63.1029625   6.2970800
  25.6784401  62.7600822   7.1014805  26.9916592  63.2295151   6.5132012
  78.0635376  59.2302628  52.3103867  78.5743408  59.9382515  52.7029076
  77.7608948  59.5876312  51.4755669  75.3688202  50.2724648  56.9395218
  74.4473572  50.0143280  56.9171486  75.4449387  50.8212471  57.7200851
  10.2875690  70.7979279  58.2729607   9.5505962  70.3015900  58.6289749
  10.0900154  70.8842239  57.3403511  78.3409729   5.6989417  40.2335014
  78.7069321   6.5752759  40.1137314  78.0550842   5.4371009  39.3583221
  27.5709209  14.6934862  38.5996819  28.0068073  15.5359669  38.4713821
  28.2868195  14.0631695  38.6798172   3.2044280   0.6197991  55.8560905
   2.3977320   0.1095740  55.9278145   3.1682060   1.0032191  54.9797859
  74.7421646  52.4827576  45.8486404  73.8478241  52.3569145  46.1657333
  75.2952423  52.1287155  46.5450516  30.2433376   7.0363154  83.9756012
  30.8632088   6.9910073  84.7035675  30.2705135   7.9508910  83.6944504
  62.2547798  24.1442776  81.3896179  62.3666000  24.9332390  81.9199600
  63.0276146  23.6138325  81.5834885  18.9716988  65.3976364  15.0715485
  19.4120140  65.8749695  14.3683386  18.6866684  66.0783463  15.6811590
  28.1649036  22.3387070  25.5167103  28.7005844  22.5983810  24.7671471
  28.3360500  21.4026814  25.6206112  44.9693336  18.6171970  13.6566000
  44.3126259  18.3945217  12.9967670  44.5282097  19.2418995  14.2322664
  23.3154297   3.2374904  17.1264820  23.5069847   3.4610531  18.0372829
  22.6515713   3.8728442  16.8584366   7.7042055   4.1408219  33.9548759
   7.6552510   4.2604890  33.0064507   8.5546999   4.5060592  34.1987877
  57.4422073  41.6714554   3.4859126  57.1793175  41.6515923   4.4060898
  57.8245811  40.8083839   3.3273776  30.3369102  54.4883995  46.8977928
  29.8915291  55.2641716  47.2384529  29.6291676  53.9195824  46.5948410
  83.2132492  67.7857056  51.6532059  82.3783493  67.6599350  52.1041641
  83.7648926  68.2371674  52.2920380   1.1624105  48.1041183  37.7820129
   1.7996283  47.6374397  38.3227501   1.1616917  47.6305466  36.9501686
  84.1540146  53.3658638  65.5791550  83.8972092  52.8943520  66.3715897
  83.3384018  53.7440834  65.2505722  67.9470520   5.2220893  33.4316063
  67.4388123   4.4170809  33.3321953  67.3697052   5.8114595  33.9169350
  78.1132050   7.0148883  15.4984245  78.9159393   6.8539991  15.9943752
  78.3686600   6.8949537  14.5837727  21.1974201   4.0015864  66.5005951
  21.6597042   4.8195505  66.3176727  21.8781090   3.4071693  66.8161316
  46.0812531  53.1394196  41.7242279  46.6710854  52.3865242  41.6857719
  45.8280640  53.2920723  40.8138313  62.1777077  45.0527916  29.1713238
  61.5870018  45.6961250  29.5630074  62.4368935  45.4427109  28.3364487
  44.1789322  60.9425316   0.2516102  43.2420921  61.0952873   0.1281922
  44.2874527  60.8736191   1.2001384   1.7651950  53.5721130  82.9077454
   1.5803809  53.7279739  81.9815826   1.5811208  54.4096870  83.3329697
  67.0088120  51.4760780  23.3071632  66.8103256  50.8899727  22.5768795
  66.1883850  51.5350952  23.7967110  23.8017178  20.3093681  56.5664330
  23.2516289  20.9577446  57.0060272  24.2551918  19.8578701  57.2782936
  26.2934513  11.9893847  44.2358284  25.5736446  11.3926249  44.4407387
  26.1808758  12.7186842  44.8454857  38.2387276   5.1117086  33.8891487
  37.4410820   4.8177133  33.4491920  37.9336166   5.7403522  34.5433273
  55.7388077  62.5279312  79.9357910  55.2177505  62.7657738  80.7027130
  55.3315697  61.7257042  79.6089630  30.1069298   7.9596596  47.7639618
  29.3702869   7.5297751  48.1984596  29.7482948   8.7894802  47.4493027
  23.7722321  39.9893837   9.5474453  24.1285534  40.2421341   8.6957512
  23.0616341  40.6113167   9.7039051  67.9391174  49.5762749   8.2327003
  68.0103989  48.9224892   7.5372038  68.1346512  49.0937767   9.0359383
   7.3374901  53.9673195  70.4715042   7.0199757  54.4848251  69.7314987
   7.7736430  53.2163315  70.0689850  44.9062462  60.2690773  10.6509705
  44.5724525  60.0674324   9.7768135  44.6609535  61.1828575  10.7961149
  85.1838989  61.2272987  37.4597740  86.1227264  61.0432663  37.4908371
  84.9211426  60.9828529  36.5723953  59.5895767  40.1556549  71.7045517
  59.1543999  39.7640495  72.4618530  60.5106049  40.2103844  71.9593811
   3.1689723  49.5490799  74.9948196   2.2375917  49.3286591  75.0081482
   3.5609133  48.9727097  75.6508789   2.6065464  21.6436996  41.7517357
   1.7426047  21.2913685  41.9655113   3.0381396  20.9411221  41.2655792
  17.3406963  25.0632362  73.6447067  17.3914051  25.9032230  73.1885452
  17.6099510  25.2611542  74.5416794  55.8224640  18.1034832  29.8310642
  55.5182419  17.3718777  30.3681259  56.5304070  18.4969463  30.3411903
  66.0722275  44.9104080  15.5213747  66.9158936  45.2308998  15.8403492
  65.6909637  44.4528923  16.2707405  67.5236206  56.2493706  39.5865479
  68.1239929  56.8580399  39.1560745  66.9921951  55.8932953  38.8744926
  71.0558319  18.4160271  31.1486988  71.1890182  19.3284435  31.4055786
  71.5522537  17.9109840  31.7926941  72.3998718   4.2275548  48.5533257
  72.5022888   5.1662202  48.3963242  73.2006302   3.9725950  49.0116005
  35.8587036  53.6924896  65.7322006  35.2681580  53.0307541  65.3722076
  35.8323631  54.4080315  65.0969543  54.0131760  37.0137863  84.9389954
  54.3906021  36.1898918  84.6308060  54.3335991  37.1030998  85.8365402
  50.6677322   8.9853268  46.8550415  50.9819756   9.7181339  47.3846436
  50.3525314   8.3459616  47.4938622  45.5596466  60.3703461  43.7024651
  45.5361099  60.9388504  42.9327354  45.7126427  59.4942322  43.3485565
  73.7241211  35.4556389  26.7251949  73.5471344  36.3957100  26.7595119
  73.0196991  35.0988922  26.1841316  46.3861198   0.0803780   1.2481896
  46.3871193   1.0375549   1.2416121  45.6569862  -0.1544323   1.8221776
  78.4777832  40.7445946  56.3396111  78.8905716  40.2566605  55.6270370
  77.5831985  40.4059296  56.3750267   0.8192926  68.5509491  72.3939743
   1.3135908  67.7522202  72.5781784  -0.0158227  68.2404785  72.0440903
  59.8966217  21.6222134  36.3090515  60.3164482  22.0447063  35.5597305
  58.9788437  21.8877010  36.2504921  34.7170715  45.7593384  83.2547455
  34.7451668  44.8788643  83.6291885  33.8677444  46.1078529  83.5256958
  66.9586792  13.6952229  10.3306236  66.1824265  13.5725651   9.7841587
  66.8974533  13.0058460  10.9918671  60.3330765  28.7058697  86.9697800
  60.7067146  28.2211056  86.2338181  60.9029160  28.4950886  87.7094269
  61.4453659   8.7600422   3.6096222  62.3059120   8.4708738   3.9130559
  60.8750000   8.0045748   3.7516906  37.4222145  21.8202667  88.5461655
  37.4643593  22.6423321  88.0576324  38.3265839  21.5073547  88.5669327
  81.3308029  37.0542679  65.2009354  80.9748688  37.7619591  64.6636124
  82.2506790  37.2877121  65.3257141  82.7704697  16.1760902   6.3363276
  82.0529633  15.8076591   5.8208914  83.0909958  16.9091873   5.8109126
  11.3527336  13.5720167  37.6181717  10.3990345  13.5144615  37.5600586
  11.6546230  12.6712542  37.5010338  78.6159821  47.8118172  54.7895584
  77.7147369  48.1342812  54.7900314  79.1235123  48.5199165  54.3930206
  22.4081440  62.5805092  68.2996445  22.4282398  62.4479561  69.2474060
  21.9472599  63.4113998  68.1837234  22.4135818  17.2083740  60.6608620
  23.2579460  17.3316307  60.2271690  22.4718838  17.7406559  61.4542770
  74.6938324  52.7467003  62.8070869  74.5434647  53.2683258  63.5954552
  74.2645950  51.9104271  62.9877357   7.6353741   7.7735906  87.4031067
   6.7610393   8.1570196  87.4720383   7.4938083   6.8332300  87.5122528
  24.5458546   5.1316638  34.6263885  24.0923557   5.3943391  33.8254051
  23.8438034   4.8950548  35.2325020  47.2927170  57.2047272  78.7131958
  46.5558395  57.3207779  79.3130035  48.0115967  56.9084282  79.2714539
  21.4176559  50.5847740  14.5847273  20.6750469  51.0273933  14.9956436
  21.9328632  51.2918205  14.1962957  17.4065666  58.7938919  47.5914955
  16.9089375  58.2975426  48.2412910  16.7472591  59.1042519  46.9708290
   1.5185238  61.9617043  44.8821411   0.6421049  62.3334427  44.9818001
   1.7067739  62.0395279  43.9468689  32.4181442  13.4377203  63.7197762
  32.3787155  14.3938084  63.6958275  33.1576347  13.2428446  64.2954483
  27.8312531  52.7308540  15.8786306  28.7325058  52.9923286  15.6899271
  27.7739010  52.7412605  16.8340530   0.6636846   8.0473442  30.3989639
   1.0984859   8.3108006  31.2099953   0.2366408   8.8448534  30.0861645
  67.9536057   0.6106802  30.3434963  67.3893509   0.6333747  29.5706196
  67.6251450  -0.1264404  30.8582802  29.9386559  32.0837097  10.6622534
  30.7724018  32.0155067  10.1970139  29.8245354  31.2280998  11.0759468
  42.6200752  22.4126301  80.6733170  42.7077522  21.5359707  80.2991333
  43.0797310  22.3623924  81.5114212  42.9521904  12.3213320  79.0107422
  43.8270454  12.0983906  78.6926956  42.3778801  12.1656475  78.2609711
   9.6638632   7.6290689  17.7629948   9.6481562   7.5715957  18.7183399
  10.5139332   7.2655129  17.5151234  82.3980331   1.5472193  72.0339279
  83.0371628   0.9979427  72.4878464  82.6586456   1.5074096  71.1137466
  47.4225044  24.0264206  18.6784534  47.0804672  24.8808098  18.4152775
  48.0267029  24.2206802  19.3949986  82.3223724   6.2368336  14.8951826
  81.5051346   5.8135347  15.1581907  82.4161072   6.0209908  13.9673586
  42.8290443  56.7728996  34.6296616  42.5076561  56.7547531  33.7282104
  42.5853424  57.6400948  34.9534149  36.7286911   5.5613875  85.2129593
  36.8160400   5.8800349  86.1113281  35.7844353   5.4816275  85.0778580
  15.4128876  45.5408058  16.8034019  15.0772934  46.2756004  17.3169022
  16.3487396  45.5167465  17.0029831  62.4198418  28.3210278  49.6250267
  63.0437851  27.8341179  49.0866508  61.7115326  27.6992912  49.7922783
  21.7713223  57.9752312  80.1059647  21.2918301  58.7801666  79.9100189
  21.3549519  57.3092117  79.5588913  38.5842056  12.7972336  43.6396942
  38.2104073  12.9901476  44.4995155  38.9152679  13.6395369  43.3279953
  43.0097466   6.5568643  76.0044250  42.1309547   6.4651504  76.3725967
  42.8711929   6.9772801  75.1557312  24.8530579  15.9696188  38.0624237
  24.2020283  15.7366943  38.7243423  25.6918793  15.7315578  38.4573174
   1.9643990  39.2357750  74.4289780   1.6735817  40.0150414  73.9552612
   1.1694093  38.8932152  74.8374786  23.8137913  60.0050163  13.3023157
  23.1260052  60.0504150  12.6381464  23.5394993  60.6291580  13.9742088
  69.3349609  64.1838455  25.9845066  69.1012573  63.5126038  26.6256447
  68.6703873  64.8635941  26.0963497  81.3923035  53.6028099   0.0132040
  81.3294754  53.4349937   0.9534818  82.1306458  54.2057457  -0.0736741
   5.3047752  67.5478210  55.4402733   5.9296165  67.3346024  56.1333427
   4.9106288  68.3743439  55.7191010  60.7191811  25.3616543  47.0011482
  59.9986420  25.0291462  46.4658966  60.3092957  25.6015854  47.8322067
  35.8814430  18.3389606   4.3456283  35.9554176  17.5300808   4.8520598
  36.7822571  18.6510582   4.2598329  59.0743904  58.2006416  41.8554344
  59.7140007  57.6460686  42.3021736  59.5436859  58.5421410  41.0942726
  62.5671310  40.2746735  59.8770370  62.1577530  41.1272545  59.7295647
  63.3693886  40.3007927  59.3555679  23.9326782  63.4114876  55.2539635
  23.8589516  64.2907944  55.6249313  23.1103096  62.9822464  55.4899521
  27.1320210  56.4467964  35.2142296  26.7489567  55.7152023  34.7302246
  26.4224396  57.0854149  35.2842064  64.7154617  64.6395798  86.5162354
  65.4368668  64.4871826  87.1266251  64.8471603  63.9923782  85.8234024
  18.3577461  20.2586136  86.4462433  18.8072853  19.4267387  86.2974701
  17.9071026  20.4382553  85.6210861  44.1751518  44.1781387  81.1307755
  43.9555473  43.7686920  81.9676514  44.1057892  45.1179848  81.2984467
  27.9095306  10.7304440  40.3812561  28.0233841  10.0345640  41.0285721
  27.6405602  11.4927444  40.8938828  70.6140137  67.5372162  79.3126831
  71.3772507  67.9789734  78.9404678  70.4387665  66.8138657  78.7107925
   4.6795435  42.5858765  14.9980173   3.7992306  42.7284622  15.3457966
   4.6256256  42.8703995  14.0856733  57.1428337  56.7803116  35.0260239
  57.2846413  55.8349991  34.9759636  56.4338951  56.9493484  34.4054832
  21.4198151  66.5847855  27.8363075  21.4583530  67.5208511  27.6400146
  21.4558277  66.1587906  26.9798832   3.8680856  67.2937164  23.1002388
   3.8628764  67.1732407  22.1506653   4.5859675  66.7403641  23.4079399
  22.7068539  34.5178986  78.6083679  22.1770363  34.8043556  79.3523254
  22.3636742  33.6515884  78.3893738   7.8707428  11.6770391  67.9577713
   6.9535007  11.8114157  67.7193604   8.2779961  12.5346737  67.8359528
   4.0850282  48.6976166  18.8374672   3.3644476  48.8107224  18.2176266
   3.7303483  48.9975777  19.6743984  46.4895706  58.3562698  61.7858963
  46.8760796  57.5533257  61.4364243  47.0347214  58.5753059  62.5415840
  57.9478149  14.2909164  18.1604595  57.8528862  14.4583206  17.2228050
  58.8719139  14.0674400  18.2715073  18.2475891  17.5283070  28.8556271
  18.2634945  18.2326660  28.2076626  18.4875107  16.7437668  28.3625126
   4.6389122  25.8591290  36.2372704   4.0390639  26.1600113  36.9198265
   4.2794776  26.2195435  35.4266281  59.5591698  66.4641113  82.2890167
  59.6419182  66.6119919  83.2310944  60.4254723  66.1610718  82.0171356
  58.7656441  49.0273972  43.4387627  59.1418495  48.4625511  44.1137772
  57.9598083  49.3644257  43.8302650  31.9189873  60.3469086  58.5438805
  32.7411880  59.9719582  58.2282410  31.3003788  60.2050514  57.8273430
  34.0555267  17.9382076  80.5847473  33.1412430  17.8735313  80.8606720
  34.0113754  18.2484169  79.6802902  73.8374863  52.7689781  52.3640976
  73.7450638  53.5111237  51.7666779  73.0435867  52.7912788  52.8983765
  20.7090607  11.2607412  68.4339828  21.5701942  11.6713047  68.3557663
  20.8757477  10.4415379  68.9001923  68.3666000  50.7228012  71.1662827
  67.5199966  51.1030998  70.9320450  68.9989090  51.4197960  70.9913025
  70.4979324   6.2250628  32.1745834  71.1281662   5.5503573  31.9219704
  69.6475601   5.7881536  32.1275444  38.9176064   1.2204649  85.9132156
  39.2479973   1.1453128  86.8084412  39.6954193   1.1309935  85.3625488
  58.7129631  23.3190536  23.8383121  58.0137863  22.7023811  23.6212769
  59.5203323  22.8227463  23.7039032  18.8616333  30.6751518  11.1800079
  18.4463406  31.5369492  11.1473513  18.9921017  30.5073643  12.1133127
  63.0952301  50.0588646  18.3497124  62.4593277  50.6038818  17.8862343
  62.9420586  50.2469292  19.2756729  40.0169868   9.3820467  70.7259521
  40.3863716   8.5978899  70.3198929  39.0901489   9.3611937  70.4876862
  26.3633766  44.1736946  32.5306778  26.5108700  43.7030945  31.7103043
  25.5584068  43.7941666  32.8831253  16.1340332  70.3600235  48.8702698
  15.9495382  70.0645447  49.7618332  15.3644838  70.8731995  48.6239548
  49.8473167  43.4675217  43.3310585  50.4113350  43.7537155  42.6125832
  50.0755501  42.5473099  43.4627686  67.0644226  59.7851753  47.9680862
  66.3994904  59.1150208  47.8099976  66.6747055  60.5928879  47.6334877
  58.2918587  67.0769730  57.9649582  58.2383003  67.3780212  57.0579109
  57.7975960  67.7280502  58.4629898  64.8256073  18.0655365  42.2368393
  65.6401062  18.2783947  41.7812996  64.1416092  18.2034912  41.5815926
  62.6605682  31.7911968  81.7623825  62.8941917  30.8638401  81.8031311
  61.7064934  31.7946701  81.6851959  68.9735718   0.7730989  69.2025146
  68.3007507   0.5737635  69.8535233  69.1419220  -0.0631635  68.7682800
  81.7633286  22.0936127  20.0619812  82.3147736  22.5431747  20.7023182
  82.2379150  21.2868538  19.8616428   5.5187569  20.8666782  -0.0787324
   6.0560479  20.7797623   0.7086658   4.6173348  20.8310051   0.2412640
  83.4203796  61.1652870  63.0434990  83.9129639  60.8093605  62.3039627
  82.6326752  60.6234207  63.0896263  20.1533375  10.5267553  81.2696304
  20.0453205  10.1459827  82.1411667  20.3552437   9.7803001  80.7054749
  81.3998184  15.2271938  31.5206699  80.5981903  15.6949015  31.7549152
  81.1180878  14.3226938  31.3837814  59.6398125  59.4209976  33.3277817
  60.5369492  59.6972504  33.5150337  59.5251007  59.5966759  32.3938599
  10.7534409  63.4401779   1.6034249   9.9012041  63.0632133   1.3847377
  11.3528357  62.6938820   1.6023294   1.3680904  40.1283493  82.8907166
   1.8023723  39.5691147  83.5348358   2.0852098  40.5334969  82.4030380
  70.5333786  64.3815308  40.3153114  70.2621307  64.4337921  41.2317848
  69.7970047  63.9611397  39.8711815  61.4632339   9.5396872  43.2600441
  61.5597343   8.6181736  43.0197678  60.6296692   9.8028822  42.8700066
  81.3537521  46.9327698  63.4863853  80.8398972  46.4351044  64.1224060
  81.0032120  47.8219490  63.5384712  68.0628052  34.6719894  83.5347366
  68.5026932  34.2102890  82.8208923  67.9299011  35.5589714  83.2003174
  84.5424271  28.1583500  83.3227692  83.9556427  28.1167545  84.0778732
  83.9669189  28.0482101  82.5658722  51.9970665  29.5910397  28.4140091
  52.4819832  29.0833340  29.0646420  52.4700165  29.4445171  27.5948143
  62.1575546   7.2119985  12.4278774  61.5574799   7.8756056  12.7681255
  62.5652313   7.6253653  11.6668520   8.6602116   1.9921550  55.4916306
   7.7864771   2.3729310  55.4031525   9.1251030   2.5922966  56.0746727
  76.2022247  42.8273659  27.5890388  76.4072113  43.7035637  27.9153709
  75.2635651  42.7264671  27.7470188  27.3190670  68.5761642  75.8716507
  28.2418518  68.6922684  75.6453323  27.1016598  69.3481064  76.3942184
  54.4560966  66.3950119  63.7887039  53.9881859  67.2053070  63.5869217
  53.7673836  65.7723465  64.0215149   9.9043884  23.5463123  34.0226479
  10.0996666  23.8103428  33.1235428   8.9522810  23.4497128  34.0424767
  13.2730808  54.5880165  48.7323570  13.8941584  55.2083282  49.1140785
  12.4919558  55.1112022  48.5524902  47.7710533  58.9570885  44.7406883
  47.8088379  58.2139702  44.1385422  47.0197105  59.4694328  44.4419861
   1.7009178  64.0834885  48.9652367   1.2899662  64.9255829  49.1607475
   2.5032187  64.3117752  48.4957352   5.1155238  28.4458981  77.0148773
   4.2764893  28.1019592  77.3214035   5.7414088  27.7437363  77.1922684
  30.1979370  15.9306278   5.9531350  29.8784370  16.7445774   5.5637274
  30.5987320  16.2014523   6.7791190  14.3550558  13.3563156  65.1542358
  15.2595482  13.3212852  65.4655228  13.9759455  14.1112862  65.6042709
  59.2764130   1.4172660  33.6739235  58.3622513   1.3320223  33.9446068
  59.6637993   2.0068185  34.3209114  33.4748421  33.2468834  82.7816696
  34.2612877  33.3024445  82.2388535  33.3011246  34.1506500  83.0448456
  30.8944740  51.4808426  76.6606598  31.4948139  51.1145248  77.3099976
  30.1431618  51.7815590  77.1718674  78.7933731  63.5835037  85.7485123
  78.6546707  63.0090294  86.5014877  79.0437851  62.9919662  85.0388641
  30.4734650  43.2359543  84.9556122  29.7521515  43.7151985  85.3633652
  31.2167358  43.8373604  85.0013504  58.0334969  50.4590034  38.1365089
  58.4649162  49.8099327  38.6922188  57.1387138  50.5057983  38.4732628
  51.4804153   6.6535635  54.9570427  51.3866005   5.8506603  55.4696617
  52.1843109   7.1346526  55.3921432  21.4788132  64.9869537  12.1213150
  21.6273689  65.3373947  11.2430458  22.3261776  64.6257324  12.3815489
  51.0089035  11.0843811  77.6731491  51.8395882  11.4882755  77.9242706
  50.3459244  11.7327356  77.9104843  66.7255630   2.0323668  53.0393753
  66.2584534   2.3037863  53.8295479  66.7237473   2.8098898  52.4810867
  28.8249226  32.9084549  26.7839050  28.2797890  32.1680984  27.0502357
  29.1026306  33.3098450  27.6073112  60.9384537   3.4285953  74.2647324
  60.3607903   3.8821175  73.6508560  61.3394966   2.7314160  73.7457581
  54.9859085  10.2749310  66.8896027  55.7554207  10.8021040  67.1044769
  54.2760849  10.9112940  66.8034210  83.4479904  33.5016747  89.0004196
  83.3277893  33.0720978  88.1535187  82.6552429  34.0250435  89.1181793
   6.0774779  29.9415283  40.0903854   6.7694321  29.6631947  39.4904175
   5.5547085  29.1529179  40.2354317  47.2945328  15.3337183  32.1331100
  48.1764755  15.5039177  32.4639282  47.2887802  14.3967381  31.9374943
  48.6544151   9.3441906   5.2417407  49.5982285   9.2839279   5.3894534
  48.4974747  10.2729368   5.0713534  33.3390732   5.5961366   9.9162254
  32.4445152   5.6111364   9.5759716  33.6686478   6.4815764   9.7625723
   4.7043576  65.4681396  73.2252960   5.2044010  64.6656647  73.3743820
   5.0684743  66.0965576  73.8487854   2.6649890   0.6332038  35.7392807
   3.0647140   1.5011817  35.7946510   1.7888041   0.7491286  36.1068306
  51.7117538  14.3359404  74.3686371  51.2753372  15.0397062  74.8487244
  51.0104065  13.7200966  74.1563187  53.8966484  18.6212864  16.3310184
  53.6710854  19.3533497  16.9049835  53.8236809  17.8475380  16.8897858
  23.4335041  70.4294434  72.3551483  23.6397858  71.0354309  73.0668030
  23.9570560  69.6507568  72.5442963  75.4973297  25.3029308  14.5939064
  75.7800980  24.7425785  13.8712139  74.7542572  24.8392048  14.9799557
   1.4254912  37.8509598  11.6922712   0.8997130  37.8328781  12.4919357
   2.2352521  38.2926941  11.9479809   7.8347878  70.3098297  39.1606026
   8.1290846  71.2037888  38.9860954   6.8809748  70.3542862  39.0935516
  56.7724419  48.9280357  63.3642731  57.0433311  48.3003616  62.6942902
  57.5884094  49.3358231  63.6543350  21.0452785  26.2392197  30.6708183
  20.7680092  25.3677998  30.3880081  21.7024651  26.0738125  31.3468208
  84.9797134  59.1440735  11.6469555  85.9007874  59.0835533  11.9003143
  84.9436951  59.8929482  11.0518751  66.0314789  53.5452499  10.5653811
  65.7244797  53.7475815  11.4491482  66.0107117  54.3850250  10.1064939
  28.5699863  64.7126999  78.6111603  28.6360283  65.0593491  77.7213821
  27.6932335  64.9640045  78.9016495  31.0265923   9.0109835  34.0675926
  30.6688271   8.5471573  33.3105583  30.2843285   9.5014925  34.4206886
  80.1937714  35.6336670  51.3308067  79.7671585  36.2877350  51.8843651
  80.4534454  36.1165581  50.5461960   1.7618240  21.3202343  21.5388050
   2.4356258  20.6999969  21.8172455   2.1775665  22.1784916  21.6211720
  25.4895706  35.2733650  23.6812859  25.0672016  35.6991806  24.4272842
  26.4047050  35.5488472  23.7348480  84.8005829  69.4212570  30.6292095
  84.0498352  69.7445755  31.1272736  85.1135330  70.1851807  30.1447296
  20.6630707  66.6367340  21.6395702  21.0601635  67.4763260  21.8711758
  20.1490974  66.3942871  22.4098167  84.0922775  68.8064957  85.1635818
  84.3283463  69.7309647  85.0870361  83.1456757  68.8119812  85.3055420
  12.7733183  60.3458443  69.0788498  13.3202515  60.5274734  68.3145828
  13.0574236  59.4816895  69.3767700  29.3645840  56.0147171  53.7743034
  29.2148933  55.0743523  53.8719635  28.5385933  56.4177742  54.0417328
  32.7817307  59.0317230  22.2566299  32.3685608  59.6989861  21.7086525
  32.6694527  59.3532600  23.1511917  67.5345612  26.5564156  67.7359009
  67.2314682  25.6851368  67.4804764  67.5029678  26.5500832  68.6925583
  46.3705177   7.4963512  63.1609497  46.4807472   8.2576990  62.5913620
  45.8567162   7.8223910  63.8998260  40.7801704  26.3472786  81.8091202
  40.5702667  26.7058735  82.6714325  39.9638786  26.4195957  81.3144836
  53.2686081  47.2779503  83.4567947  53.7758904  47.1011963  82.6645432
  52.3654442  47.0750771  83.2131271  16.1269302  37.0441246   6.3209057
  15.6442127  37.7604370   5.9084582  17.0135365  37.3866997   6.4340658
  48.4928131  67.4701080  61.1611633  47.5863991  67.2827072  61.4051552
  48.7177963  66.7853012  60.5313644  39.6571732   8.7611666  83.1208572
  39.4003868   8.1451559  83.8070221  38.8294029   9.0529652  82.7389221
  60.5955849  38.1666412  25.9107113  61.3509941  38.2490273  25.3286438
  60.5200500  37.2264099  26.0734730  79.8772049  27.6106663  32.8091125
  80.4601364  27.7963829  33.5452728  80.1188202  28.2550373  32.1438026
  13.7673254  16.9561119  19.9489899  13.1074381  16.9398270  19.2557964
  13.3077974  17.3136024  20.7087708  54.9354095  46.3413544  16.1028595
  54.6912537  45.6197548  16.6824455  55.7693024  46.0691948  15.7197418
  62.2208481  61.5965958  67.5204010  61.8006134  62.3916817  67.1925659
  61.9930038  60.9234314  66.8791809  46.1045456  68.6215210  76.2053909
  45.7831306  69.4836121  76.4694214  46.9869270  68.5719604  76.5730591
  61.4095650  43.6703491  75.3254471  60.7909279  43.1832619  74.7811508
  60.9040375  44.4123955  75.6571732  78.0937347  50.8699112  88.0373535
  78.6616287  50.1105347  88.1680298  77.3320923  50.5223694  87.5733032
  42.9479218  16.7115974  27.0123215  42.1411743  17.1749592  27.2374535
  43.1274300  16.9687595  26.1079559  14.2810001  28.8703938  40.9884377
  14.0813580  29.6879482  40.5323906  14.2278471  29.0951595  41.9173546
  64.9438553  15.5619555  63.8614693  64.5111313  14.7157793  63.7475853
  64.6771393  16.0722027  63.0967865  82.4217987  64.3860092   8.3550787
  82.5170822  65.0602493   9.0277977  83.1996536  64.4839706   7.8059201
  10.2804956  26.9470482   8.1875343  10.3923635  26.0245590   8.4171724
  10.5222549  27.4227123   8.9822216  50.7242317   6.0752673  34.3542747
  50.0578880   6.0537539  33.6674309  51.2736893   5.3113384  34.1789322
  38.1909256  53.7053146  54.5475998  38.7212219  53.9802170  55.2955627
  37.4370193  54.2950020  54.5588684  33.7902718  69.6425018  40.0323105
  34.6526337  70.0477905  39.9411850  33.8863678  68.7810516  39.6262321
  65.9946518  49.3385429  44.5323715  65.5136414  49.3009338  43.7056656
  66.3356323  48.4521217  44.6516190  78.0749741  49.0812263  27.6886845
  78.6695328  48.3636551  27.4699936  77.4739075  48.7064743  28.3325062
   3.3673022  27.6301136  38.1776962   3.7359083  27.6911736  39.0589676
   3.5735631  28.4726257  37.7728996   6.1707830   4.0194454  52.3083267
   7.0897799   3.8614171  52.5244370   6.1026707   3.8025508  51.3785172
  63.8920174  68.4211578  32.2649727  63.7125092  69.2584305  32.6927490
  64.7160645  68.5621796  31.7988281   5.4732409  45.4033928  51.0916862
   5.2038875  44.5271797  50.8161240   5.0974956  45.5055466  51.9661102
  74.8976517   7.2975316  17.4425507  74.0970078   7.7707438  17.2161255
  75.6058273   7.8851523  17.1790543  62.6707039  11.4269915   9.3141546
  62.1147995  12.1534491   9.0322647  62.3524628  11.2076797  10.1898584
   8.1384439  22.1725636  67.2869339   8.2927971  21.4036560  66.7381287
   8.9256096  22.7062435  67.1783600  25.9220848  13.2509060  33.0019531
  25.3564034  12.9431543  33.7101364  26.2457409  14.0990992  33.3053436
  76.6829987  58.4102631   5.3373375  75.9241257  58.8952675   5.0131192
  76.4664078  58.2069511   6.2472749  74.5322037  27.9702835  22.2955360
  74.0992355  27.1470375  22.0696239  75.0503159  28.1888409  21.5209255
   9.8207283  71.1725464  42.4993820   8.9030704  71.2096100  42.7691269
  10.1682434  70.3961639  42.9383583  14.8000774  23.9721546  28.8191090
  14.7345562  23.5882835  29.6935120  13.9657955  23.7592373  28.4009304
  60.5247154  57.8801842   8.5487337  61.1462173  58.0552063   9.2553682
  61.0471878  57.4513359   7.8709850  14.3112574  57.7275009  30.5029659
  14.0067978  56.8631630  30.7794781  13.6704645  58.0096588  29.8502769
   7.8736477  63.8061714  35.9256020   7.0800986  63.3108063  36.1283875
   7.7300820  64.6632462  36.3269081  86.0358505  69.0047607  11.9577351
  85.2791748  69.5868912  12.0269728  86.2572708  69.0095062  11.0265083
  86.0744858   0.3907203   9.8595371  85.2442169   0.7731004  10.1435556
  86.2233963   0.7607888   8.9894190  68.7640152  14.4407673  73.2773514
  68.9242401  14.2757282  74.2065048  68.9446716  13.6031828  72.8506851
  81.4396820  16.3434429  85.7858734  80.6431274  16.7795448  86.0884323
  81.3661194  16.3454933  84.8315048  80.8615265   7.2497649  31.2103004
  81.2172546   7.3601880  30.3285427  79.9169769   7.1673346  31.0789204
  86.8125992  33.7897186  54.0364265  87.0928955  34.6493378  54.3506203
  85.9161606  33.9272194  53.7302780  15.2439232  71.7365112   3.6120374
  15.6904430  71.7450943   4.4586654  15.1381912  70.8076553   3.4064200
  79.7864532  60.5369110  84.1415863  80.1597214  61.2350845  83.6035767
  80.2959747  60.5602951  84.9515686  14.2180214   3.1485488  35.5989304
  13.8675423   3.2600751  36.4826508  15.1494017   3.3526907  35.6831207
  65.3075714  70.9417801  33.5324860  66.0119019  70.4569473  33.1022835
  65.7251663  71.3468399  34.2925987  28.6553593  59.4585075  60.7932129
  28.3973427  59.9705658  60.0267563  28.1576614  58.6445198  60.7160606
  71.6475143  70.9767685  36.1283112  70.9231949  71.0630264  35.5085182
  71.2532196  70.5766068  36.9033165  65.7046967  62.8378906  69.5726547
  65.5291901  62.0711479  69.0271759  65.4485855  63.5825996  69.0285492
  35.0438156  15.7120333  64.6041641  34.5859184  14.9856091  65.0270996
  34.3479462  16.2328281  64.2032089  14.5702848  37.4141579  41.2453346
  15.3012991  36.8172264  41.0855827  14.8309507  38.2312050  40.8202286
  54.8201256  66.9992294  57.2635040  55.3430824  67.5889893  57.8065872
  53.9578743  67.4128494  57.2224922  59.9821510   3.1836166  53.2080040
  59.4061928   2.4203379  53.2517166  59.6257629   3.7120059  52.4938469
  33.0529022  53.4227219  37.5639381  32.6290283  53.2430305  36.7247276
  33.7112083  54.0876923  37.3622398  65.7932358  67.3974838  74.5079041
  65.9129944  68.0012741  73.7748718  66.6563416  67.0046234  74.6380692
  16.1158104  60.0610085  25.7506390  16.2408981  60.0082626  26.6981640
  16.4218674  60.9373665  25.5170631   4.2960668   0.7441229  84.7954788
   4.2092071   0.0533226  84.1386032   4.1301179   0.3041009  85.6291885
  11.2648258  61.7471657  28.3056412  11.5326328  62.6653595  28.3435020
  10.3129148  61.7790489  28.2103519  21.2337589  11.2828779   0.7241761
  21.7920208  12.0205517   0.4783871  21.3246288  10.6623707   0.0010263
  28.7935677  50.3866920  29.1517353  28.8440323  51.3298798  29.3069096
  29.4647942  50.0136909  29.7231846  21.9839897   1.9727561  43.2670822
  22.9332581   2.0790331  43.2052116  21.7918835   2.0741608  44.1993065
  15.1871881  10.6393890  33.4555550  15.3186245  11.0506315  32.6012497
  16.0294552  10.2318172  33.6573029  77.8167801  43.7246246  87.1074600
  77.5700455  44.6228790  87.3276672  77.3874512  43.1881065  87.7738419
  73.4001083  68.3290329   3.8533502  73.3656921  69.0267334   3.1989334
  73.4051895  68.7883606   4.6931238  79.3117905  19.7245312  70.2915192
  79.1841354  19.0357304  70.9438171  78.8763809  19.3939724  69.5057831
  77.5649261   1.6502095  87.5566330  78.0805206   0.8985343  87.2644348
  76.8235931   1.6817738  86.9519272   5.5270061  15.9937248  27.0461369
   5.2850513  16.3022690  27.9193439   4.8094316  15.4145880  26.7893925
  62.3859100  68.1185913  79.0012512  62.2337036  68.2574310  78.0664825
  62.9383965  67.3379288  79.0406036   6.0382838  15.8692026  47.1214828
   5.3953967  15.4033852  46.5867500   5.6609120  16.7401257  47.2452431
  66.3836441  70.9947205  13.9922295  66.7029037  71.2082291  13.1154633
  67.1773376  70.8818817  14.5152483  62.7529488  35.2946396  86.3591843
  63.0030327  34.4621544  85.9583588  63.3910637  35.9237556  86.0226517
  11.8127308   7.3954024  81.0740204  11.0990152   7.3969159  80.4361801
  11.4618826   7.8707008  81.8271637  50.0814590  26.0037212  30.8058929
  50.9779129  26.1974335  31.0798950  49.6922188  26.8615780  30.6361752
  74.8314438  18.0474491  38.0168533  74.3803329  18.8789864  37.8709831
  75.3223648  18.1803169  38.8277626   5.5574651  53.5346489  48.0403175
   4.7188182  53.4457664  48.4930878   5.5216355  54.4024391  47.6379585
  73.5419846   2.5834184  76.0637589  72.8472061   2.9017510  75.4874039
  73.0800247   2.2380838  76.8276749  45.6948586   0.2868307  34.1625214
  46.6221657   0.2344055  34.3939972  45.6656685   0.0503445  33.2354546
  67.7273483  13.6812363   0.8372570  68.3458862  14.3022728   0.4525982
  67.7978592  12.9011030   0.2871178  71.6072998  66.2955246  67.2117996
  71.9833374  67.1340637  67.4795456  71.9921036  66.1239929  66.3523026
  85.8693008  25.0867367  88.6405945  85.1705093  24.7430115  88.0840225
  86.6736221  24.7323437  88.2615204  27.3083267  21.6345253  30.3904362
  27.3587761  21.1332150  31.2042999  27.9480324  22.3377380  30.5022392
  15.6356344  36.5402565  85.9733047  16.5202465  36.3444328  85.6645279
  15.1995201  35.6888199  86.0063400   8.4502163  41.6514282  66.4725876
   8.3580580  41.9961548  65.5843887   8.9228439  42.3353157  66.9470901
  59.4588051  46.0950584  32.9226189  60.2691345  45.7804031  33.3233566
  59.0890121  45.3238831  32.4927635  63.6943741  31.0266876  24.9394531
  64.3380508  30.7915478  25.6077538  63.3384590  31.8649654  25.2341480
  39.5534973  62.1831093  62.3431969  40.3188591  61.6118546  62.2789993
  39.1491623  61.9488373  63.1785774  67.9770508   6.8717394  29.2837944
  67.3052826   6.4043989  28.7872543  67.6782837   6.8267479  30.1920605
   9.8370056  32.2507401  61.8822975   9.0964937  31.6682758  62.0514526
  10.6001549  31.6729679  61.8783417  47.5370674   8.9369812  81.6640778
  46.6220245   8.6794949  81.5517044  47.8942795   8.9454670  80.7760696
  82.6812439  63.4733086  46.9776611  82.4346390  63.5939407  46.0606728
  81.9346848  63.0195122  47.3687477  12.5446243  54.1832352  59.0892181
  12.9683456  54.5103798  58.2957001  13.2220659  53.6683235  59.5275917
  70.8028107  14.6609745  14.2715588  71.2751160  14.6848555  15.1037769
  71.4685211  14.4264364  13.6249952  56.5783958  61.5716400  17.7232723
  56.9284821  61.7467461  18.5967789  57.3458633  61.3423767  17.1991863
  23.9858570  17.6287766   5.7127433  23.2696095  17.1083355   5.3489261
  24.7736588  17.2717056   5.3027425  28.7783108  31.3157291  81.0013733
  29.2681484  31.9920254  80.5334854  28.5424747  31.7238979  81.8344421
   0.8505302  50.5123482  60.3608894   0.4276323  50.1455116  61.1373024
   0.7308613  49.8450508  59.6851463  66.8709335  11.3011551  12.0577412
  66.6978607  11.0583410  12.9673138  66.3307419  10.7017002  11.5428791
  83.3189316   9.1631498  63.0895958  83.2999573   9.2206755  64.0448761
  82.7551804   8.4175930  62.8833008  83.5592575  13.9453287  37.3228722
  83.6060791  13.8253889  36.3743706  82.8246994  14.5452118  37.4524612
  12.5524578  37.4084320  42.8813095  13.2594080  37.6501465  42.2829552
  12.4556570  38.1672821  43.4566422  55.6898613  28.3091946  20.6658001
  56.0308266  27.4188004  20.5811024  56.3843689  28.8660946  20.3140182
  11.8001614  25.7996502  11.7883291  12.3152266  26.5467377  12.0929585
  12.3420372  25.0368671  11.9902267   1.0961273  60.7468719  53.4002266
   1.2383101  60.9114189  54.3323936   1.8675134  60.2520180  53.1239738
  52.3224335  47.1251907  13.4024487  51.9695930  46.6753273  14.1701441
  53.0547523  46.5775757  13.1194954  64.7325592   5.3676753  88.2574844
  65.2102890   6.1450562  87.9682083  64.4440918   4.9483624  87.4468079
  15.2317829   1.8770779  11.3638849  14.3588018   1.4848239  11.3473759
  15.7551279   1.3211118  10.7866125  61.0529633  10.9313459  19.9658718
  60.4929085  10.1705446  20.1199818  60.4759369  11.5738163  19.5529518
  58.6041527  41.8316841  84.5988541  58.3894424  41.3508797  85.3982010
  59.4535866  41.4819374  84.3298416  50.5966988  56.4133034  17.8389263
  50.9862328  56.8509331  18.5958786  49.6935081  56.7295952  17.8179836
  79.2289658   1.4442215  16.0040474  78.4235153   1.8148891  16.3647251
  78.9534531   0.6225876  15.5975456   1.3738031  63.9494820  17.3153648
   0.4406414  64.1558914  17.2621212   1.7628984  64.7094574  17.7481117
  37.0341110   4.1778345  46.8277626  36.9014244   4.3599539  47.7580643
  37.2838020   3.2542632  46.7977409  30.7536297  23.8560524  34.6928825
  30.3306389  22.9987926  34.6437492  30.1478844  24.4479389  34.2468147
   2.7289124  34.6577835  82.0924683   3.1690066  35.5037575  82.0095444
   3.3967309  34.0157509  81.8515396  83.6761703  65.5590591  35.2556000
  84.3282852  66.0282516  34.7351799  83.0583572  65.2140961  34.6109772
  60.3786736  19.1914120  47.5229568  60.8208466  18.4750595  47.0673790
  60.4082756  19.9223328  46.9056129  66.0060120  33.5288124  28.4377308
  66.2942581  34.1893806  27.8078136  66.6295776  33.5989380  29.1605568
  50.7975883  34.3997536  68.3664856  50.5235367  34.5339546  67.4592285
  50.4605217  35.1639595  68.8340378  78.2720871  33.7497978  78.6070557
  77.7501755  33.8932495  79.3965225  79.1046066  33.4047966  78.9297256
  41.1116486  41.3529930  10.0957565  40.1956902  41.1416283   9.9152794
  41.0865669  41.8462296  10.9157085   3.2126982  10.0046349  60.3580093
   2.6686299  10.4639330  59.7182693   2.5865352   9.5993004  60.9578896
   9.5648909   6.5375872  68.5074158   9.5310869   7.2647519  67.8858643
  10.0292225   6.8920379  69.2656937  55.1054153   2.5882766  55.7209015
  54.3482628   2.6977422  55.1456032  54.8362923   1.9146476  56.3454247
  72.3610535  60.6481781  74.2947845  73.3024673  60.4757576  74.3099365
  71.9991302  60.0599899  74.9575729   0.8459570  48.3883934  13.9212627
   1.2004738  49.2535934  13.7163763  -0.0679246  48.5528984  14.1536188
  39.3927383  13.4712381  66.8491669  39.8376465  13.8713322  66.1020279
  40.0444717  12.8815727  67.2283401  83.9784012   3.3184111  43.9141884
  84.3145447   3.8260894  44.6527672  83.3533478   3.9034653  43.4861107
  33.0844917  11.1223116   1.2574767  32.9683418  10.4042606   1.8796853
  33.2795792  11.8835793   1.8039613  66.6981354  36.8555069  82.3289337
  65.9144821  36.5737686  82.8008957  66.5584946  36.5539207  81.4312820
  31.8591633  21.0052052  29.1136074  31.3498058  21.5144138  28.4831352
  31.8682327  21.5437565  29.9048786  38.0599403   7.1606722  31.7971096
  38.2246590   7.3374705  32.7233086  37.6384697   6.3012981  31.7885799
  78.4603424  42.4207878  65.0149765  78.2893143  42.9437675  64.2317352
  78.6319504  43.0659180  65.7009735  71.1639709  40.6396790  58.1490898
  70.2440567  40.5332413  57.9068832  71.4455032  39.7632637  58.4115181
  25.4741936  22.6085815  28.2969646  26.0406647  22.0118828  28.7861404
  24.5856724  22.3494186  28.5410881  17.0220165  55.1872330  52.0560303
  16.9209461  54.2354431  52.0455627  17.9036160  55.3307037  52.4001694
  14.1536026  59.4707146  53.1186333  14.6604710  58.8205643  52.6321983
  13.4434357  58.9696426  53.5196609  16.5043049  57.6667404  16.6371498
  17.4407883  57.8641281  16.6207962  16.3910484  57.1061935  17.4047375
  10.8080072  30.3167534  76.4979248  10.9170141  31.2677078  76.5036392
  11.1534977  30.0309792  77.3436203  56.4794731  52.4475822  42.8824654
  56.4937592  53.1037674  43.5792046  57.4014320  52.2408829  42.7291794
  61.7298012  61.2555695  58.7390900  61.6001472  61.8928757  58.0367622
  62.6508255  61.0048065  58.6679459  65.9687042  51.8817101  82.6474686
  66.3977509  52.6299706  83.0625076  66.1983871  51.9573288  81.7213211
  36.7494583  24.8408966  34.4029388  37.3191757  25.4968910  34.0012856
  36.3811073  24.3582306  33.6629486  67.4579926  52.8672409  77.6379395
  68.0276794  53.4013443  77.0843964  67.0066071  52.2855377  77.0262909
  61.5166740  11.1131153  29.3744774  62.0180779  11.5586700  30.0573425
  61.9920120  10.2962637  29.2226963  10.2037268  31.1336594  72.0989838
  10.0306845  32.0641518  71.9558945   9.3372450  30.7269478  72.1042786
  52.1103477  25.6087666  25.1316776  51.3687134  26.0794697  24.7513485
  51.7172813  24.8479805  25.5593834  81.6599350  46.2039871  59.1946526
  81.6552505  45.2749748  58.9641190  81.0434875  46.2729721  59.9236679
  20.7175140  14.8846178  13.8293362  21.3996410  15.4452534  13.4597101
  21.0221043  14.6893530  14.7155228   0.2764919  65.0134354  31.5133286
   0.8943363  65.7423706  31.4572010  -0.2705445  65.2209167  32.2709122
  50.2612076  62.1450882   7.6436901  50.7275200  61.9583244   6.8288860
  50.8322105  62.7538490   8.1123056  46.7572975  29.2693062  21.7396317
  46.1794662  29.1318779  22.4902687  46.6375122  30.1909847  21.5107422
  44.5331116  44.6276436  15.3151798  44.8953896  45.3980293  14.8775778
  43.5875168  44.7762184  15.3178129  75.4986954   7.1044002  28.2012405
  75.0262527   7.5380936  27.4906483  75.5060654   6.1795712  27.9545231
  17.6198101  41.3069077  17.6131878  16.9794617  40.8259811  17.0888805
  17.2650700  41.2869606  18.5020027  76.4883270   1.8328246  26.2015133
  75.8448868   1.4756593  25.5894260  77.1462631   1.1428694  26.2870331
  51.8362312  44.0533638  27.1460304  51.4026794  43.2325668  26.9124489
  51.8823280  44.5421638  26.3243370  56.1527519  57.6708946  77.4303665
  56.6063957  56.8548431  77.2194366  56.4604187  58.2932091  76.7713547
  33.3607330  29.9668102  12.2669344  33.9370537  29.2188950  12.1097364
  32.5703392  29.7699566  11.7641850   1.1085105   3.8851545  77.1997299
   0.9809324   4.7249317  77.6410141   1.9493978   3.5671833  77.5284195
  75.5522766  62.9719505   3.1053824  76.0334854  62.8033371   2.2952969
  74.6567917  63.1517677   2.8190231   5.8090072  49.1050911  25.3857307
   5.7106819  48.5462227  26.1565952   6.6896248  48.9145889  25.0625381
  53.7613182  19.5308056  46.2461052  53.0709496  20.1563473  46.4659348
  54.3295517  20.0048027  45.6389236  19.1646442  33.2811546  24.2462692
  19.5274792  32.5438194  24.7371025  19.8889503  33.9032364  24.1782570
  37.0482521   2.5518737  81.4358749  36.2011223   2.1977835  81.7064819
  37.5496445   2.6207006  82.2483368  54.6842461  42.6169662  30.1973114
  55.2822113  41.9096527  29.9556904  55.2569237  43.3591728  30.3907051
  73.2305908  55.1653519  18.4898319  73.6350479  56.0222359  18.6254692
  72.3163223  55.3616982  18.2854118  41.2051506  27.9491405   1.1658754
  41.5616646  28.7399006   1.5706320  41.9357605  27.3307266   1.1640980
  13.1349773   5.8455768  84.7334900  12.3981304   6.4359794  84.8906937
  12.7429962   5.0798326  84.3137054  18.6484375  17.4757957  52.0522728
  18.0034142  17.8667564  52.6416168  18.4412632  16.5412941  52.0564461
   3.2100651   6.7455111  79.2128143   3.4554105   7.6226430  78.9184036
   3.8205791   6.5521545  79.9242325  74.3018570   4.0217290  57.7165298
  73.6008835   4.4204354  58.2321854  74.0211105   3.1152534  57.5911751
  49.9483032  65.6613617  59.2242813  50.4792328  66.4573746  59.1977386
  50.5502586  64.9819870  59.5281448   6.4950342  31.3503094  83.7268677
   6.2977495  30.4998283  84.1192856   6.9059315  31.1378899  82.8888474
  66.2672729  18.9029541  77.6602325  67.0403061  19.2768517  78.0831528
  65.5292587  19.3620415  78.0612411   9.9962692  15.2326784   6.9168420
   9.9702024  16.1891403   6.8897586  10.8016558  15.0018234   6.4539275
  86.6145248  14.8314781  73.7182846  85.9231796  14.3903646  74.2119370
  87.3601379  14.2329197  73.7632217  83.4378510  41.3087425  55.5781174
  84.0902863  40.8119888  56.0718727  83.6939926  42.2235146  55.6956635
  49.4477615  10.8017702  51.1646309  48.8612518  10.1307144  51.5138016
  49.7353821  10.4530087  50.3209038  80.1674805   5.3610797  20.7707386
  80.6619034   4.6951666  21.2485924  79.9558563   4.9476361  19.9337730
  22.9429340  57.1196785  74.2318192  22.6568203  56.3600349  74.7390823
  23.4319134  56.7473030  73.4980164  10.3759995  24.4536419  29.2014980
   9.7868690  24.6833630  28.4828968  10.8639307  23.6961823  28.8783722
  11.7627563  13.2730799  29.4950962  12.3554888  12.5391808  29.6572495
  11.7963295  13.7903748  30.2997761   4.8015556  60.6527138  75.3561020
   5.3241143  59.8689003  75.5258102   5.3406997  61.3746147  75.6792374
   9.9307861  19.7306194  20.1573181  10.1639194  19.5342484  21.0646877
  10.7626572  19.9523048  19.7388954  81.2013245  30.9332161  63.7525406
  80.3614273  31.2782955  64.0554123  81.1033173  30.8637962  62.8029060
  32.8039665  70.7997360  37.2923508  32.5951118  70.5161591  38.1823997
  32.8668404  69.9870224  36.7905807  62.1435585   9.7824268  63.2628670
  61.3825798   9.9940014  62.7221489  61.9764290  10.2247267  64.0951309
  10.2955770  36.5999908  35.8812752  11.2197180  36.8478889  35.8540611
  10.2172422  35.8964691  35.2369461  69.7004547  20.9279022  50.3219147
  69.6766510  21.7937717  49.9145622  70.4910126  20.9387074  50.8614922
  65.6669312  50.0208168  50.8267365  64.7428055  50.2506561  50.9236603
  65.9707718  49.8677177  51.7214279  44.6697159   7.1140127  40.6911201
  45.3813896   7.2953005  40.0772095  44.1131401   6.4840331  40.2333183
  26.5521183  60.7756844  13.6222324  26.3328381  59.8544998  13.7621031
  27.4726715  60.7656326  13.3601017   6.3619385  41.4727554  48.8912773
   6.9463778  41.3678055  48.1405144   6.8383942  42.0513115  49.4866753
  62.7580376  33.6135712  64.6177521  62.8007736  33.9537811  65.5114288
  62.0231476  33.0003662  64.6297989  11.2638721  56.2935600  69.1482544
  11.8245487  55.7024117  68.6458511  11.8238115  57.0442467  69.3461761
  44.8870697  63.7601128   6.4482341  45.7570305  63.3955345   6.2855172
  44.4279556  63.6659050   5.6136260  12.5485783  45.5762901  46.2040596
  13.1461658  46.0842857  45.6553688  13.0248280  44.7674713  46.3917503
  12.4280968  22.3068504  28.9757977  12.2115507  22.1684666  29.8978539
  12.3210192  21.4452934  28.5727043   7.9588122  43.5904732  30.2105675
   7.2560029  43.2063560  29.6864090   8.6171417  43.8579369  29.5692425
  41.8402939  55.1362953  32.5471573  41.9023476  55.3003998  31.6061726
  41.0690346  54.5774536  32.6424751  43.7025566  18.5823936  86.7666245
  43.1353607  17.9601097  86.3113403  43.1409988  19.3388710  86.9358215
  18.4952965  40.5904961  65.9226532  18.5522804  40.7273827  64.9770050
  19.1700592  39.9383278  66.1113434  63.0040321  70.2936325  80.5612717
  62.9238586  69.5445404  79.9707947  62.1819954  70.7721634  80.4540787
  55.6131973  61.6920204   2.3709078  56.4462318  61.2291451   2.2812641
  55.8081284  62.4250641   2.9547575  16.8203621  62.3277626  13.2017803
  16.4136887  61.4736977  13.0554228  16.9385967  62.3773460  14.1503553
  49.5415993  61.4420586  32.3178406  49.5488167  60.5970421  32.7674255
  50.4475288  61.5718727  32.0373573   7.0998902  30.2172985  26.8675003
   6.8097286  29.5324306  27.4699898   7.9107900  30.5482388  27.2537022
  18.0731335  18.5477123  72.0417175  18.2467670  18.0867882  71.2209702
  18.5753155  19.3595581  71.9713669  66.6852417  39.7073364  79.2921371
  66.2175140  40.0096550  78.5136337  67.0955505  38.8860741  79.0211868
  86.1142807  21.1401615  77.4369278  86.2713394  20.3093929  76.9881592
  86.3231735  21.8082752  76.7840652  19.4539356   0.0299122  50.4460297
  19.0495052   0.0622621  51.3129883  19.2654152   0.8860552  50.0616989
  53.6560783   8.6398420  41.2349205  53.6639099   9.5840149  41.3921127
  52.8021736   8.4703598  40.8369827   6.2612514  64.4310455  70.8749924
   6.0355787  64.2537613  69.9618301   5.6787658  65.1461029  71.1311874
  12.1798115  69.7401810  13.4420967  12.5365076  69.0673447  14.0220013
  11.4319639  70.0972900  13.9210873  86.3154068  54.4151306  67.2969513
  85.5537872  54.0181923  66.8743210  86.1785889  54.2601204  68.2315521
   9.3493271  60.3991127  80.6221390   9.2157784  60.3326073  81.5676422
   8.7145920  61.0560684  80.3362198  65.0822830  24.3627319  45.0209427
  64.3011398  24.1434898  44.5130310  64.7605133  24.4860039  45.9139748
  55.3676147  43.8519669  61.4673576  54.8556747  43.0516281  61.5840034
  56.1669731  43.7006073  61.9716911  36.7094612  44.0761871   2.6706336
  37.2973137  44.5282822   2.0654294  36.3259010  43.3706017   2.1498041
  81.7870712  19.7709274  47.7567139  81.0654526  19.2506523  48.1100082
  81.4140320  20.2098618  46.9922447  65.8457108   5.7008243  25.0570354
  66.0867538   5.8024673  25.9777946  66.5342026   5.1470060  24.6889420
  17.9483280   0.6476822  41.4994469  18.1004047   1.5427641  41.8026543
  18.4893894   0.1052480  42.0732498  29.8826580   0.6047862  83.1991348
  29.1061192   0.8952655  82.7207642  30.3810291   1.4067469  83.3563538
  27.3962975  56.9460030  45.1946869  27.2770920  57.8829117  45.3503380
  27.8521881  56.6297302  45.9746666  62.4093704  14.4953709  52.9574547
  61.9212112  15.0242958  52.3264503  61.9267044  13.6699924  53.0023308
   1.2255067  59.3130760  45.4834938   0.8297165  60.1677361  45.3127937
   0.9995950  59.1220284  46.3938217  76.2793198  71.3445282  45.7583656
  76.2744827  70.6194153  45.1335411  76.4824905  72.1156158  45.2288589
   9.7317505  56.2641830  15.5813866   9.4000349  57.1012688  15.2565975
   9.3472738  56.1763496  16.4535656  39.0188713  40.1380310   3.0303254
  39.5979652  39.3825493   2.9296689  39.3700981  40.7913284   2.4252865
  83.8254089  62.2589684  54.4057236  84.6690445  62.5070801  54.7838058
  83.8209152  61.3022957  54.4371796  73.0039291   9.9288359  64.1598206
  72.2103271   9.5934582  64.5768890  73.7050171   9.3696222  64.4944763
   6.3610487  29.9945850  35.9782677   6.9453225  29.5325890  36.5794449
   6.3481455  30.8953896  36.3017082  47.0493851   2.0052283   8.9190350
  46.3650513   1.3503202   9.0569258  47.0603600   2.5144598   9.7294636
  42.2386513  53.3750000  14.0861263  41.6128807  54.0064011  14.4410543
  42.2335358  53.5371208  13.1427689  25.3115368  66.8122253  75.3644333
  26.0557594  67.4059372  75.4638062  25.6541862  65.9545059  75.6156998
  82.5658798   9.9552383  38.5232964  81.7823715  10.3541279  38.9017639
  82.3997040   9.0135422  38.5660286  66.7640228  65.9781647  16.5499115
  67.5375214  65.8337784  17.0949688  66.9552841  66.7849197  16.0715828
  52.4633293  52.3024902   4.7563000  52.2892113  52.6597939   5.6270747
  53.2923965  51.8335800   4.8512020  59.9092903   6.6147900  57.1240463
  60.5039368   5.8649011  57.1069298  59.5522957   6.6576777  56.2369461
  84.0483398  58.4381828  44.4876671  84.0837479  58.1152725  45.3880615
  84.3255615  59.3522415  44.5499573  13.9522352  44.0040283  22.2013054
  13.5118370  43.9580002  23.0499306  13.5471239  44.7514534  21.7614555
  66.2339401   6.0489249   4.8781214  66.3990173   6.3582726   5.7687869
  65.3251190   6.2938528   4.7040915  58.7472916  37.5622635  37.0950661
  58.1558380  36.8106079  37.0572433  58.6944962  37.8631706  38.0022011
   7.6403136  20.8193550   5.9137006   7.9078059  20.9563389   5.0049019
   7.8811116  21.6315842   6.3592720  53.4464836  63.0671692  17.3318443
  52.7442284  63.7175827  17.3257065  53.1367950  62.3859482  17.9287224
  58.8435974  50.3121414   5.5860586  58.1088715  50.5800209   6.1380134
  59.6153679  50.4335327   6.1391106  27.2658234  70.7093811   7.3865385
  27.9844856  71.3324509   7.2790809  26.8767776  70.9358521   8.2312794
  31.7093468  54.3318405  42.8845291  32.0645523  53.9252052  43.6749115
  32.4388123  54.3282127  42.2647705  15.2507133   3.8986030  83.8654709
  14.5936546   4.5877647  83.7676926  14.7427473   3.0889449  83.9170074
  39.3967972  21.4250755  11.7275467  39.1263504  20.7184486  11.1412287
  39.7427139  22.1008644  11.1445503  59.5787048  62.3471222  24.9078617
  59.6125298  61.6495094  24.2533207  60.4887810  62.4641304  25.1804485
  64.5439758  67.2332687  25.2853680  63.9290161  67.6824036  24.7054291
  65.1860657  66.8393784  24.6947708  52.6999245  16.2905884  38.1731567
  52.9203644  15.6867676  37.4639053  53.5369186  16.4754143  38.5991974
  56.4002228  57.7892342  23.5144215  56.0522118  56.9486656  23.8120098
  55.7516556  58.1083450  22.8869190  38.7288055   1.1104510  77.0576935
  39.0044060   1.1901850  77.9708862  39.3322525   1.6754905  76.5751877
   5.1346569  33.4043312  86.9542542   4.6632524  33.1839638  86.1508560
   5.7072711  34.1296310  86.7046890  49.0402451  25.3841667  71.1507645
  49.2432327  25.7912674  70.3085632  48.3545494  25.9372883  71.5250778
  59.8185921  71.7617950  69.8983078  59.4558907  70.9060211  70.1270676
  60.5237198  71.5659103  69.2813339  40.0409012  21.6603985   3.6296616
  40.1193924  20.7422295   3.3707445  39.1938782  21.7128296   4.0724201
  82.1846771  33.6988792  48.7451210  81.6231461  34.2169838  48.1685066
  82.2740173  32.8567200  48.2990074  44.0283051  62.3081665  22.2040806
  43.7938766  61.3837967  22.2866554  44.8988037  62.2998657  21.8060913
  34.8929062  12.2694454  19.6081104  34.5389709  12.0699663  20.4748116
  35.2046967  11.4271736  19.2770596  44.1644821  14.1188374  16.4002018
  43.8524933  14.2719011  17.2920914  44.4417114  14.9816370  16.0920544
  27.4457741  19.3283577   7.6902213  26.8883781  18.5596199   7.8109865
  27.5689564  19.6760292   8.5735006  68.3423080  48.6443596  13.9178276
  67.4061356  48.7998734  13.7928181  68.7683105  49.3770485  13.4729471
  45.0998421  41.1503296  29.6734715  46.0336685  41.3605423  29.6705494
  44.6805954  41.9272842  30.0433426  32.5925980  28.8589878  18.1578712
  32.2556725  29.4251461  17.4634819  32.7977676  29.4573040  18.8763103
  65.8701096  45.5781364  57.4796906  65.4721603  45.2227097  58.2743874
  66.3362961  44.8368759  57.0931206  80.8551712  36.1412277  70.3749161
  81.4347076  36.5729980  71.0025635  81.4456253  35.7739449  69.7171173
  34.8545914  11.8542604  34.4481735  35.4022102  11.1996078  34.8815041
  34.2202454  11.3419542  33.9467964  79.7555618  66.5021591  49.2577438
  79.5789261  67.3834000  49.5870476  80.4672470  66.6197739  48.6285362
  68.1941833  20.7571011  39.8805656  67.8747940  21.3326111  39.1855774
  67.7452850  21.0618858  40.6691284  52.2968903  35.8843613   3.7015750
  52.6486473  35.8627701   4.5915370  51.9039307  36.7533951   3.6203699
  69.4309692  56.2662086  -0.2513568  70.3339615  56.0256462  -0.0440619
  69.2412491  57.0051918   0.3266904   1.3472304  62.6832619  77.1631393
   1.5157124  62.5023155  76.2384186   1.8824787  62.0442162  77.6336288
  62.2373734  30.0101414  18.7700710  61.8502541  30.5970936  19.4195786
  63.1223068  30.3500233  18.6373844  47.2519112  69.9452744  30.4936829
  48.0683632  70.4154739  30.6626568  47.4981689  69.0206680  30.5199261
   4.7758622  15.0818529  74.4563980   5.4895577  15.0706444  75.0941620
   5.2141056  15.1423645  73.6075668  27.3458061   3.9509311   3.9485576
  27.0370007   4.0219235   3.0453238  28.2884827   3.8053095   3.8686435
  68.6230087  70.2162247  41.6272888  67.6781769  70.3529358  41.6968193
  68.7453156  69.8242950  40.7626152   6.2972851   1.0436175  64.3186569
   7.2489982   1.1446927  64.3347168   6.1104207   0.4229766  65.0230179
  61.3996468  15.5617886  65.9726486  61.1782303  16.3332710  65.4510956
  60.6790390  14.9516315  65.8156052  82.5572891  70.3209915  75.6580887
  82.8624191  70.4019165  74.7544479  81.7091599  69.8831100  75.5861969
  39.4299622  21.0776749  31.8116608  38.8250389  20.4118481  31.4845867
  39.8279190  21.4475651  31.0235996  46.3493767   2.8162956   1.4543449
  46.5759735   2.7538073   2.3822353  46.9642143   3.4588907   1.1003957
  40.8787804  65.1905823  55.9965973  40.8472633  66.1072388  56.2704315
  41.7919693  64.9337006  56.1243744  26.1068745  19.3506470  85.6695709
  26.1529846  18.5493736  85.1479721  26.0829964  19.0450954  86.5763779
  23.8066483  45.6521454  86.7985153  24.6305752  45.5613861  87.2771988
  23.8176956  46.5515327  86.4710846  40.2181435  64.1638565  58.3350754
  40.5949516  64.3761826  57.4811668  39.8377647  63.2931519  58.2192078
  79.4814987  24.9043217  42.7130203  78.7177811  25.4808483  42.6888695
  79.8273163  24.9273853  41.8207703  42.3482628  66.2045288  48.1155052
  43.1060143  66.7880325  48.0758858  41.8187904  66.4476395  47.3560410
  83.4747391   8.3197575  34.9543152  83.6294174   9.2265892  35.2188225
  84.3106003   7.8794570  35.1082993  72.6711426  24.2484970  19.4682350
  72.7991562  25.1632671  19.2171555  71.7613907  24.2060394  19.7628193
  47.1386147  34.5219002  18.9959583  46.3304482  35.0243492  18.8927956
  47.6683578  35.0417824  19.6003819  10.3993931   2.7441919  28.3641415
   9.8136988   2.8429818  29.1147652   9.9623623   3.2165499  27.6555424
  32.4338493  27.6681404  82.9872513  32.9384232  27.8425102  82.1927490
  32.4942780  26.7202778  83.1061554   0.6572417  38.4411240  58.7830429
   0.5590947  38.7188988  57.8723068   0.4374062  39.2189865  59.2957153
  72.1153717  17.9535961  56.7868996  71.3141632  18.0401802  57.3034210
  72.6092606  17.2606964  57.2252998  73.7539749  30.7350845  21.8688946
  73.8752670  29.8585320  22.2338295  73.6558685  31.3016529  22.6341438
  77.9913864  62.2060471  17.7401772  78.1063766  61.7805862  18.5898781
  77.5884476  61.5351830  17.1889801  38.6751022  23.8284092  15.9451332
  38.0202942  23.9992924  15.2681885  38.3512802  24.2959404  16.7150574
  74.1004333   8.1984825  26.2667313  73.3617325   8.8071299  26.2771053
  74.0205688   7.7391295  25.4307594  35.6974335  19.7381134  22.8760471
  35.9343414  20.6099033  23.1924191  34.8882790  19.5261402  23.3414192
  77.8586349  28.9100094  29.9874535  77.8400574  27.9716835  29.7992172
  77.3445206  29.3057060  29.2836456  10.1299543  25.0153217  31.8632298
  10.8337259  25.6453018  32.0183525  10.1496115  24.8620491  30.9185867
  26.3580093  50.1357651  12.6363964  26.2848263  49.3205566  13.1326914
  25.8817387  50.7792168  13.1611500  43.1061821   6.6953988  68.5473022
  44.0049858   6.7569590  68.8707123  42.5652618   6.7225599  69.3365479
  42.2894440  63.3650818   0.6845283  41.7259140  63.1318588   1.4222771
  41.7243271  63.2833939  -0.0837173  41.7677765  61.7468452  67.1683655
  41.9804382  61.3892212  66.3063202  42.5047951  62.3204422  67.3781738
  43.6191063   4.1432290   4.0260596  43.3710670   3.5945377   3.2819853
  44.5762062   4.1466374   4.0126100  65.6093521  56.7092056  65.9511032
  64.9117737  57.0622749  66.5033340  65.2705154  55.8675690  65.6460342
  31.1701527   6.9408531  81.0456924  31.2425652   7.8578548  81.3104477
  30.7542534   6.5083590  81.7914886  84.8440552  49.6010818  30.4671726
  84.5297852  49.5926933  29.5630741  85.7350006  49.2551613  30.4142628
  64.7722549  19.2562408  72.7366562  64.9960022  19.8072109  71.9865952
  64.6717300  19.8707027  73.4636841   4.1976314   2.3262773   3.4917297
   4.0728593   2.6755981   4.3741350   5.0050430   1.8152884   3.5483713
  40.6839180  31.1185474  82.6124039  40.5713081  32.0582047  82.4688797
  41.0969925  30.8013973  81.8092728  77.4125595  26.0055370  45.7684593
  77.0358200  26.5480976  46.4612274  78.1687622  25.5851879  46.1779671
  75.2153397  24.3917236  85.5556717  75.7816162  23.7642689  86.0049591
  75.8033676  25.1000118  85.2934113  72.8070755  13.2885408  43.3460960
  73.6044083  13.8122272  43.2671013  72.1722412  13.7325163  42.7838707
  31.5809460  67.3408890  29.2503510  31.6924095  66.4014282  29.1047058
  30.6332836  67.4748306  29.2352390  48.1668320  54.7540588  43.0569839
  47.4716339  54.2439461  42.6413956  48.9533501  54.2192154  42.9494362
  75.5630875  51.8112793   7.8914185  75.0258179  51.5592346   7.1403871
  75.0121231  52.4165878   8.3876829  51.1032104  43.8777313  22.3948288
  51.8088303  43.9965324  21.7590504  50.5996704  43.1365967  22.0580845
  20.2063370   9.6614799  84.2722015  20.8608704  10.1966953  84.7209396
  20.6561146   8.8366175  84.0890808  21.1190186  60.7322769  60.0800133
  20.4617252  60.7213097  60.7757683  21.8889885  60.3197327  60.4714012
  25.8111305   9.3351126  66.1039581  24.9331417   9.4106569  65.7302475
  25.9365768   8.3949356  66.2326508  76.6096954  14.9310865  17.3485699
  75.7496109  15.0364380  17.7552490  77.0498810  14.2728167  17.8862991
   3.2056372  36.4833870  74.1573105   3.8204019  37.1240768  73.7998047
   3.2413795  36.6195679  75.1041031  15.8266201  60.5092926  82.4028244
  15.2428598  60.9722404  81.8018799  15.2514296  59.9161797  82.8861465
  13.4885693  31.6502209  18.5153294  12.7899857  32.1211395  18.9696941
  14.0184317  31.2722263  19.2171822   7.3079824  58.6902237  47.7533722
   7.9621344  58.1328125  48.1748123   7.7733293  59.5052071  47.5649986
  33.7267609  32.6765327  12.9503155  33.3802605  33.1554985  12.1974792
  33.6954651  31.7574997  12.6845484  46.9067726  12.9278488  52.9642944
  46.2503014  12.5294800  52.3928261  46.4229050  13.5871410  53.4617271
  44.6723404  23.4087639  87.2120056  45.5729980  23.2959423  87.5158463
  44.2345619  23.8710079  87.9267883  74.9353790   3.7469459  49.1984940
  74.8443680   3.6645181  50.1477852  75.7922745   4.1551275  49.0745850
  71.1699829  70.9603958  64.1241760  70.2986679  71.3124924  64.3060226
  71.5026093  71.5020370  63.4084778   1.4629773  57.9309196  70.1151123
   1.0178823  57.9760628  70.9613266   2.2243781  58.5024834  70.2141800
  29.8114758  54.2398186  21.1546383  29.1971989  53.6412277  21.5795898
  29.6194153  54.1568108  20.2205849  32.7470512  66.1624680  58.1061363
  32.3735008  65.3087540  57.8873482  33.6937180  66.0228577  58.0824585
  35.9465523  66.7481308  14.8054981  36.1736794  67.6631546  14.6400547
  36.7879181  66.2920609  14.8239002  78.3616486  35.1289368  89.0837936
  78.0907364  35.4069824  88.2088470  77.5413666  35.0172844  89.5643234
  71.2001953  13.7565908  84.0544510  71.1442566  13.1125650  84.7603760
  70.2955780  14.0353117  83.9122849  72.2245483  45.7057533  24.0231228
  72.7977524  45.0243835  23.6718349  71.4392395  45.2364311  24.3046532
   8.6536694   2.5512824  70.9257507   9.2337379   2.7560430  71.6591187
   8.3227654   3.4019117  70.6373672  73.8819351  26.0119896   3.9282880
  73.9037094  25.0572758   3.9937062  73.7885208  26.1858158   2.9916506
  19.8079071  31.3854523  26.3303986  19.4635506  30.5112534  26.5132256
  20.7480736  31.2521400  26.2097931  54.3745270  20.5730000  22.3341064
  55.0801926  21.0773373  22.7389679  54.1706543  21.0496330  21.5294380
  25.6587067  36.5258560   2.1084423  25.9960880  36.3470192   1.2307051
  26.3231487  36.1688652   2.6977696  70.1648102  35.6603851  22.2783146
  69.8415604  34.8991547  22.7602577  70.0422974  35.4304466  21.3572540
  12.5207767  58.1619911  54.8053398  11.5665989  58.0996208  54.7619209
  12.6968136  58.5470161  55.6638260  46.7398033  65.1808167  25.6382504
  46.6872940  65.0978699  26.5904045  45.8636513  64.9505692  25.3290958
  77.2948380  57.3646469  85.5658646  77.2939987  56.5338173  85.0905151
  77.3728256  57.1138763  86.4863281  62.1495590  19.0364265  83.6025162
  61.2887917  19.4450798  83.6937180  62.7692108  19.7602806  83.6936035
  49.9957047  26.2290058  68.6155472  49.2951050  26.5359535  68.0400696
  50.2773590  25.3999405  68.2288284  68.7290955  67.9360275  14.5868826
  69.0593872  68.1854324  15.4499798  68.6006393  68.7673874  14.1301832
  72.5322952  20.8831482   0.6821857  72.0882797  20.5966606  -0.1159404
  72.7245331  20.0724926   1.1534730  14.1632900   0.5878635  56.9134178
  14.0125704   1.1075231  57.7030182  13.7524443  -0.2562653  57.1001892
  35.2597466  16.6030064  37.3315506  35.0099792  15.6877975  37.4589958
  34.7082405  17.0893536  37.9443665  83.9430542  55.5329247  85.5342712
  83.1713562  56.0009232  85.2153854  84.1490707  54.9086723  84.8385010
  21.9792690  59.2534218  15.5310898  22.2700844  58.9923668  14.6572990
  22.1641216  60.1915894  15.5747013  86.2031937  19.5367489  60.0786552
  86.1278000  20.0573292  59.2789421  86.9406815  18.9493465  59.9134293
  52.8538742   4.3892097  74.3933716  52.8894844   5.1101408  73.7647095
  53.0403328   3.6079533  73.8726959   4.3864293  36.4083328  27.1190891
   3.6307311  36.5643997  26.5527020   5.0491009  36.0362206  26.5371666
  79.8613739  47.2666931  80.8585129  80.0811005  47.8461189  80.1289749
  79.1922226  47.7432861  81.3497620  84.3428268  37.6808357   6.6312099
  84.9750519  38.3683395   6.4217792  84.1256409  37.8275375   7.5518293
  16.5598450  68.6605453   4.9324331  17.4703770  68.4874496   4.6932654
  16.5805454  68.7824097   5.8816185  25.2744217  66.8517303  20.2149067
  24.7540188  67.6394424  20.3727932  24.9336090  66.5004044  19.3923225
  44.8320541  69.6387329  46.7574883  44.2007942  70.3315353  46.9518089
  45.6807556  70.0813751  46.7565689  38.6625328  33.7549515  87.5037994
  37.7959938  34.1564751  87.4395905  39.1081390  34.0168076  86.6981354
   8.3291693  66.3368759  54.8708725   8.9450302  65.9620895  54.2412033
   8.1535301  67.2173843  54.5390930  18.7276306  38.3692513  10.1015797
  18.6245384  38.2965393  11.0504303  18.0009918  37.8603859   9.7420158
  64.2884064   6.0351439  17.1178112  65.0347672   6.6344476  17.1144066
  63.6520615   6.4417510  16.5296211  25.1440945  70.4016876  31.2963009
  25.5092850  70.8888626  30.5577030  25.9078674  70.0396881  31.7455673
  10.0593882  25.3412971   3.8499906  10.3673334  25.5250874   2.9625094
  10.4901552  26.0004005   4.3942838   5.9399481  69.0433655   1.0665009
   5.9913034  69.9037476   0.6501545   5.0165057  68.9440842   1.2980798
  11.2786245  15.2243738  13.3537951  11.9153290  15.9125986  13.5466290
  10.8123341  15.5395737  12.5795507  31.5651531  62.5407028  13.5032206
  32.2820320  62.1384163  13.0128307  30.7716961  62.2080917  13.0836658
  16.2955894  71.4921036  78.7942657  16.2603626  70.7249146  78.2229385
  15.6640787  71.3030701  79.4883118  67.2497864  11.6500216  75.1515350
  66.4774094  11.0900345  75.0736084  67.6743927  11.5928888  74.2955704
  63.8030663  46.0633392  44.5209961  64.6053925  46.5823250  44.5772514
  63.9422646  45.4879341  43.7688217  61.1070557  26.3492527  40.0681190
  60.1668358  26.3045444  40.2419434  61.2118034  25.9382153  39.2100372
  19.6140194  66.5233765  82.9671936  20.4547310  66.1206131  82.7499008
  19.8466969  67.3464890  83.3968124  31.3433361  16.4470100  37.7389030
  31.9097233  16.9169941  38.3509102  31.8491821  16.4064636  36.9272957
  49.5277367  41.0695305  14.5523281  49.0508919  40.9475937  13.7313652
  50.0471306  40.2712669  14.6484671  44.6295547   8.4005814  32.0274315
  44.2825394   7.8686824  32.7435989  44.7453690   7.7833714  31.3050251
  53.6901855  31.8575840  40.2188187  53.7829399  32.2423744  39.3472900
  53.7379112  32.6037941  40.8164177  63.6026421  67.3651962  43.5012856
  62.6565361  67.5104980  43.5022125  63.9150772  67.8267136  42.7230682
  75.5766144  48.9002075  16.0676441  74.9796677  48.3314857  16.5538902
  75.0079117  49.5576553  15.6669321   6.2919774  68.0570526   9.3376570
   6.9187946  68.4601822   9.9383402   6.1431870  68.7217636   8.6651583
  72.3054886   3.8788400  35.2047462  71.9878006   3.9805906  36.1019402
  72.8596725   4.6454725  35.0585022  70.4548416  68.2692719  19.0510235
  71.2323685  68.5276108  19.5459461  70.1998367  69.0600052  18.5756836
  79.4925766  23.2855968  49.1232643  79.7099304  22.4693546  49.5735245
  79.2290192  23.8825779  49.8235397   3.6593356  24.0354595  26.5183926
   3.4217625  23.1932526  26.1304741   4.4341879  23.8454838  27.0473022
   2.1843996  40.6788063  16.7599106   2.4358590  41.6019096  16.7302876
   2.3861871  40.4041862  17.6543922  52.3866653  64.1618729   1.2620398
  51.4624443  64.2816391   1.4804555  52.8573456  64.4613113   2.0398748
  40.1126213  70.6443787  17.3245926  40.2137070  71.5918427  17.2333260
  40.9492531  70.2847443  17.0297394  22.8316269  21.8746758   7.8121595
  22.0389080  21.8191185   7.2785454  23.3493614  22.5666466   7.4006248
  36.8827019  20.2706375  84.2341537  37.0409889  20.2034931  85.1757889
  37.7242241  20.0523052  83.8336563  66.5355835  71.0829697  78.6190948
  67.0288239  70.3771133  78.2011032  65.7259445  71.1423187  78.1119537
  76.4197159  21.7335548  34.4770432  75.7549667  22.3949223  34.2848434
  76.7838974  21.9984188  35.3217010   9.0315485  49.9306984  41.1597748
   8.7503977  49.0501060  40.9112930   8.2196999  50.4348259  41.2144356
  64.5187531  23.8370972  50.7984924  64.3705673  22.9358940  51.0850334
  64.1926880  23.8590450  49.8988075   5.4602852  58.5981598  86.6841278
   5.7626653  59.4954948  86.5441666   6.0806742  58.0573769  86.1953506
  48.1763763   1.8046931  74.4823761  48.4974518   0.9194380  74.3107147
  48.7102394   2.1155167  75.2135468  12.5103264  70.8255844  61.5010147
  13.2831144  70.8657684  60.9376183  11.8919792  71.4386597  61.1035004
  61.8590164  27.0591717  80.8431778  62.1351433  27.7442379  81.4520035
  62.0944672  27.3974113  79.9792404  12.7659063  65.0005951   7.9624629
  12.4519672  64.7596970   8.8340359  12.1744785  65.6978455   7.6791101
  20.0422325  69.5213699  83.2513504  19.8936806  69.4414368  82.3091278
  20.7248707  70.1876831  83.3305130  84.6882019  67.2372284  23.7473011
  84.4233932  66.8047104  24.5591087  85.4996948  66.7967529  23.4949207
  15.6351919  49.9843483  55.4538269  15.6681166  49.3794823  54.7126846
  15.0084543  49.5877953  56.0589523  69.1331024  14.1688490  35.6020851
  69.7057724  13.6068182  35.0801697  69.6275558  14.3353548  36.4045944
  86.1429825  53.6392708  73.7873001  86.9020767  53.5766487  74.3670273
  85.3910294  53.6637230  74.3790741  18.6179218  64.4941711  79.9902573
  19.4270535  64.8973312  79.6756210  18.5729656  63.6562805  79.5296555
  79.0782471  35.8102226  35.9180832  79.5749359  35.7966232  35.0999489
  79.5061646  35.1547661  36.4689941  54.8118362  14.0022678  27.0873394
  54.7670479  14.9302225  27.3178329  55.2003136  13.5832148  27.8552647
  71.5830841   9.9826984  79.1980209  70.7015991   9.6642857  79.0035019
  72.0617523   9.2039957  79.4821472  29.7089119  58.3542290  72.9815369
  28.8523140  58.6067543  72.6370010  29.8994522  57.5165939  72.5592804
  86.3482971  69.3345032  21.9179382  86.1264343  69.5892334  21.0223274
  87.1891785  69.7596130  22.0865269  82.4439011  24.1483822  33.6382484
  82.2500305  24.5225163  32.7787895  83.2147598  23.5999928  33.4924011
  45.6320724  24.9790573  82.6029510  45.1265411  25.5158005  81.9925613
  45.1613312  25.0526619  83.4331436  62.3788300  66.0402145  72.4663696
  62.8399048  65.6863174  71.7058487  61.8916016  65.2955475  72.8189468
  37.9304466  63.4853745  54.3154526  38.0272179  64.3588257  54.6948547
  38.6956062  63.3840332  53.7493286  54.2532310   2.2220662  15.2545996
  54.9738083   2.1217880  15.8766508  54.0815582   1.3338817  14.9417295
  73.1045609  70.5410538  17.0342751  72.7924042  71.4112549  17.2823467
  73.5432053  70.2113647  17.8185749  77.5863800  17.6449795  73.1938477
  77.4816132  17.3233070  74.0892639  76.6996841  17.6428413  72.8332977
  53.8327141  44.9684219   0.3271765  54.1818695  44.9727364  -0.5640605
  52.9416771  45.3062782   0.2369723  73.2469711  30.7370777  25.2893505
  72.6276627  30.9280224  25.9937840  73.1101990  29.8098507  25.0949879
  19.7320957   3.4780672  83.1448288  19.1140766   3.8858984  83.7514267
  19.6457386   2.5392096  83.3101196  22.1575756  42.4468117  28.0756645
  22.7012196  42.2955780  27.3024807  21.3747368  42.8810577  27.7368088
  10.6737356  49.7500801   9.0900517  10.2034302  50.5324440   8.8020391
  10.6675568  49.8051147  10.0456486  42.6565895  21.2641277  87.4835052
  43.4714432  21.7085953  87.2496567  42.1458054  21.9282799  87.9463654
  62.2589569  34.7427788  59.7975922  62.4755974  35.2323227  59.0040894
  62.7976112  35.1427307  60.4803238  73.2210312  23.4804955  75.2597351
  72.3670120  23.6609440  75.6525726  73.4284744  24.2722454  74.7634201
  12.6026497  46.8427696  81.8333206  12.9000463  47.0187073  80.9406662
  12.4379759  45.8999786  81.8494720  28.8872452  36.5078392  16.8241100
  28.5650635  36.6072845  17.7199574  29.6917725  37.0258980  16.8000259
   7.5908079  52.0365486  49.2158089   7.0001140  52.6528358  48.7827911
   7.1879535  51.8782921  50.0695610  14.3661718  68.6646729  77.4259033
  14.0169182  68.7912140  76.5437164  13.6223869  68.8330765  78.0043945
   6.3568916  41.2929344  19.1570110   5.7860260  42.0351143  18.9582405
   5.7596040  40.6001320  19.4389744  40.1378365  50.3307304  25.3139057
  40.5683212  51.0544014  24.8586960  39.9316177  50.6815758  26.1802845
  76.0973129  49.6090927  11.4644041  76.5779190  49.3656425  10.6732168
  76.5044403  49.0930862  12.1602612  12.8507948  64.8214340  51.3360710
  13.3546352  64.0153885  51.4486122  12.0711880  64.5508270  50.8510780
  85.6808929   6.6725945  32.2855377  86.2187195   6.9423876  31.5411015
  85.6093140   7.4588552  32.8267441  74.9965134  51.5630608   1.7806855
  75.3020020  52.0293312   2.5588226  75.0911255  52.1965141   1.0693380
   8.7815886  69.4229889  72.0770264   8.8015890  70.3571014  72.2850266
   9.2931318  69.0114975  72.7736130  63.8711205   3.3404646  39.1915207
  64.6335907   3.4092200  38.6169472  63.2198296   3.9194729  38.7955360
  18.7610111  30.5576382  87.8147049  18.2676926  31.3537350  87.6169739
  18.1326103  29.9915924  88.2629700  37.9717255  64.2635269  79.2282181
  38.7621727  63.7237358  79.2212982  37.3085060  63.7117462  79.6428375
  15.0370331  50.0109520  36.8260956  14.8735170  50.9507027  36.9058571
  14.3286486  49.6015663  37.3229141  11.7879171  55.2366638  85.7078705
  12.3564100  54.6066132  86.1506882  11.4430046  54.7590828  84.9534302
  14.7641211  37.1436157  32.6497498  15.2425041  37.7331696  33.2326813
  14.8981400  36.2738037  33.0261765  14.7512560  56.1747437  20.9245491
  15.2092466  56.0197945  21.7506638  14.2737856  55.3617668  20.7592506
  73.8486099  50.8303642  70.3623505  74.7445984  50.6151047  70.6213989
  73.6851501  51.6877975  70.7551880  31.1030674   9.5783920  81.7042923
  30.8155098  10.4882650  81.6289673  31.5859184   9.5474005  82.5302048
  10.3010073  20.2059631   7.5497003   9.5120993  20.6113987   7.1898704
  10.2199583  20.3228817   8.4962692  51.3754959  16.2079010  35.2218819
  52.1545982  15.6653681  35.3438950  50.8395119  16.0348358  35.9958344
  25.3376293  15.1779528  12.4488163  24.6253834  15.0845041  11.8162003
  26.1274242  15.2446518  11.9121532  58.6984558  34.1456413  65.5450592
  59.1966782  34.8220978  65.0863571  58.0125847  33.8928337  64.9270859
  76.9757004  59.9407997  16.5165615  76.1535797  60.0210648  16.0329227
  77.6375809  59.7932549  15.8410053  19.1489582  43.6492615  20.1329918
  19.5319862  43.7600174  19.2627869  18.2124252  43.7985992  20.0032310
  41.2267876  45.1147079   9.3412476  40.6293068  45.5089874   9.9766912
  40.7282906  45.0943832   8.5243521   9.9671478  49.4715195  73.0658112
   9.9939308  48.5147018  73.0625992   9.6617393  49.6996346  73.9438324
  62.2275467  49.7878075  81.7255173  62.3946609  48.9368820  82.1307755
  62.8595314  50.3773155  82.1369934  48.2490501  67.5624161  33.2006454
  47.3199959  67.6175003  32.9769135  48.5677948  66.8019485  32.7145081
  81.2299652  68.5313721  25.5525417  80.2932663  68.3900146  25.6897964
  81.5262604  68.9662399  26.3521233  85.9329071  71.0467529  46.3236618
  86.5853424  70.3750610  46.5221176  85.9716187  71.1445847  45.3722610
  37.8650360  61.8619461  13.9132185  37.0487404  62.2869301  14.1764364
  38.4611816  62.0132828  14.6466599  25.7751923   9.1140528  18.1604557
  25.3148880   8.2786674  18.0799408  26.2672691   9.1960888  17.3435326
  64.4791107  52.6291313  56.5633049  64.0531616  53.4362869  56.2746925
  64.8957520  52.8616753  57.3931046   3.4766235  64.6160736  42.0873375
   3.5534015  65.2643127  41.3872490   4.2810903  64.7166901  42.5961990
   1.2637633  60.4016533   6.6320214   1.4038053  59.5128059   6.3055687
   0.3140024  60.4756699   6.7253342  64.5871429   4.5965562  81.6400146
  63.8712234   4.1563034  82.0981369  64.2167511   5.4360766  81.3675308
  71.1256943  44.1166878  47.1470261  70.3832321  43.7945557  47.6581192
  70.7307510  44.6716385  46.4745064  79.1833496  10.1983709  64.6949387
  78.5163803  10.1292868  65.3780289  78.7895432  10.7657232  64.0321808
  67.5124817   2.8501103   6.9791536  67.4403381   2.9852152   7.9240212
  67.9170837   3.6537428   6.6524963  49.9402084  46.6388359  22.7119312
  49.6070404  46.7741661  23.5990162  49.9041939  45.6908302  22.5845852
  20.8919868  14.9654884  23.0472202  20.3224087  14.7441826  23.7839928
  20.3361492  14.8610268  22.2749729  16.4392452  69.2955933  54.5809860
  16.2902832  68.5593109  55.1742325  16.4489231  68.9020157  53.7084999
  15.1064091   9.1436625   4.8255296  15.1421289   9.6537027   4.0163231
  15.3284826   9.7706671   5.5138464  28.1305180  59.9926949  22.9644222
  27.6487942  59.5606155  22.2590981  28.3947754  60.8345108  22.5932827
  73.8476639  44.2232704  81.2765808  73.2497482  43.8072128  80.6555939
  74.2515335  44.9350090  80.7800446  12.3824825  49.4277687   3.5583396
  12.2908506  50.3647575   3.3854573  11.5045786  49.1443481   3.8136611
  29.3882370  46.2405281  20.4451180  30.2248840  45.7900085  20.3298531
  29.6280499  47.1520271  20.6121197   3.1278648  53.0614891  18.2209511
   3.8198335  53.5813408  17.8120899   2.4472818  53.6981583  18.4393368
  79.5304871  49.9445534  15.8200245  79.8837280  50.5299034  15.1500845
  80.2523346  49.3496170  16.0230293  35.7469864  30.6730175  88.4285965
  35.7348976  31.2596111  87.6722946  34.8323059  30.4174786  88.5481491
  32.5886269  49.8266144  13.4154196  33.1068764  49.8956642  12.6136208
  33.0575562  50.3673134  14.0510130  74.1842422  36.8597260  79.8091888
  73.6049347  37.3685570  80.3763885  75.0594788  37.2010765  79.9926987
  62.5921364  40.5730705  22.5686588  62.4901581  41.4988670  22.7894192
  62.4088058  40.1102829  23.3862476  33.3774033  62.3201675  55.6921158
  33.0640984  63.2172050  55.5763741  33.9583473  62.3654747  56.4515114
  57.5885391  61.8511848  81.9323578  57.4566650  62.7974243  81.9912567
  56.8504181  61.5385933  81.4091949  40.0435371  32.2414284  10.6025124
  39.8948402  31.8591938   9.7376328  40.4157143  33.1046600  10.4220963
  28.7762928  44.8904953  86.3222733  28.0337086  44.8770485  86.9261093
  29.2820530  45.6606407  86.5817184  15.3395424  10.6799936   9.9547195
  16.0842209  11.2806282   9.9850979  14.6439705  11.1367559  10.4277735
  74.4387894  32.4804840  18.5419064  74.2604370  31.7642727  17.9324284
  75.1236877  32.1401939  19.1175270   7.4516582   7.9971285   9.6460047
   7.6213627   8.9065781   9.4003754   6.6643467   8.0385637  10.1888266
   4.8421240  23.5153904   3.5248520   4.7008171  24.0110912   2.7182887
   3.9674873  23.2256451   3.7842560  60.3659019  32.9312248  26.7142525
  59.7274742  32.2180595  26.7079601  61.1894798  32.5132027  26.9656734
  32.3376007  56.8052406  83.0042572  32.8370705  55.9890175  83.0274887
  32.8702965  57.3969727  82.4729233  78.8973389   1.6997703  46.6288452
  78.2148438   2.1825328  46.1626129  79.6059799   1.6111876  45.9915009
  49.8292542  62.5982399  41.0339279  49.9180832  62.3334236  41.9494667
  50.7034073  62.8990250  40.7857018   6.2272329  52.5363007   9.6913767
   5.6507797  53.2076988  10.0562887   6.8261037  53.0187721   9.1214600
  80.4726944   7.2542500  24.1261444  80.4587555   6.4984965  23.5388832
  79.7160492   7.1268725  24.6984196  54.7218475   1.8210297  74.2045364
  54.0047302   1.2624127  74.5043945  55.5094757   1.2953496  74.3442993
  33.2125320  46.5088501  30.2550335  33.7967415  46.5786972  29.5000153
  32.3636055  46.8081551  29.9294968  57.8771210  43.1678925  45.8140335
  57.3145828  42.4140968  45.6363487  58.7412796  42.9010201  45.5005913
  84.8063583   4.9323926  46.5218048  85.3635941   4.1970544  46.7767448
  84.3625412   5.1881909  47.3304024  50.8190613  65.1254730   7.4311910
  50.0947227  65.1011810   6.8059115  51.0592651  66.0505524   7.4836488
  57.0534554  41.6857414  73.0393066  57.9314957  41.5458565  73.3938599
  57.0486679  42.6032448  72.7665405  26.5150013  53.5477943  85.9916077
  25.6693192  53.4873390  86.4359055  26.8227768  52.6429939  85.9383087
  22.9602966  38.6436081   5.3262043  22.1702671  38.2031593   5.6393967
  23.1010017  38.2878342   4.4487877  76.8876572  60.6766090  25.7510624
  77.4895020  60.1629486  25.2123852  77.4490051  61.0984383  26.4015884
  16.4983177  26.6359367  35.7875290  15.9353495  25.9531059  35.4227829
  15.8926525  27.2467251  36.2074547  23.9673061  50.3355293  20.1370354
  23.8308544  49.7992554  20.9180737  23.8118763  51.2326736  20.4323406
   8.6106424  27.7263470  87.3537292   9.3069820  28.2527733  87.7464371
   8.8255396  26.8256626  87.5962601  32.7205925  64.8738251  74.6468430
  32.4160309  65.3187256  75.4377518  31.9934750  64.9574051  74.0299606
  31.3203163  56.3548965  29.7089958  32.2144051  56.6355591  29.9040985
  31.4268303  55.5408478  29.2168446  79.5650558   7.0132241   4.3985667
  78.7439346   7.3752904   4.7315893  79.8339920   7.6223979   3.7109547
  55.4369736  18.1223202  11.7679281  54.6604309  18.5370407  11.3921318
  55.4073944  17.2216644  11.4451675  67.4630280  35.0847321  32.1892891
  66.8200455  35.3917389  32.8284721  66.9827881  34.4574432  31.6488152
  62.3010635  46.9350929  31.1678219  61.5148087  47.4711800  31.2710037
  62.1865273  46.2191658  31.7927723   4.2507210  12.7801294   7.5916157
   5.1536708  12.6683960   7.8889861   3.7793574  13.0855770   8.3666964
  86.0593643  62.0178947  13.2874775  85.2654495  62.4478989  13.6053104
  85.9002380  61.8812485  12.3535404  71.1449738  57.5529633  37.1222343
  70.9344940  56.7577095  36.6328468  72.0789108  57.4743958  37.3166924
  78.0218506   9.0907383  26.2653580  77.8087997   9.6972351  25.5561295
  77.4822159   8.3195629  26.0912418  55.4647408  21.1196861  11.3263731
  55.1143456  21.3456650  12.1879940  54.9689560  20.3447723  11.0619135
  71.4989014  10.9035959   9.4433956  70.7851791  11.4738379   9.7291679
  72.0870972  11.4814024   8.9571924  13.4155827  52.2132072   1.3052993
  14.2396183  52.4229088   1.7448692  12.7907419  52.0808449   2.0182407
  75.2911148  52.9351692  68.6313019  76.1112976  53.4244080  68.6958694
  74.7394333  53.3001060  69.3231812  60.1291618  38.9652138  14.6290121
  60.0368271  38.5326042  13.7801571  59.9644089  38.2733307  15.2696257
  66.1907959  16.7453690  72.6778412  65.6646194  17.5312462  72.5303040
  65.9628983  16.1647491  71.9517746  72.4212265  34.1425171   9.8144255
  72.7593460  33.3253098   9.4482565  71.7604446  34.4316254   9.1851330
   9.7530136  56.7779160  35.1934204   9.3052988  56.3506317  35.9236336
   9.9666986  57.6513557  35.5215645  79.5524292  22.4280834  39.4553452
  79.9582825  21.7888355  38.8697891  79.4102707  21.9487686  40.2716064
  55.6156311  51.1092453  39.5012589  56.2724495  50.7751961  40.1121864
  54.8801346  51.3663216  40.0573044  63.7740021  20.5120277  70.0512238
  64.6081924  20.5948143  69.5891571  63.1323166  20.9044857  69.4592361
  70.2462006  31.4026489  77.6533356  70.7238007  31.9141159  77.0002441
  69.3848953  31.8176880  77.6995468  53.1567192   5.3424234  47.3443451
  53.3261871   6.2802787  47.4334488  53.3825722   4.9759355  48.1992798
   9.5349751  41.4503441  15.1759872   9.7173290  41.6019592  16.1033440
   8.7630358  41.9859314  14.9929953  42.9525757  51.1027222  41.7349586
  42.0569344  51.1733818  42.0652122  43.4597969  50.7887001  42.4835243
  55.5370331  70.1466370  37.0574989  56.4322052  70.3540573  37.3256035
  55.5009460  69.1901321  37.0628700  46.7699051  19.2015038  71.9426804
  46.2494431  19.5568066  71.2221832  46.9982147  19.9652481  72.4725800
  20.1650581  17.8403187   6.4771085  19.5131245  18.3888454   6.0408397
  19.6765919  17.3897457   7.1660342  78.2704010   3.0209794  23.5198631
  78.5131454   2.9962969  24.4454422  79.0018082   2.5989819  23.0690937
  84.1429291  65.5639038  30.0902958  84.7524261  66.2996445  30.0317841
  84.6637802  64.8008957  29.8397484   8.9046574  56.8722649  49.1470451
   8.4875679  56.1734200  48.6431770   9.2438669  56.4348335  49.9279556
  78.8902969  68.7424088  33.7290230  79.0940399  69.6511078  33.5077019
  78.1046219  68.7987289  34.2728806  22.3633537  21.5001526  10.5705338
  21.4147072  21.4727917  10.4458227  22.7215481  21.5059509   9.6828995
  77.8790588  37.5664787  83.2919998  78.5327988  36.8717308  83.3705902
  78.0987549  38.1822853  83.9911041  31.7940521  61.8983917   8.5503759
  31.5684566  61.2883263   9.2526283  31.1456699  62.5986862   8.6239872
   6.0581908  22.8859386  75.2417297   5.7848730  23.3225689  74.4349594
   5.6969485  22.0024185  75.1701126  43.1479950  46.3550949  11.7662964
  44.0737953  46.5268936  11.5942144  42.8094177  46.0154076  10.9379177
  41.4786797  24.5871887  15.2235756  41.8704300  24.9506168  16.0177307
  40.5916481  24.3404598  15.4853659  81.4626312  36.1659164  86.4112778
  81.0075378  35.3494682  86.6175156  81.7229385  36.5167618  87.2629700
  44.6733055  17.1944084  10.5955982  44.3793983  16.4592590  11.1335640
  45.4460983  17.5298462  11.0500231  43.8369484  13.5474987  32.5549812
  44.6287575  13.0223894  32.6713066  43.1301308  12.9048710  32.4943924
  35.9742241  42.2389183  24.8731937  36.5283127  41.4685516  24.9987030
  36.1669998  42.7978210  25.6259880  78.8746262   8.4097242  39.2060623
  79.3894196   9.1897936  39.4127312  79.1169968   8.1944895  38.3054161
  72.4955673  55.0072975  14.1535406  72.0931091  55.8669243  14.2772284
  73.2804413  55.0292892  14.7010136  68.6175690  39.3536301  57.0954552
  68.2258606  39.2237930  56.2317772  68.5245667  38.5060883  57.5304909
  83.0526505   1.3764038   4.3819938  83.2448807   2.2379797   4.0119042
  82.8900223   0.8195450   3.6206186  76.0226974  60.9709702  71.2540054
  75.1896896  60.6189651  70.9402771  76.6304169  60.8313713  70.5277710
  11.8579998  43.8699684  79.0989532  11.8858261  44.7751961  79.4088287
  11.8340654  43.3438301  79.8982239  22.3775864  12.0053387  81.0247345
  22.1902275  12.8668985  81.3973541  21.5553703  11.5229626  81.1113815
  28.0360374  18.1181984  23.7397385  28.7338352  17.5531330  23.4080582
  27.6677322  17.6349545  24.4793720  28.4614639   6.3227439  87.8045654
  28.8159828   5.5347233  88.2163544  28.6944008   7.0317173  88.4040070
  74.4673843   4.8679790  73.2257843  73.7169571   4.4265537  73.6235733
  74.5328064   4.4869981  72.3501053  52.7753334  21.8175640  85.8593674
  52.1338806  22.4862499  85.6193085  52.6487198  21.1217117  85.2143936
  21.8919754  51.8945732  17.7733727  22.7710209  51.9565239  17.3996429
  21.8036594  50.9757614  18.0267830  60.1646233  45.7221069  70.0369339
  59.3442993  46.0532455  70.4025116  59.9797935  45.5999374  69.1057281
  26.0411320  60.9960327  76.6966095  25.3569031  60.5390472  77.1857147
  26.7172775  61.1824989  77.3479843  20.5870113  53.7315216   1.4218374
  20.1445198  53.1424522   0.8107486  19.9785366  54.4619484   1.5334928
  64.0843658  20.8762608  75.1002502  63.5675888  21.5923214  74.7308807
  63.4791603  20.4214954  75.6860428  58.3276901   6.9107981  44.3820915
  57.7109871   6.5599775  43.7395706  58.0032158   7.7916288  44.5694008
  67.3356323  60.6261864  73.7911224  66.9078979  60.6809883  72.9365616
  68.0370331  61.2762489  73.7500153   4.4530635  34.3841820  78.0659943
   4.8608813  34.4422493  78.9300232   4.2719998  35.2926941  77.8250656
  81.8446198  57.2140465  33.2985802  81.2712860  57.6405945  32.6617317
  82.7258606  57.4974823  33.0550575  79.0132523  56.0947647  31.7176170
  79.6527176  56.3074417  31.0378494  78.9227219  55.1429520  31.6719246
  12.3436241  20.4524536  27.1413059  11.4188595  20.6293488  27.3137894
  12.3694763  20.1882973  26.2216415  73.6405487  40.8279762  76.2291336
  73.5958481  40.9303284  75.2784729  72.9230881  40.2303505  76.4396820
  83.8997116  54.1091080  72.1539612  84.8566360  54.1278839  72.1672516
  83.6716003  54.1809006  71.2271118  48.4612236   6.7254596  84.7485504
  47.6336212   6.6184416  84.2796631  48.2370720   7.2582078  85.5115433
  65.4807281   5.8650908  13.8736782  65.6968460   5.3028045  14.6175585
  64.7344131   5.4344459  13.4567919  54.0428047  38.5326729  22.6965256
  54.5411758  38.7916107  21.9214077  53.1439438  38.7990875  22.5033703
  84.3271942  44.6687202  37.4009972  84.6949997  44.2268562  38.1663132
  84.8478394  44.3465576  36.6652145  15.1249361  29.0345497  72.3246002
  15.2813921  29.8694172  71.8833008  15.8502541  28.4761124  72.0447922
   5.2964535  -0.1497124   0.1658971   5.9903994   0.5080976   0.1216609
   4.4924765   0.3574647   0.2782535  72.5139847  26.9470844   5.9441943
  72.8449326  27.7565556   6.3333731  73.1401672  26.7416058   5.2500010
  78.5315781  31.7030888  64.0460052  78.5230865  32.5455551  63.5916748
  77.8481598  31.7829208  64.7114334   8.2366476  42.0319824  24.5729485
   8.5085001  42.9450073  24.6662922   8.7804880  41.5548744  25.1997185
   3.4346681  70.9142380  10.4229202   2.6616292  71.2868576  10.8469505
   3.1090412  70.1338577   9.9743652  58.5859604  53.1112633  52.3358307
  59.1144295  52.4660759  52.8056030  58.1692581  53.6276169  53.0257339
  71.3880081  67.5445862  82.2327118  70.5295944  67.4718170  81.8155060
  71.9936829  67.1508789  81.6047058  12.7804279  40.4963875  16.1685028
  12.1675777  40.3131866  16.8806000  12.4467649  41.2980080  15.7656269
  70.5074692  19.2735424  40.2968292  69.6709137  19.7334023  40.2265968
  70.3404617  18.5663414  40.9198914  50.4375381  56.4740219  60.4954758
  50.7706947  56.1967316  59.6420441  50.6783371  55.7628479  61.0891800
  17.3816051  18.8669395  82.0335236  17.8255806  18.7913074  81.1888962
  18.0692177  18.7093487  82.6805115  71.6681976  10.3881130  54.7897148
  72.0354691   9.5468283  55.0609818  72.2212067  10.6666842  54.0597763
   0.2886800   4.1065936  40.5086937   0.9357868   4.2284865  41.2034073
  -0.5303661   3.9319265  40.9722519   5.0842452  39.2991180  49.8979683
   5.3616390  40.0775261  49.4148865   4.8461471  39.6275063  50.7649765
  15.8364754   8.7986202  21.7631874  16.2811604   8.3691454  22.4939651
  16.5335331   9.2590027  21.2958641  20.4704895  12.9343138  42.0674210
  19.5310917  13.1141577  42.0297699  20.7218456  13.1599741  42.9630394
  41.0150108  23.3134823  29.8481197  41.1901855  23.2989922  30.7890415
  41.8164635  22.9737396  29.4500237  12.6277485  34.6237259  88.5905457
  13.1312456  33.8275986  88.7605438  11.9849339  34.3642159  87.9304886
  23.3444996   5.6220174  49.5970116  22.6741924   6.2752395  49.3964539
  22.8669395   4.7934499  49.6375618  27.8114510  23.2261810  88.7640991
  28.2981834  23.3863144  89.5726089  28.0298309  23.9694386  88.2018661
  39.8776321  52.2029381  27.5865593  39.7322159  53.0656204  27.1981468
  39.6207047  52.3064079  28.5028095  22.6396389  25.4625320  56.3870468
  22.1363792  25.1846504  55.6217079  23.3347759  26.0146580  56.0290337
  24.4423847  60.4741936   7.2098408  24.7514839  60.8448563   6.3832226
  24.1872139  59.5782051   6.9900026  67.5025864  10.9003286  67.7554779
  67.8758774  11.3827085  67.0177841  66.6842270  11.3568602  67.9506760
  50.4842415  28.8984661  25.2007160  50.4917336  29.3280640  24.3453674
  51.3522606  29.0734539  25.5642395  73.5732422  67.3326416  50.5745544
  73.6970139  67.5354919  51.5017891  74.1957550  67.9002075  50.1200447
  26.0127449  31.0795288  86.4311829  26.0389843  31.9217129  85.9770126
  25.8841915  30.4356842  85.7346420   5.5466933  63.1436386  76.3177338
   5.0922513  63.9405594  76.5909195   6.4754720  63.3488274  76.4249725
  74.1048126  40.9255562  59.8996506  74.1011963  41.4838943  59.1221657
  73.8516235  40.0613785  59.5751076  84.6689758  20.7499275  25.9001617
  84.6795273  20.3575459  26.7731781  83.7411652  20.8922558  25.7127323
  63.1781082  47.2606392  60.4429817  62.9572601  48.0918846  60.8630905
  64.0264206  47.0215073  60.8163719  16.2494450   2.1207178  86.8981247
  15.6896820   2.8726099  86.7043304  17.0475311   2.5037928  87.2621918
  86.7482986  16.4125385  17.0365772  86.3816376  16.8001308  16.2418690
  86.0666962  15.8177748  17.3494663  55.5401878  17.7294903  74.3165817
  54.8109131  18.1026211  74.8117218  55.8223114  18.4365196  73.7362823
  19.0685520  24.2097435  32.4783669  18.6730232  23.4879570  32.9670563
  19.2429829  24.8794861  33.1396141  10.2778654  49.5824127  88.7904053
  10.3532457  50.5282059  88.6638031  11.1810312  49.2813301  88.8897705
  46.1698761  58.1861801  56.9220161  47.0141678  58.1442680  56.4729652
  45.9668770  59.1206779  56.9636574  47.4064064  58.9176102  80.9917450
  47.6766396  59.4758415  81.7208405  47.9325905  58.1240540  81.0898590
  58.1727600  60.5673332  27.8817406  58.6189766  61.0023651  27.1551933
  58.6427460  59.7406387  27.9909344  64.6539383  68.9902267  52.9493408
  65.5492172  68.9172287  53.2800713  64.2997284  68.1037292  53.0193214
  35.5973167  70.5605087  30.7769585  35.5975227  69.9313583  30.0555744
  34.6705284  70.7212372  30.9543266  17.0099068  48.6247063  12.1402645
  17.4315262  47.7683449  12.0687504  16.4360962  48.6737595  11.3756952
  46.1911278  68.7374878   8.1458654  45.9240456  69.6047516   8.4504204
  45.3850441  68.3409576   7.8153696   2.7482913  30.2606583  19.9332924
   2.9356921  29.4404945  20.3898487   1.8947040  30.1175671  19.5244579
  51.8454781  11.3912725  23.5220680  52.7743149  11.1614475  23.5480461
  51.6600533  11.5345240  22.5939903  27.7609329   2.2593381  43.0514717
  27.6179523   2.2474141  43.9978561  28.3279362   1.5062388  42.8853951
  67.5302353  23.7614193  34.2963600  67.8588409  23.8074970  33.3985138
  68.2421188  24.1140022  34.8303452  14.6451111  54.3848648  26.9286976
  14.1709471  53.5567055  27.0032387  14.0413780  55.0390358  27.2805443
   2.6467149  43.2000847   2.2590640   3.1062813  43.9178963   2.6946986
   3.0311112  42.4074059   2.6334071  22.9180794  25.4423943  25.4413509
  22.7677898  26.2421494  24.9373302  23.8698387  25.3894577  25.5284233
  20.5342693  18.6288662  69.1727524  21.1698666  18.7178459  69.8829117
  19.8742962  19.2972775  69.3568497  22.8622913   8.8544846  67.8719482
  23.5300961   9.3777313  68.3152084  22.0890083   8.9295950  68.4310760
  13.6211529  17.4379272  25.3497791  14.1160402  17.2460861  26.1463432
  14.2192049  17.9615707  24.8165226  47.0516434  12.4881220  32.0936699
  47.3729286  12.0379238  32.8749046  46.3041153  11.9641848  31.8057041
  48.4151039  71.1667557  53.4148407  47.4885101  70.9402847  53.3350601
  48.5039139  71.9868164  52.9291992  18.0529709   7.9784422  11.4551315
  17.4167233   7.4478092  10.9757061  18.5161095   8.4688063  10.7759571
  19.7444191  15.7345390  67.9912109  20.1649647  16.5565662  67.7389297
  19.6995716  15.2294302  67.1793671  59.9329224   5.3601522  40.7840309
  60.5126266   5.6701465  40.0882759  59.2459831   6.0246167  40.8372383
  48.6531715  62.7424660  69.8125839  48.9612198  61.8838730  70.1026688
  49.2541466  63.3639336  70.2234879  43.9731483  51.2061806  31.4128933
  44.4883614  51.9396324  31.0769844  43.5341644  51.5568810  32.1878357
  61.5885963  55.2484207  86.5016785  60.6598091  55.2965660  86.7281036
  61.8026009  54.3176003  86.5649185  61.1307068  16.4319077  24.7209682
  61.3713150  16.9786644  23.9730396  60.6020584  17.0049248  25.2763214
  61.2737923  29.1412029   6.1294603  61.3512154  30.0442028   5.8215175
  60.9775543  28.6511440   5.3624425  14.0502586   4.2569742  40.6991806
  13.6746197   4.4730392  41.5526695  14.6601639   4.9721017  40.5179596
  80.0928497  43.3862000  44.1237068  79.4382629  43.2481728  44.8083153
  79.9737930  42.6479721  43.5261497  49.4771385  42.7309875  35.8542519
  49.1945686  43.2430687  35.0965195  49.9623184  43.3530884  36.3963051
  29.1325188  23.6988468  30.4794693  30.0168972  23.7093430  30.8455219
  29.1609554  24.3365250  29.7661743  22.8868256  19.5914879  12.6128044
  23.6260014  20.0712814  12.9864988  22.6104412  20.1216602  11.8653011
  56.1153717  60.1982689  41.7552414  55.6594048  59.5101280  41.2706947
  55.4218674  60.6571770  42.2292519  10.3954363  56.5819206  51.6159363
  10.7218943  55.6874237  51.7135658   9.9070473  56.7479820  52.4222450
  22.0281944   7.6801691  48.2779007  22.2766151   7.1087403  47.5512733
  21.0795212   7.7759414  48.1937637  36.3958855  34.2278366  11.9170218
  37.3117790  33.9512558  11.9465742  36.3236389  34.8908653  12.6036148
  26.0489101  52.2424850  69.5113678  25.2679615  52.6358337  69.1219711
  26.7771664  52.6090622  69.0098724  29.1491604   8.5373878  32.0101013
  28.8050480   7.6491394  31.9161167  28.4896469   8.9959059  32.5307121
   6.5455894   0.0118673  29.1535015   6.4760637   0.8597137  28.7146912
   7.4760447  -0.2074686  29.1047497  29.4184227  16.0476933  67.4287872
  30.0439167  15.3510799  67.2294922  28.6595783  15.5914106  67.7923737
  86.5548782  60.6226883  58.2790031  85.5989304  60.6172371  58.2303352
  86.7514038  61.1180954  59.0741043   2.1995595  28.8561821  24.1965485
   2.7145877  29.0589256  24.9774914   2.1573358  27.9000740  24.1790466
  46.3596840  65.6845016  83.8275223  47.1220589  66.0351791  84.2880020
  46.5458603  64.7503662  83.7328033  24.1410427  17.9813747  79.8745193
  23.6029053  18.4051514  79.2059021  24.7816277  17.4714737  79.3786545
  77.4672928   9.2805099  46.1664314  76.5326691   9.4204226  46.0143433
  77.6947556   8.5442123  45.5986633   5.7409315  29.2861004   5.7131481
   5.3099456  28.6305122   5.1648006   6.1501923  29.8872910   5.0908074
  26.2859917   8.5139761  37.9252357  27.0879097   7.9960485  37.9953194
  26.4847851   9.3272161  38.3892975  80.5587616  18.1271687  34.0368652
  79.7378159  17.7865200  33.6815605  81.0064545  18.5088272  33.2817917
  13.2228613  46.2250977  71.9345627  12.6141262  46.4217186  71.2225189
  13.4877586  45.3184090  71.7797089  34.0971870  23.0773602  29.9183712
  33.2162514  22.7779217  30.1431389  33.9574547  23.7668705  29.2693081
  55.1487007  52.9158821   5.9360948  55.6492195  53.1409760   6.7203431
  55.6904907  53.2238960   5.2095799  23.5798893  43.5603180  17.5031796
  22.7857418  43.9350090  17.1221714  23.5654373  43.8465080  18.4164791
  47.0174561  42.2867470  12.4609251  46.5374451  42.0936661  13.2662458
  46.8277740  43.2081490  12.2840958  35.7709579  -0.2681290   5.7382016
  35.0778770   0.3813438   5.6196504  36.2604523   0.0404222   6.5007129
  70.4602890  16.4025497  16.5876446  71.1606979  16.4420319  15.9364157
  70.6984406  15.6663876  17.1511898  31.7958660   7.5361857   7.9643154
  31.6571541   8.0320644   8.7712202  31.2682343   6.7453184   8.0755119
  16.3157673  59.0769348  22.8092041  16.2010231  58.9173203  23.7460003
  17.2134724  59.3993988  22.7293758  14.9801512  21.9647923  64.7383041
  15.7485065  22.3278275  65.1788330  14.9530258  22.4151192  63.8940887
  10.6970940   9.5865278  48.9320107  10.7447662   9.9261942  48.0383720
   9.7634096   9.5967340  49.1426277  74.8292999  30.2494507  79.8615265
  75.2744904  29.5371494  80.3205032  75.5088043  30.6435471  79.3145447
  33.1893578  41.9661064  87.9349518  33.9165802  41.5696106  87.4551926
  32.4081802  41.6949348  87.4528122   1.0529337  42.9973373  83.5349197
   1.0739728  42.5811157  84.3966293   0.8471136  42.2848473  82.9297485
  70.7979431  24.3216343  53.4631577  71.0241394  24.3628178  54.3923378
  70.1925964  23.5831604  53.3965149  34.6694107  66.6645660  65.9532852
  34.7404861  67.6118546  65.8356552  35.5655937  66.3430634  65.8546906
  69.9484634   3.0085504  41.4743385  69.3705902   2.4098763  41.9475098
  69.8989716   2.7191899  40.5632668  45.6288185   9.5534801  11.6640110
  46.4324036   9.4917955  12.1804190  45.4881859   8.6664343  11.3329449
  47.3926163  11.8579979  17.0794182  46.8795090  12.2396555  17.7916584
  47.3706131  12.5190220  16.3874664  83.2518692  14.2093058  70.2887115
  82.5130310  14.1188793  69.6868973  83.0953827  13.5465164  70.9613571
  81.7076416  61.9739990  82.6669083  82.2697220  62.7346573  82.5196228
  82.2427063  61.2258911  82.4018173   5.4059143  61.7553444  34.1975708
   6.1753850  61.1881485  34.1481743   5.5221758  62.3796425  33.4813576
  42.1779022  61.0814095  14.8555393  41.7550812  61.9282417  14.7129745
  42.1535950  60.9582977  15.8044786  14.3710470  32.8377266  27.9941330
  14.8037853  33.6715431  27.8105068  14.2690783  32.4266510  27.1357327
  84.6611862  68.6045990  80.2455826  84.8380814  67.7124023  79.9473877
  84.4905090  69.0962296  79.4422226  42.3975143  55.2673645  79.7344742
  42.7175331  54.5692215  79.1631470  42.6106453  54.9696922  80.6188889
  28.5270424  56.1720734  29.9846973  29.4543324  56.3191490  29.7983246
  28.4216862  56.4358521  30.8987827  67.8420944  52.0352325  40.5013733
  67.1549759  52.6449890  40.2325058  67.7996445  52.0330658  41.4576302
  36.0206604  34.3179092  19.0654507  36.9663696  34.3346214  18.9185066
  35.9220009  34.4601631  20.0068645  35.3007240  18.3101978  58.9142685
  34.4352188  18.3817005  58.5117455  35.6398735  19.2052994  58.9135857
   9.0900507  54.0333557  59.9299355   8.5167952  53.8348999  59.1895142
   8.7030478  53.5596352  60.6661720  41.4567299  23.6684093  84.4761963
  40.7462387  23.0342350  84.3799896  41.2132645  24.1862907  85.2434998
  84.5258713  11.7375898  55.5493240  83.6432571  12.0256186  55.7822685
  84.4817886  10.7818909  55.5798225  43.6525230  20.0387306  80.1934967
  43.8209724  19.6517773  81.0526352  43.9377556  19.3708744  79.5699234
  65.8622360  52.1283875  27.6913681  66.6438675  52.0521431  27.1441269
  66.1959457  52.1176949  28.5884476   5.0491710  45.3985901  33.8473816
   5.0433722  44.9263611  34.6799698   5.6362977  46.1397285  33.9964714
   7.4880543  14.5866213  22.5866108   8.2786198  15.1248779  22.6255779
   7.7837882  13.7527809  22.2212582  47.1279793  10.1758623  25.5207424
  46.2931976   9.7215080  25.4070072  47.7892036   9.4915972  25.4168377
  72.2299652  34.1521873  66.7122498  71.7919235  33.4917374  66.1754379
  72.9987183  34.4049606  66.2010193  34.0711365   5.5964251  20.4327507
  34.5283546   6.3481393  20.8097248  34.6598282   5.2761040  19.7493286
  70.0293884  70.0974808  28.1857128  70.4202347  70.3202057  27.3408070
  69.1868134  70.5516815  28.1870193  81.7150421  50.1095505  21.5135918
  82.6174927  50.2259293  21.8106766  81.6469116  49.1757317  21.3146629
  55.5442581  15.2658482  85.5289764  55.0522270  14.7966976  86.2027969
  54.9573250  15.2843971  84.7730713  21.2130203  27.5961132  23.5469246
  21.6964436  28.4005165  23.7352657  21.6481209  27.2298946  22.7769871
  80.5023270  46.3735275  52.1785851  79.7722549  46.6759682  52.7187309
  80.8885193  45.6545334  52.6787186  55.2943192  70.9148331  54.2661514
  56.0300636  70.3410873  54.0522995  54.7547302  70.9171600  53.4755363
  55.1576271  10.2751284  52.7170296  55.4839134   9.5387917  52.1997490
  54.3147964  10.4927073  52.3188782  14.6735315  33.2425728  12.1780167
  14.4887047  32.6804276  12.9303894  14.1074438  34.0042038  12.3032970
  62.1596489  57.5317383  75.6271057  62.8612061  57.3545990  76.2537384
  62.3501244  58.4094620  75.2961121  51.0958443  26.4735355  18.4051304
  51.3936920  25.6740627  18.8391361  50.6261024  26.1647224  17.6303997
  63.4772606  29.5443687  56.7411003  63.3131104  30.4557571  56.9832954
  63.9930534  29.1928692  57.4667969  46.2845039  19.9247894   1.6470944
  46.6325150  20.0790501   0.7688448  47.0377769  20.0386257   2.2266223
  14.9713554  67.9304962  28.0836544  14.2159758  68.5070267  27.9685860
  15.4223614  68.2773819  28.8533897  74.8521042  11.5354805  81.3816147
  75.1314926  12.3633223  80.9906540  74.5146942  11.0248480  80.6456528
  69.1797867  19.2592640  52.9481659  69.4190140  19.0627346  52.0424194
  69.5706940  18.5499954  53.4584274  23.7265015  53.0732460  21.5320778
  23.3967285  52.8879471  22.4113655  22.9976463  53.5083122  21.0896740
  23.1914101  20.6892395  16.5667763  22.4864063  20.4817390  15.9534674
  23.7638187  19.9224491  16.5420227  16.4831867  23.6961212  85.4410095
  16.9812527  24.4583797  85.1458511  16.7197666  23.0023880  84.8253860
  47.9520950   8.8103447  52.2096939  48.4979820   8.4854116  52.9256935
  47.0638313   8.5424023  52.4451256  64.7387695  59.6917458  85.8740921
  64.2307968  60.2042160  86.5030365  65.0513687  58.9387512  86.3756027
  16.8466301  60.1708565  28.4378567  17.0429878  59.3857841  28.9490719
  17.3171463  60.8730545  28.8870354  73.7607651  62.0464325  54.4918365
  74.6312180  62.4445763  54.4867630  73.5338974  61.9784164  55.4192734
  75.0680389  53.8060379  60.3480415  75.2428513  53.7218666  61.2853699
  74.7363434  54.6980476  60.2454185   0.3509672   8.1741352  24.4302292
   0.3655699   8.4183168  25.3556442   0.8200707   7.3405070  24.3950520
  13.9822960  32.2265625  37.0714912  13.7096405  31.3457966  36.8143044
  14.6980829  32.4400635  36.4729118  56.7806511  21.3904209  23.8908215
  57.2393608  20.5989876  23.6089478  56.3997955  21.1577682  24.7376118
  85.6474304  29.4290524   2.8244455  86.4139709  29.9615097   3.0368958
  85.3762970  29.7342606   1.9586709  62.8508644  40.0662346  88.6203461
  62.7481766  40.2942848  87.6963959  63.7374992  39.7108650  88.6822205
  37.0692825   0.8734543  12.2902994  36.6369133   1.5370021  11.7527170
  36.5446739   0.0829983  12.1630220  59.8202591  54.7907791  79.8479385
  60.0536690  55.4982262  79.2468872  60.6439552  54.5597878  80.2773590
  31.7876453   5.2989469  60.7408028  31.7308559   4.9298639  59.8594513
  32.0374260   6.2125354  60.6022530  71.9343109  38.4373207   1.0166689
  71.4172974  39.1952400   1.2895910  72.6684875  38.8111305   0.5293555
  37.6778908  12.3616867  82.3616943  37.5047035  11.4387512  82.1761475
  37.8918877  12.7412720  81.5094299  63.5195312  19.1558571  63.8192406
  63.4110756  18.5026703  63.1279984  63.0238533  19.9147263  63.5115891
   4.2595034  31.0785980  62.4761963   4.5180759  30.4288330  63.1297836
   4.9186840  31.7686481  62.5506516   0.4012277   5.0702405  19.1186237
   1.2426776   4.6482544  18.9450684   0.2219790   5.5808339  18.3290691
  83.1448288  19.3299599   5.9887247  84.0922241  19.2398338   5.8860097
  83.0366898  20.0984783   6.5490084  73.8284912  32.7082405  46.7825279
  73.3368073  31.8869762  46.7803726  73.7564468  33.0328865  45.8849487
  40.6049271  49.3222351  35.0071182  41.2757607  49.6832466  35.5866661
  41.0702782  48.6770058  34.4748077   5.5122852  19.2612553  69.2284546
   5.9721570  19.5554066  68.4421768   5.6812873  19.9463863  69.8751831
  70.0467072  50.7236443  32.4692650  70.9865799  50.6461487  32.6331635
  69.9489670  50.5264702  31.5377064  71.0720062  43.0497742  36.5079193
  70.1937790  42.8920746  36.8544426  71.6568527  42.8565979  37.2406349
  76.8267746  57.0797691  38.5280647  76.6707535  57.8739357  39.0391273
  77.7791977  56.9848404  38.5177422  35.3730850  71.2050781  38.2026711
  34.6553154  70.9331970  37.6307220  35.2331734  72.1429520  38.3332634
  40.8983574  15.0373545  42.9834824  40.4484291  15.6299467  43.5856705
  41.7973557  15.3645668  42.9524651  75.6583633  69.7067337  28.1803646
  75.7152023  70.5138321  27.6688976  76.4861526  69.2569809  28.0108929
  30.6767254   5.2657261   8.2550716  30.9995232   4.5259008   8.7695541
  29.8121719   4.9879203   7.9524117  19.7739906  13.4855967  66.1837845
  19.7952709  13.1816463  65.2763748  20.1001053  12.7433815  66.6927032
  78.2783508  20.7029610  36.8015938  79.0814972  20.6307583  37.3173256
  78.3918457  21.5056915  36.2926941  47.1711121  59.6857185   6.9803905
  46.2821541  60.0219421   6.8666334  47.0597839  58.8805084   7.4858360
  75.8819656  27.4272785  57.3061485  75.5359573  28.2275143  56.9110146
  76.2636871  26.9440060  56.5733681  28.8640499  45.3730392  14.3024035
  28.9211655  45.0840492  13.3916607  28.3921719  46.2047958  14.2606106
  79.3016205  28.9827824  52.4135857  78.9378815  29.6018620  53.0465660
  79.6399689  29.5332909  51.7074051  79.4400482  32.4751091  17.4722595
  80.1899796  32.8863678  17.9020271  79.6767654  31.5496426  17.4113503
  37.3495941  44.0625954  85.7034378  37.2406311  43.4742012  84.9563370
  38.2551193  44.3661194  85.6391907  33.8434944   3.9477620  36.5240250
  34.4597969   3.7762964  35.8119850  33.7946815   3.1204457  37.0029793
   2.9946377  50.3945732  33.7147942   3.2859025  49.4829178  33.6981087
   2.9736946  50.6223488  34.6442604  50.7240067  37.6498604  21.3645878
  50.8371086  38.5995026  21.3243580  51.3603516  37.3060913  20.7375908
  65.3126297   9.5278835  23.3454342  64.5891342   9.8240299  22.7930908
  65.3993149  10.2091379  24.0122242  41.6711426   6.6512113  60.6085892
  42.1543770   6.4804688  61.4170227  42.3206825   7.0311394  60.0169907
  67.6982956  14.7119846  63.8741531  67.9789352  15.0306406  63.0162849
  66.9352264  15.2477341  64.0907745  14.3679953  62.0935974  52.5800552
  14.3695965  61.1641273  52.8087807  14.1056318  62.5381660  53.3861275
  68.7272797  41.3329201  86.0017395  69.1704254  41.3037109  86.8496780
  68.8769455  42.2232895  85.6838150  24.1786594  61.1874161  46.3758354
  23.2767887  61.1598625  46.0563011  24.1859055  60.5907860  47.1243095
  69.6196671  62.9367523  20.6529083  70.1746216  62.1568604  20.6475563
  69.3508453  63.0331573  21.5665131  79.1969147  50.9627304  79.0000458
  80.0309296  50.5327339  78.8109818  79.4144897  51.6331329  79.6477051
  80.7279282  63.5021324  71.6178589  80.9065704  63.8398476  72.4955063
  79.8027039  63.2577171  71.6390228  10.5047140  49.8471260  48.9419785
  10.4771700  50.2292900  48.0648117   9.6103106  49.5448151  49.0997162
   6.6252861  14.2157230  76.3474045   6.2219238  13.3821363  76.1052017
   6.3420429  14.3657417  77.2493515  41.0721931  20.5085182  75.5975800
  41.3432732  19.7291222  76.0826492  40.1182098  20.5192223  75.6752777
   9.3091393  38.2887993  44.4249535   9.2035208  38.6698761  43.5532570
  10.1203394  38.6729088  44.7575874  27.8455334  63.7182846  28.3751049
  27.1083145  63.9937019  28.9199772  28.2412167  62.9919357  28.8568554
  26.8259754  33.0946350  34.3520737  27.4388866  33.7097778  33.9493675
  26.1247768  32.9986877  33.7075996  22.4421310   8.0251417  54.4649582
  21.8931255   7.5588727  53.8345490  23.3217297   7.9892988  54.0891266
  36.6686974  28.8349552  17.7948704  36.0510864  29.3185940  17.2463436
  36.6961861  29.3268280  18.6155643  46.6600380   4.7236834  60.6636848
  47.3382759   5.2722478  60.2696037  46.7997818   3.8577194  60.2805290
  11.1166277  27.9450397  32.3688316  11.2587500  28.3343639  31.5060101
  11.8815975  28.2094460  32.8798523  59.5378799   8.3308401  26.6362457
  59.0203857   7.5314574  26.7333088  59.5895348   8.4693680  25.6905327
  17.0389404   5.2867289  55.5363045  16.5620975   4.4734311  55.3707771
  17.4842796   5.1377563  56.3703957  44.4002266  17.9806023   1.5114520
  45.0364876  18.6951885   1.5391781  44.1445885  17.8519497   2.4248683
  33.2919998  61.6057739  76.7864304  33.1745148  62.1564255  77.5605164
  32.6607246  60.8952446  76.8998947  65.6508789  31.5103798  62.4675293
  65.7188034  30.5740223  62.6542130  66.5509567  31.7858601  62.2937241
   1.6642188   3.7250643  85.7024460   1.7330554   2.8476329  85.3261414
   1.5677726   4.3033051  84.9457703  17.3645573  17.7714462  31.4969616
  17.8598328  18.5617561  31.7122440  17.6249905  17.5625153  30.5998802
  22.8583336  41.9858170  -0.0296324  23.4131107  41.9059677   0.7463056
  22.0103588  42.2712021   0.3105533  74.7684174  11.2632875   1.6094558
  74.1039963  11.9348507   1.4552462  75.3129730  11.2799435   0.8224272
  39.5177765  17.3173084   8.9413366  39.6818810  16.4767456   8.5138388
  40.3456535  17.5334396   9.3704557  14.2679949  16.9636917  63.5983124
  13.6765299  16.4299469  64.1288910  14.1218510  16.6634274  62.7012520
  71.1004562  53.2429008   9.4932213  71.0337982  52.6142883  10.2119961
  71.0699768  52.7056618   8.7015905  26.1496410  41.6594582  20.3061752
  25.7098999  41.5039444  19.4703083  25.9800644  42.5817642  20.4980698
   9.2920656  31.1548786  28.0079174  10.0238371  31.4743652  27.4800243
   9.2246542  31.7817421  28.7281475  74.4560089  61.7314453  60.6583366
  74.9706955  61.6327019  59.8573532  74.3427887  62.6769714  60.7552490
  78.7955017  30.5837021  12.6269064  78.0391541  30.4518070  12.0552635
  79.3122787  31.2595577  12.1882744  58.4768524  43.9551201  11.6052237
  59.0103912  43.3459358  11.0948706  57.9327354  43.3929214  12.1566772
  48.7675896  30.8797302   7.4916587  48.8847504  29.9297905   7.5026774
  47.9377594  31.0134163   7.0336862  19.4925919  62.3447609  22.8644428
  20.3932915  62.5898781  22.6525707  18.9541531  62.9036636  22.3041363
  75.8335876  41.8312988  65.1996918  76.7419434  42.1326599  65.2171326
  75.5066910  42.1054764  64.3428345  49.6271935  55.0744209   4.7991767
  48.8763809  55.5081100   4.3936887  50.1552200  54.7698936   4.0611501
  41.0489044  40.5847664  31.6319141  41.1670723  39.6476898  31.4764938
  41.9200325  40.9604187  31.5044193  46.3311539  57.2294235  34.2422905
  45.7743416  56.6293526  33.7462006  45.8073540  58.0258865  34.3289452
  80.3734818  19.3130836  24.8767662  81.0276031  19.9429188  25.1795349
  80.2890778  18.6898594  25.5983601  53.7525978  60.1297874  31.2817478
  53.8969269  61.0331039  31.5635567  54.1884003  60.0716095  30.4314995
  48.4664497  58.1808357  55.8450165  49.0001564  57.7054024  55.2083435
  49.0235558  58.9044724  56.1317444  15.0100727  37.1806145  37.4515991
  14.2197456  36.6485519  37.5439377  15.7296162  36.5513115  37.5012550
   6.8530607   1.2688576  77.8337173   7.2572260   0.4556457  77.5311127
   6.1926885   1.4693826  77.1704407  21.8728714  56.4290581  18.1076012
  21.6164799  55.5496559  18.3853569  22.2433910  56.8300591  18.8938236
  33.4411621   6.3832474  13.8677635  34.1945572   6.1313581  14.4017859
  33.7718620   6.3781786  12.9695177  77.7632523  51.0937157  44.7106895
  78.3320847  50.3257790  44.6564827  77.1875839  50.9133759  45.4538651
  71.6244354  29.9495602  73.0438232  70.8198318  29.5783539  72.6818161
  71.3372574  30.7341976  73.5108414   0.1603958  15.2995224  64.7344666
  -0.7345403  15.1480474  64.4305344   0.5833048  14.4432154  64.6702881
  41.5934792   8.1548796  23.4324322  41.1982880   8.0882082  22.5631733
  42.5107155   8.3695974  23.2627048  57.0117950  15.3663206  40.4337120
  57.2703018  16.2772694  40.2937889  57.1888885  15.2067890  41.3607597
   6.2069612  14.9813757  32.1749916   5.4162617  14.9560032  31.6361198
   6.0090203  15.6190596  32.8608551  38.7644768  32.2411499  31.0035324
  39.1388245  31.8811779  30.1994686  39.4411888  32.8280296  31.3409748
  79.7594299  32.7648354  84.0229034  80.3866425  32.3824043  83.4092407
  79.1911621  32.0353813  84.2702789  16.0636272  34.4470634  20.9331436
  15.4529448  35.1295204  21.2116280  16.1347237  34.5614586  19.9854660
  74.2338638  37.2685165  56.2680397  73.7012405  37.7331161  55.6225243
  74.0283966  36.3442535  56.1275139  59.6032829  16.2878265  38.7458458
  60.2329674  15.5669365  38.7389679  58.9046288  16.0012035  38.1576614
   2.3959005  27.5331631  18.0326653   3.0760868  28.1398258  17.7401962
   2.8576639  26.7072868  18.1773529   7.1529274   1.7558987  19.4937229
   6.3571296   1.2528197  19.3209534   6.8526993   2.6619809  19.5652084
  65.8798447  56.7988701  27.0106144  66.3606644  57.3314896  26.3770847
  64.9744110  56.8171043  26.7006397  24.6959133  14.2049961  53.6060066
  25.5353394  13.7821846  53.7871895  24.6519718  14.2507029  52.6509056
  81.7960129  12.4965639  65.8117523  81.5298080  11.8447189  66.4601898
  82.5517197  12.9319916  66.2061539  33.8297310  55.8829002  57.5330582
  34.6504898  55.4138260  57.6832542  33.2631149  55.6114388  58.2551994
  70.2717209  43.2255440  82.9462662  69.8208542  42.5083427  82.5006485
  69.7852936  43.3441124  83.7620850  19.6948090  12.4168530  46.6657181
  19.1848202  12.7908440  45.9471970  19.4253101  11.4989538  46.6983109
   9.7907972  46.9640846  67.9219284   9.8682575  46.6395836  67.0247498
   8.8555393  47.1332588  68.0355301  59.2360954   9.1454248  86.2418900
  59.4694176  10.0718737  86.1828537  58.5608864   9.0254564  85.5741119
  18.3044052  43.1765442   4.2815018  17.5968704  43.8088570   4.1557736
  18.3676720  42.7181549   3.4435830  23.3030834   0.3397564  60.1576729
  22.9231415   0.9214494  60.8160858  24.2475624   0.4744089  60.2355232
  41.2352142   5.8435373  56.9010849  40.8558540   6.7216454  56.8658142
  40.6443329   5.3059974  56.3736954  28.9240799  11.1566906  79.9154129
  28.1113396  11.4491749  79.5029297  28.7037907  10.3107710  80.3054428
  66.6548386  34.3819427  53.2826233  65.8331299  34.8309021  53.4812622
  67.1593170  34.4354782  54.0943298  10.5292368   3.0748873  37.5965157
   9.7967386   2.4741862  37.4592705  10.5381651   3.6246693  36.8130035
   2.9842527  32.2762909  78.4522934   3.7432063  31.7862110  78.7685928
   3.3136399  33.1641312  78.3127518  14.6334820  32.4322395  88.1179352
  14.3819265  31.6305542  87.6594009  15.0582895  32.9680405  87.4480972
  56.3144379  43.3864517  22.4564552  57.0065765  43.9550705  22.1190319
  56.7762871  42.6127586  22.7794476   1.1191823   5.3631263   5.8409910
   0.4481055   6.0123940   5.6304221   0.9428593   4.6346755   5.2455907
   0.8694392  13.0674782  40.2344322   0.1691530  12.9114990  39.6007881
   1.0900321  13.9924335  40.1247635  67.9872818  26.6106853  10.6656685
  67.2856827  26.6221848  10.0146303  68.6008911  27.2825241  10.3684206
  82.4883194  25.3643761  80.6894379  82.7937927  24.4932842  80.9426422
  82.7137985  25.9228840  81.4333801   0.4651363  64.1634827   6.1230354
   1.3889660  63.9141655   6.0983405   0.0321976  63.5361710   5.5440059
  38.4783974  42.5948524  17.8565807  38.3406982  43.0297356  17.0150661
  39.4171753  42.4093895  17.8795586  58.4356461  71.0785141  36.5114517
  59.2308617  71.4112091  36.0953064  58.6941719  70.2344818  36.8816032
  64.7240601  18.4087029  25.1734734  65.2539673  18.3262596  25.9663353
  65.1074295  17.7792969  24.5626469  53.9177666  51.6006851  41.5916901
  54.3327942  52.0495071  42.3282661  53.1037903  51.2497215  41.9529343
  68.2050247   6.3660374   9.2238493  68.7081146   7.1800475   9.2010479
  68.3133698   6.0424838  10.1181688  18.7954025  46.3554993  11.7432194
  19.0705795  45.8783073  12.5260344  19.5567417  46.8846245  11.5052710
  53.7140617  56.4348450  77.1607056  54.4803123  57.0084991  77.1647491
  53.7693253  55.9672508  76.3273163  67.7026367  60.8525848  87.5545883
  68.1049957  59.9840775  87.5487671  68.4369736  61.4559898  87.6680984
  22.4002705  30.3830299  22.6923428  22.5104465  30.7947960  23.5493965
  23.2100143  30.5851612  22.2236347  31.4608135  60.4547653  20.3340931
  30.8860378  60.0535049  19.6822834  31.0089931  61.2591858  20.5890369
  16.1911335  14.4680033   3.2304864  16.3126278  15.3969145   3.0340321
  16.0822716  14.0543365   2.3741798  79.0335693  12.5706663  51.0357780
  78.9915695  11.6631927  51.3373718  79.5139542  12.5263033  50.2090416
  76.9094086  30.1140728  50.0896149  76.0001984  30.0252285  50.3754005
  77.4221268  29.7230263  50.7970276  85.3206558  16.6207314  39.6454506
  84.7255783  15.9835968  40.0406303  84.9938278  16.7320881  38.7526932
  52.2694359  30.5328617  12.9955349  52.8381500  31.2360477  13.3091097
  52.0413361  30.0398540  13.7836628  16.7436733  55.3502083  61.7909431
  16.5360012  55.2681084  60.8601570  17.1012516  54.4958878  62.0328255
  11.5377331  65.7301712  15.7580996  11.3757038  65.4335098  16.6536274
  12.4733868  65.5810013  15.6219664  19.2068100   4.2073007  56.7679405
  18.8769207   3.3312936  56.9679832  19.7838993   4.0797510  56.0149918
  27.7721939  10.5690413  10.3032990  27.2009964  11.2655640   9.9795380
  28.3096848  10.3297186   9.5482769  75.2753372  24.7325249  10.1079397
  75.7407074  24.7176189   9.2716169  74.3596497  24.8778191   9.8699455
  47.6709709  15.0574484  85.6179581  47.0807343  14.9375477  86.3619156
  48.1512947  14.2316751  85.5577850  75.0540161  32.4296913  14.7030935
  75.5279999  32.8443375  13.9822340  75.7387695  32.0440369  15.2495461
  47.9768829  19.3701382  31.3224926  47.1171951  19.1438293  30.9675941
  48.5724258  18.7288399  30.9348087  67.9980164  66.6527939  32.5162582
  68.7057266  66.8775864  33.1202774  67.9355469  65.6988754  32.5649033
  55.6376610  51.7656517  55.8527641  55.5379906  52.6009407  56.3094826
  54.9050941  51.2337646  56.1636887  27.2349968   8.6124439   2.7576632
  26.3547230   8.5027266   2.3980663  27.2523670   8.0425930   3.5265584
  66.0931702  10.7483377  32.3177414  66.1813507  10.3463030  31.4535522
  66.7720947  10.3298178  32.8470154  42.3558960  58.4356422  41.7360916
  43.2846756  58.2267647  41.8359451  42.3432159  59.2040710  41.1654892
  83.2128220  51.0438538  34.0049782  83.3712387  51.1194878  34.9459457
  83.4494019  50.1406403  33.7941055   6.4482908  35.4327507  82.2408752
   6.5701766  35.7382355  83.1397934   7.2678843  34.9873848  82.0260544
  37.8330727   6.7892694  36.1736526  36.9507027   6.4871578  36.3890190
  37.9761810   7.5405216  36.7493019  40.2119331  19.5154514  73.2132721
  39.6975899  18.7770958  73.5396347  40.2265511  20.1373405  73.9407806
   4.9063735  57.0379677  81.9575195   5.1410127  56.6549492  82.8027878
   5.1035504  56.3513412  81.3204269  37.2947044  17.7963943  -0.0329474
  37.8689880  17.0316353  -0.0726476  36.6165161  17.5541687   0.5976216
  78.6723709  35.6070938  76.5351944  79.6044464  35.3930855  76.5761032
  78.2566910  34.9813347  77.1283722  66.3571091  19.5926552  68.4923019
  65.9562454  19.5664940  67.6234741  66.3495483  18.6820068  68.7870789
  70.8995667  27.9924526  28.9308777  70.2547607  28.6311665  29.2350178
  71.3540268  28.4339561  28.2134056  44.9042969  30.2675858  85.9202576
  44.0844612  30.7612343  85.9406433  45.0864563  30.1441555  84.9886932
   0.8790705  10.0610495  82.7760849   0.0922490  10.6057987  82.7958679
   1.1010660   9.9273758  83.6975403  25.4976959  57.9701691  12.8789978
  24.7836514  58.6067543  12.8454170  25.0819683  57.1328621  12.6732721
  60.1029587  66.6365967  31.8955288  60.8197517  66.9350815  31.3357601
  60.4583778  65.8753967  32.3543129  41.3225021  11.6072197   7.3193502
  42.1506233  11.4139395   6.8799329  40.7298164  11.8617907   6.6121392
  74.2022629  55.5652847  24.5389576  74.5645294  56.2302933  23.9534969
  73.2977905  55.4550514  24.2456760  60.1382103   9.5893955   6.2289662
  60.8441544  10.2266970   6.3372350  60.0631027   9.4737778   5.2817473
  34.3253975   9.3620996   4.3174624  33.5750160   9.9160547   4.1023064
  33.9548836   8.6475534   4.8355103  75.7467117  46.0881119  22.7948837
  75.3160553  46.8034210  22.3268013  75.0305023  45.5138931  23.0660973
  76.2919083  16.0495892  40.8837547  76.4761200  16.9870605  40.9424667
  75.4462280  15.9991159  40.4382095   2.0423934  13.1505051  47.8463593
   2.1735377  13.1942062  46.8991928   2.2929873  12.2572193  48.0818901
  47.9236336  51.6476898  34.0977821  48.2345848  51.8224220  34.9860458
  47.1514854  52.2049370  34.0003662  64.2074814   9.0652733   7.9357219
  63.6807747   9.8375797   7.7299180  64.6599426   8.8590384   7.1178107
   1.7837845  22.8554287  30.4263859   1.0013676  22.9785995  30.9638672
   1.6651968  23.4550915  29.6897888   3.4639878  24.8832951   1.1662830
   3.2084854  23.9976788   0.9081460   2.6468997  25.3817196   1.1531732
  35.1673012  51.0413361  87.7354050  35.1489944  50.5778809  86.8980865
  35.8540382  51.6997185  87.6297760  17.4554558  29.6247044  80.8244629
  17.0664253  28.7734070  81.0249023  18.1590786  29.4269333  80.2063675
  44.9398232   4.5074339  55.3561516  44.5092430   4.7184768  56.1845818
  45.7117767   5.0730610  55.3365402  15.6250172   0.6976715  72.1516800
  15.1201153   0.1205715  71.5787354  15.9622335   1.3782401  71.5691452
  61.5677490  40.0467606  48.6093407  62.3311043  40.6158943  48.7073593
  61.5732040  39.5011673  49.3958092  25.3814507  41.2470856  82.0701218
  25.8947659  40.9140320  82.8061981  25.0819836  42.1095428  82.3577347
  12.8045950  58.1289787  44.8255730  12.2423563  57.8491364  44.1032104
  12.2002306  58.4937859  45.4720192  84.9680481  41.5569649  23.6731777
  84.0843582  41.7384377  23.3531933  85.2598495  42.3854256  24.0536213
  40.2740974  54.6227570  16.8994961  40.5104446  55.4617081  16.5038567
  39.9418716  54.8523407  17.7673378  44.5700798  50.2327728   2.2332447
  45.0989265  50.6935081   2.8846092  44.0510712  50.9204826   1.8162171
  66.1180878  48.0829315  21.9757175  66.7898560  47.5081711  22.3426189
  66.5925827  48.6459465  21.3640823  19.8833656  24.0360813  10.5094500
  19.2897930  23.2901897  10.5963364  19.3053970  24.7889366  10.3853855
  44.3473511  34.6231003   3.9735992  43.8620377  34.7371597   3.1564736
  45.2261620  34.3644142   3.6961095  23.8311234   4.6883540  88.3011932
  24.5014400   4.1103926  87.9366837  23.0941677   4.6125793  87.6950684
  69.8587723   3.2932148  85.2733383  70.4308167   2.5999467  84.9441299
  69.5095062   2.9459643  86.0941010  65.4266434  66.8094406  34.4456367
  64.5410767  66.7845459  34.8081093  65.2977142  66.9523392  33.5079842
  11.3606396  52.8286400  81.1868591  11.4201298  51.9015160  81.4173813
  10.8234720  52.8445053  80.3947601  86.6382294   0.7902098  36.9575996
  86.1563339   1.2773988  37.6259193  86.2652206  -0.0908020  36.9878349
  38.5173645   3.0664189  13.3286219  38.3992996   2.2924702  12.7778988
  39.4444275   3.0519545  13.5664892  82.2778320  36.3456650   3.2819054
  83.2068863  36.5502052   3.1758242  82.2375870  35.8229866   4.0827909
  58.7648163  58.7223778  81.0974274  58.6666832  59.2584877  80.3105469
  58.2122993  57.9574738  80.9365540  16.7080612  35.5972366  60.2500954
  16.9032764  36.1631393  59.5031853  16.9617653  36.1139641  61.0148544
  76.3083038  22.6725788  87.3222580  75.8916855  22.5859890  88.1796722
  77.2336731  22.8179646  87.5191879  35.2746811   9.0394468  76.1854553
  34.3378181   8.8543568  76.2507172  35.6983566   8.2061644  76.3912964
  65.5405655  51.0732918  54.6158066  65.0440826  51.5823822  55.2565575
  66.2217789  50.6400414  55.1300735  12.8346806  47.5704575  85.7880630
  12.2527275  47.4745331  86.5419617  12.8010101  46.7201614  85.3497772
  38.9776917  61.7561493  58.2911758  39.1023903  60.8109550  58.2057915
  38.4313889  61.8562012  59.0707741  49.9091873  14.4415340  37.4037514
  50.5080070  13.6961813  37.4495506  49.1663513  14.1208944  36.8922653
  50.9481239  69.4720612  36.7683983  50.9601173  69.4660568  35.8112946
  50.1992683  70.0234680  36.9950943  62.2788010   2.8648353  88.8130493
  61.4908485   2.4108202  88.5143356  62.3676949   3.6080582  88.2164383
  77.0693741  43.3898087  43.9704742  76.1897354  43.1339378  43.6930008
  77.4861984  43.7171974  43.1734161  66.7269135  63.4807854  22.8240299
  67.6720886  63.3625565  22.9183121  66.4682922  62.8311119  22.1703739
  12.8676891  69.7262955  28.1680660  12.6344528  70.4024811  28.8041477
  12.0484104  69.5335236  27.7121582  45.8835258  61.1814003  62.9619102
  45.5838509  61.6347847  63.7498665  45.2445297  60.4808388  62.8310318
  26.9206963  56.7064323  54.6169662  26.1654510  57.2518158  54.8369598
  26.7493401  56.4092331  53.7233582  17.1901417  69.7002869  25.2219563
  17.1878242  70.2229843  26.0238400  16.3353195  69.8670883  24.8248577
  50.7924309   5.7335277  38.6390381  50.1060410   6.1508021  38.1184769
  50.6034355   4.7971539  38.5780640  69.4248199  56.6207924  83.9394073
  70.2484283  57.1080399  83.9615173  68.9549942  56.9089279  84.7220154
  75.8627396  52.0644913  54.6097870  75.6704330  51.2981148  55.1500816
  75.3194122  51.9502678  53.8300552  12.8751192  11.2428484   8.2129612
  12.4993515  10.4331141   7.8674769  12.1695957  11.6333399   8.7286987
  20.3555222  57.3329391  61.8407135  20.3828201  56.3779449  61.8996468
  21.0328178  57.6298676  62.4484444  77.6043396  60.8372574  68.9441605
  77.9112320  61.5604973  68.3973770  77.9869308  60.0559998  68.5447998
  34.4394188   3.6612074   8.0521669  34.1914787   4.5022898   8.4360132
  35.1662483   3.3552849   8.5947151  40.6487312  52.7628899  35.7247887
  39.9088020  52.4612770  36.2518272  41.1393585  51.9662247  35.5226898
  71.9414520  60.2447472  35.9555054  71.9712067  60.2104301  34.9993820
  72.6535950  59.6709328  36.2380447  74.2046585  13.8731241  74.0150375
  74.3382568  14.7524328  74.3688736  73.2798386  13.6874485  74.1776962
   6.6098623  38.6474838  80.9121552   6.2271271  39.1856041  81.6050949
   7.5363970  38.8877602  80.9064636  53.6911125   2.9415398  51.3433990
  53.8215599   3.6555722  50.7194023  52.9934578   3.2522113  51.9204559
   4.2547283  70.1356430  23.3975067   4.4695406  69.2459564  23.1172314
   3.3269622  70.0961685  23.6297207  10.9278154  42.7740555  66.2297592
  11.3389282  42.1027756  65.6851501  11.5367527  42.8978195  66.9578400
  82.1902390  48.6627045  57.7971268  81.5977631  48.1986694  58.3886337
  82.6745758  49.2621117  58.3648949  14.1644907  66.0332565  80.1934967
  14.9500837  66.0263443  79.6466599  14.3268328  66.7227783  80.8372574
  58.3526611  35.0797157  34.3613319  59.3031387  34.9968681  34.2841110
  58.0715714  34.2542305  34.7560425  61.0883446  17.6256943  62.0432510
  60.8196831  16.7261658  61.8564301  62.0371323  17.6234875  61.9166451
  44.5948181  52.6198158  36.6393127  44.1719704  51.7651291  36.5559921
  43.9950142  53.2270432  36.2060204  74.8510895  20.5993118  59.1863022
  75.6230087  21.1538048  59.2999039  75.0896072  19.9984150  58.4804268
   8.5873013  35.6935158   7.7897639   8.6174955  34.9943886   7.1366611
   7.6567574  35.7938042   7.9904194  22.2085266  13.5381536  44.3908577
  21.7146358  14.3396349  44.5638695  22.3752899  13.1677723  45.2575989
  86.5324936  24.0003548  51.9539604  86.6886368  24.7745419  52.4947777
  86.4383545  24.3438606  51.0654945  20.2514515   9.2434626  21.9912395
  19.7782326   9.3542576  21.1666069  19.6486721   8.7518644  22.5491123
  27.5247631  17.9169598  12.8022537  26.7110710  17.4855652  13.0630903
  28.1436710  17.1993637  12.6671982  57.3055115  47.2322044  79.4624100
  57.5003128  46.6642189  80.2078476  57.5489235  48.1090240  79.7593460
  85.3914948  54.8603096  40.2839737  86.1590958  54.3953896  39.9510078
  85.7385635  55.6877899  40.6172180  60.9976234  45.8043900  60.6309700
  61.7892151  46.3420334  60.6544838  60.3206406  46.3895798  60.2911568
  42.2035789  21.8223953  27.6553402  43.0198288  22.2016087  27.3295174
  41.6983757  21.6271515  26.8661098  74.0421677  70.0882111  19.6212864
  73.7192764  69.5653229  20.3551559  74.6565781  70.7052078  20.0188332
  37.2314949  18.8790417  38.9799614  37.8446846  18.6623001  39.6822815
  36.4880829  19.2832851  39.4273491  46.0903397  53.5696259   0.0680035
  46.7485771  53.4256325   0.7478713  45.4408951  54.1392975   0.4802257
  62.8543930  45.5708771  47.0270195  62.6584702  44.6345520  47.0607452
  63.2574158  45.7004738  46.1685257  84.8173447  26.9380035  72.0344467
  84.4607925  26.1837597  72.5037231  84.5918427  27.6896114  72.5825958
  64.2847214  40.8430138  30.0452538  65.0319290  40.4004745  29.6426716
  63.6278610  40.1549759  30.1518898  13.5066767  63.1657448  43.0960808
  13.3061266  62.9681587  42.1812172  13.2007809  62.3982925  43.5794792
  85.6702042  44.0993767  20.3463116  86.0634384  44.8411980  20.8059864
  85.0471115  44.4973488  19.7383633  31.5018044   1.0023257  76.0343628
  32.4228020   0.7783747  75.9008026  31.2600880   1.4984189  75.2522583
  47.0666962  50.9163094   8.9853439  47.1484413  50.7574158   9.9257164
  47.2607307  51.8479347   8.8820972  20.7274628  49.4179001  18.6653728
  19.7954140  49.2021446  18.6343136  20.9260540  49.4881783  19.5991039
  70.6271820  18.7323818  49.0169830  71.2568817  19.0654125  48.3776054
  70.3486557  19.5073605  49.5048981  18.0015717  11.5252018  57.8052597
  18.6074963  12.1115637  58.2583237  18.4932652  10.7113895  57.6948967
  77.6521454  10.2715588  33.3304672  76.9992752   9.9497118  32.7088509
  78.3167419   9.5832224  33.3576660  81.0370560  43.1145325  63.2947807
  81.6379776  43.2375603  64.0296249  80.3016586  43.6964035  63.4867477
  33.6159973  60.5961952  66.0593643  33.4788589  59.9152260  66.7179260
  32.8519707  60.5324898  65.4862671  59.7059860  41.7440414  74.4251404
  59.3614349  41.4561729  75.2705154  60.3318176  41.0635033  74.1772842
  14.0448713  47.1143494  75.6221390  13.7326059  47.5662918  76.4060135
  13.3025064  47.1411705  75.0184784  24.2705688  70.5928345  25.1529999
  24.4268646  71.2300720  25.8499451  23.3236942  70.4530716  25.1641846
  51.7198105  49.7689972  12.9062967  51.4679489  49.5765877  12.0030928
  52.2353630  49.0096855  13.1781197  31.3513069   3.2118757  12.3682880
  31.2656136   4.1647630  12.3981934  32.1712456   3.0305982  12.8277140
  14.7428417  34.3426170  71.7823639  14.1823740  33.6477242  72.1276550
  15.4362926  34.4376831  72.4352951  81.7585602  66.3471451  41.9215775
  81.1670456  65.6523056  41.6325378  81.2432022  67.1496582  41.8402214
  46.1377029   9.8943033  15.5848188  45.3341026  10.1152554  16.0556011
  46.7736893   9.7017736  16.2737942   5.2043891  70.2698288  55.9553185
   4.6253281  70.9789505  55.6759224   5.0193429  70.1630478  56.8883743
  23.4380932  38.0057106   2.8761373  22.6966724  37.5767708   2.4488935
  24.2035732  37.5149994   2.5770214  69.3689499  19.4221783  26.1269283
  69.1623077  19.0374146  26.9786835  70.2236557  19.8347263  26.2514820
  44.0209084  15.0087729   1.7146749  44.3418312  15.8743725   1.4617337
  43.1005211  15.0083275   1.4517759  73.4166946   7.3580508  79.3721848
  73.2878952   6.8237967  78.5884628  72.6359711   7.1977544  79.9022903
  20.8425694  42.1557121  38.1603088  20.5565624  41.8451614  39.0193710
  21.6213417  41.6347847  37.9643974   6.0590067  59.9362335  29.5521278
   5.7862101  60.8080597  29.8380165   6.6931729  59.6553764  30.2118130
  40.9079971   3.6420395  17.7915478  41.3116341   3.5906205  18.6579590
  40.5202942   4.5166178  17.7594624  49.2169685  29.9289112  33.2149925
  49.7795486  30.6907902  33.0761528  49.3048096  29.7331276  34.1478310
  84.9164505  36.8628693  17.0343037  85.2910614  36.2127724  16.4399357
  85.6085739  37.5151100  17.1428528  47.5359917  10.7829113   0.7690167
  47.4981117   9.8387823   0.9220461  46.9831772  11.1589460   1.4540163
  82.2724152  33.4044189  51.4482193  81.5224838  33.8989296  51.7788124
  82.4400406  33.7744408  50.5814896  21.1110649  17.2559967  74.5741425
  20.1769695  17.4647007  74.5859528  21.1685047  16.4429951  74.0721817
   5.4194412  14.6313295  79.0773849   5.0906639  14.0742779  79.7829514
   5.2564011  15.5242014  79.3814087  61.8150291  27.2696533  85.1390839
  62.0410271  26.5026035  84.6129684  62.6481209  27.5584908  85.5115891
   1.3302277  69.9900055   6.2615256   1.4664096  69.0856628   5.9789386
   2.1159840  70.4527664   5.9705443  46.7607269  65.4776459   4.4203010
  46.4169312  66.3426590   4.6434526  46.0094414  65.0072021   4.0590811
  10.0802908  51.1792183  59.9516220  10.0624113  51.5830421  59.0839615
  10.7175236  51.6969528  60.4436798  59.3160172  24.7574215  87.6437759
  59.1191406  23.9213982  88.0663147  60.1563873  25.0226326  88.0175095
   3.6147287  16.6723862  56.1348457   4.5110049  16.3621941  56.2640839
   3.1586051  15.9291201  55.7402077  69.6298828   6.4903479  74.2064209
  69.9519119   6.3149667  73.3222427  69.2051926   7.3457069  74.1413727
  70.8245850  43.4607887  56.0769081  70.5127258  44.2412338  55.6187744
  70.7557144  42.7593346  55.4292603  29.9248753  57.9375763  62.7156677
  29.5205460  58.4582138  62.0216331  29.2981625  57.2337074  62.8830910
  80.8353958  14.3120880  68.6998520  80.2626724  13.5512190  68.7962570
  80.2589493  15.0070496  68.3820953  84.0346375  24.4293575  40.8243179
  83.2647781  24.3592052  40.2598457  83.7621231  25.0169277  41.5291100
   4.5290432   8.3677435  53.3946686   4.4191904   7.4336963  53.5727692
   4.4488087   8.7860746  54.2518692  16.6276054  38.4233322  26.3061028
  17.1662712  37.9543762  25.6688061  16.2100468  39.1203079  25.8000355
  22.7585430  43.0893936  22.2419605  23.3990326  42.4523582  22.5584908
  21.9762383  42.5702095  22.0557461  83.1788101  58.9517174  39.9115944
  82.6021500  59.5035324  39.3832054  83.1805267  58.1069870  39.4614182
  35.2971039  63.2559090  14.0881348  34.5264130  63.7469444  14.3730001
  35.7721596  63.8635063  13.5212307  73.5858765  20.4808483  37.6205444
  73.0028458  20.8635178  36.9649010  74.4203491  20.9315834  37.4912338
   8.2572498  54.9070892  85.6039734   8.9209986  54.5689621  85.0028610
   8.2507582  54.2826729  86.3294373  55.4216728   3.3167326  42.5771561
  55.0447960   2.5237281  42.9583931  55.3425560   3.1889701  41.6318245
  11.7552490   6.8267860  32.7561874  12.0536156   5.9181881  32.7154579
  11.2029381   6.9324656  31.9815826  68.0357895  40.7197533  46.2561874
  67.1825867  40.2860413  46.2690239  68.6682358  40.0068474  46.3456993
  80.3961639  70.9189606   5.7747526  80.2931519  70.3318176   6.5236721
  80.7175369  70.3553619   5.0709758  10.5228624  17.7973137   6.3709970
  10.4103460  18.5939636   6.8895721  10.2784681  18.0538425   5.4817858
  50.6388931   5.0911098  83.7817383  50.3845024   4.9511442  82.8696442
  49.8295326   5.3572893  84.2179871  83.6546631   5.0783792  66.2960205
  83.8318405   4.8844924  67.2164764  83.4166412   6.0054798  66.2880478
   9.0293293  30.0083199  79.9782028   9.3227596  30.8976631  79.7802200
   9.1121750  29.5384636  79.1483841   5.5608501  27.0257854  86.6033707
   5.6952171  27.9734974  86.6075516   6.3221726  26.6779861  86.1389771
  33.0271797  40.7426414  13.1927567  33.1825104  41.5360069  12.6802349
  32.2160988  40.3814278  12.8351173   5.2771726  62.4426880  72.4612961
   5.7492008  63.1353531  71.9990921   5.9124274  61.7309494  72.5394440
   5.3994970  22.0871735  49.3363037   5.1061697  22.7699718  49.9396095
   5.8336449  22.5633354  48.6284752  49.4392586  44.5142326  73.7811813
  48.7349091  44.8645515  73.2358398  50.1676216  44.3802032  73.1747513
  82.3959198  29.4622936  84.9216843  82.3376923  29.8753414  84.0601578
  81.8565750  30.0136280  85.4885788  49.0639420  34.6311531  12.1370945
  49.2999535  35.4639015  11.7283640  48.1192436  34.6929245  12.2783661
  86.7228701  71.5549882  89.0818782  90.0000000  90.0000000  90.0000000
